Title
81404
    1CHL1    C3    1   3.736   4.079   9.870  0.5614 -0.7493 -0.7045
    1CHL1    H3    2   3.723   4.000   9.947  0.6173  0.9800  1.1510
    1CHL1    O3    3   3.775   4.198   9.945 -0.6460  0.0378  0.6936
    1CHL1   H3'    4   3.767   4.277   9.892  0.5598 -0.5652 -0.4145
    1CHL1    C4    5   3.843   4.039   9.775 -0.5753 -0.3950  0.4440
    1CHL1   H4A    6   3.876   4.133   9.726  0.7938 -2.3738 -2.6238
    1CHL1   H4B    7   3.934   4.023   9.838  0.4407  3.0181 -0.0582
    1CHL1    C5    8   3.809   3.928   9.674  0.0711  0.0869 -0.1010
    1CHL1    C6    9   3.871   3.803   9.660 -0.4962  0.0234  0.3891
    1CHL1    H6   10   3.965   3.778   9.711 -1.2803 -2.5631  0.6648
    1CHL1    C7   11   3.828   3.706   9.558  0.2209 -0.1851 -0.0610
    1CHL1   H7A   12   3.921   3.662   9.516 -0.0087  0.2022 -0.9771
    1CHL1   H7B   13   3.772   3.626   9.613 -0.0416 -1.1896 -1.7519
    1CHL1    C8   14   3.736   3.765   9.446 -0.1254  0.0409 -0.1272
    1CHL1    H8   15   3.787   3.830   9.371  0.8485 -2.8956 -2.1100
    1CHL1   C14   16   3.676   3.656   9.361 -0.7155 -0.5254 -0.4282
    1CHL1   H14   17   3.618   3.588   9.427  0.3205  0.7725  1.9013
    1CHL1   C15   18   3.775   3.562   9.273 -0.2158 -0.6088  0.0485
    1CHL1  H15A   19   3.857   3.622   9.228 -1.0328  0.1441 -0.4374
    1CHL1  H15B   20   3.814   3.484   9.343  0.7832  2.0878  2.5834
    1CHL1   C16   21   3.678   3.522   9.152 -0.3782 -0.4038 -0.1534
    1CHL1  H16A   22   3.723   3.580   9.068  0.8101 -1.1017 -0.0030
    1CHL1  H16B   23   3.669   3.414   9.125 -0.3907  0.3210 -3.2846
    1CHL1   C17   24   3.532   3.578   9.190 -0.2783  0.1714 -0.0830
    1CHL1   H17   25   3.496   3.502   9.263  1.1230  1.1925  1.7025
    1CHL1   C13   26   3.564   3.704   9.268 -0.3952 -0.0567 -0.1119
    1CHL1   C18   27   3.618   3.802   9.166 -0.2654  0.0371  0.3453
    1CHL1  H18A   28   3.715   3.775   9.119  0.8862  0.8145  2.2288
    1CHL1  H18B   29   3.548   3.835   9.086  0.7216  0.1525 -0.4839
    1CHL1  H18C   30   3.630   3.901   9.216 -1.4366  0.7903 -0.8222
    1CHL1   C12   31   3.440   3.755   9.351 -0.0415 -0.2736 -0.0520
    1CHL1  H12A   32   3.354   3.773   9.283 -1.7885 -1.5476  1.7221
    1CHL1  H12B   33   3.406   3.675   9.421  1.5102  0.6136  1.7561
    1CHL1   C11   34   3.494   3.871   9.438 -0.2131  0.0409 -0.5250
    1CHL1  H11A   35   3.519   3.946   9.359 -0.2803  1.0955  0.4490
    1CHL1  H11B   36   3.411   3.911   9.499 -0.9133 -1.3076 -0.5868
    1CHL1    C9   37   3.621   3.846   9.516 -0.5269 -0.2536  0.2343
    1CHL1    H9   38   3.585   3.771   9.589 -2.3016  0.6281  0.2947
    1CHL1   C10   39   3.671   3.963   9.600 -0.8172  1.1894  0.3882
    1CHL1   C19   40   3.698   4.089   9.513  0.1653 -0.1958  0.2881
    1CHL1  H19A   41   3.742   4.173   9.572  0.4852  1.0721 -1.7328
    1CHL1  H19B   42   3.770   4.055   9.436 -0.6297  0.9493 -0.9726
    1CHL1  H19C   43   3.612   4.129   9.457  1.0678  1.3307 -0.0185
    1CHL1    C1   44   3.563   3.999   9.708  0.1859 -0.1393 -0.3633
    1CHL1   H1A   45   3.474   4.029   9.649  0.0550  0.2622  0.0352
    1CHL1   H1B   46   3.548   3.908   9.770 -1.7977 -1.1110 -2.1974
    1CHL1    C2   47   3.599   4.107   9.805 -0.7249 -0.2829 -1.1416
    1CHL1   H2A   48   3.526   4.145   9.880  1.6964  0.5515  0.8735
    1CHL1   H2B   49   3.628   4.199   9.750 -2.9157  1.3605  0.3613
    1CHL1   C20   50   3.431   3.578   9.072 -0.9474  0.0095  0.0038
    1CHL1   H20   51   3.371   3.671   9.071  2.3831  2.2783  1.1294
    1CHL1   C21   52   3.321   3.469   9.109 -0.8965  0.8424  0.1747
    1CHL1  H21A   53   3.368   3.368   9.105 -0.6058  1.0165 -1.2348
    1CHL1  H21B   54   3.235   3.483   9.040 -1.4112 -0.7169  0.4761
    1CHL1  H21C   55   3.283   3.492   9.210  0.5604  1.3334  0.6201
    1CHL1   C22   56   3.484   3.569   8.931  0.0037 -0.2330  0.4449
    1CHL1  H22A   57   3.570   3.640   8.921  0.8796 -1.3307  0.0175
    1CHL1  H22B   58   3.532   3.476   8.893  1.7421  1.4072 -1.5424
    1CHL1   C23   59   3.391   3.616   8.819 -0.5469  0.8396 -0.0217
    1CHL1  H23A   60   3.465   3.612   8.737  2.5679  0.4706  2.7387
    1CHL1  H23B   61   3.334   3.524   8.793 -0.8244  0.2458  2.5387
    1CHL1   C24   62   3.298   3.735   8.847 -0.1584 -0.4544 -0.5311
    1CHL1  H24A   63   3.217   3.711   8.919  1.9760  0.2552  2.1817
    1CHL1  H24B   64   3.365   3.814   8.888 -0.5329 -1.0168  1.2038
    1CHL1   C25   65   3.226   3.791   8.724 -0.1536 -0.1088 -0.5984
    1CHL1   H25   66   3.153   3.711   8.698 -0.5673 -1.0972  3.2960
    1CHL1   C26   67   3.127   3.909   8.758 -0.1425 -0.2087 -0.1290
    1CHL1  H26A   68   3.071   3.883   8.851  0.7230  1.2476  0.8311
    1CHL1  H26B   69   3.177   4.008   8.758  1.4750 -0.9884 -0.9491
    1CHL1  H26C   70   3.047   3.913   8.682 -0.5480  0.1829  0.3161
    1CHL1   C27   71   3.309   3.838   8.610 -0.6483 -0.2277  0.0998
    1CHL1  H27A   72   3.394   3.904   8.640 -1.5521  1.0340 -0.0605
    1CHL1  H27B   73   3.362   3.761   8.550 -0.2637 -0.1894  0.3861
    1CHL1  H27C   74   3.248   3.903   8.543  0.6080  2.7143  1.6817
    2CHL1    C3   75   3.792   2.923   9.709  0.3074 -0.1792 -0.0148
    2CHL1    H3   76   3.734   3.009   9.669  1.4427  0.8754  0.5436
    2CHL1    O3   77   3.842   2.962   9.837 -0.1613 -0.1890 -0.4500
    2CHL1   H3'   78   3.882   2.886   9.879  1.2582 -0.8494 -2.9356
    2CHL1    C4   79   3.697   2.801   9.723  0.6708 -0.5881 -0.0713
    2CHL1   H4A   80   3.760   2.719   9.763 -0.0402 -2.0142 -1.7812
    2CHL1   H4B   81   3.620   2.821   9.800 -0.1602 -0.7780 -0.8473
    2CHL1    C5   82   3.636   2.769   9.586 -0.3418 -0.5963 -0.3265
    2CHL1    C6   83   3.501   2.758   9.566  0.0818 -0.2552 -0.4556
    2CHL1    H6   84   3.437   2.773   9.654  2.3849  0.2689  1.1822
    2CHL1    C7   85   3.440   2.705   9.436  0.0793 -0.1143 -0.6725
    2CHL1   H7A   86   3.373   2.617   9.453  0.7472 -0.1575  2.0060
    2CHL1   H7B   87   3.384   2.787   9.386  1.9152  0.6887 -1.4510
    2CHL1    C8   88   3.540   2.647   9.341 -0.1024 -0.7558  0.2034
    2CHL1    H8   89   3.562   2.541   9.365  0.4894 -1.2330 -2.2678
    2CHL1   C14   90   3.484   2.646   9.197  0.9065  0.4646 -0.9397
    2CHL1   H14   91   3.461   2.751   9.169  0.9978  1.7056  3.2901
    2CHL1   C15   92   3.349   2.574   9.176 -0.1774 -0.5013  0.5741
    2CHL1  H15A   93   3.362   2.473   9.220  2.7622 -0.5650 -0.3669
    2CHL1  H15B   94   3.269   2.633   9.226  0.3579 -0.6962  1.6589
    2CHL1   C16   95   3.339   2.561   9.025  0.1421  0.1363 -0.0681
    2CHL1  H16A   96   3.312   2.454   9.011  0.4482  0.1136 -0.5156
    2CHL1  H16B   97   3.263   2.622   8.972  1.3348  0.2978 -1.6445
    2CHL1   C17   98   3.483   2.595   8.966  0.3342  0.3668  1.0667
    2CHL1   H17   99   3.484   2.699   8.926  0.9864  0.0189  0.1450
    2CHL1   C13  100   3.577   2.590   9.092  0.0587  0.2137 -0.8299
    2CHL1   C18  101   3.615   2.449   9.120  0.0862  0.5087 -0.1084
    2CHL1  H18A  102   3.679   2.443   9.211 -0.7977  0.0426  0.4835
    2CHL1  H18B  103   3.532   2.377   9.136 -0.5000  0.6446 -2.3647
    2CHL1  H18C  104   3.673   2.402   9.038  0.4123 -1.6383  1.3166
    2CHL1   C12  105   3.701   2.681   9.082 -0.4509 -0.9781 -0.2148
    2CHL1  H12A  106   3.774   2.654   9.003 -1.9232 -1.9150 -1.2879
    2CHL1  H12B  107   3.663   2.784   9.063  0.4299 -1.0561 -2.4947
    2CHL1   C11  108   3.762   2.690   9.222 -0.1110 -0.3452  0.5096
    2CHL1  H11A  109   3.805   2.591   9.252  1.3734 -0.0392 -0.4935
    2CHL1  H11B  110   3.846   2.762   9.217 -1.4407  1.2368  0.8958
    2CHL1    C9  111   3.670   2.738   9.340 -0.5452  0.3613 -0.3308
    2CHL1    H9  112   3.634   2.836   9.304 -0.2719 -0.4384 -2.8640
    2CHL1   C10  113   3.748   2.750   9.473  0.5706  0.3219 -0.5058
    2CHL1   C19  114   3.809   2.610   9.502 -0.2905 -0.0084  0.0266
    2CHL1  H19A  115   3.734   2.535   9.469 -0.9935 -0.0273  1.6196
    2CHL1  H19B  116   3.902   2.605   9.441  0.2896 -0.4615  0.9408
    2CHL1  H19C  117   3.838   2.593   9.608  0.7147  1.4471  0.0120
    2CHL1    C1  118   3.857   2.858   9.472 -0.5822  0.1517 -0.0016
    2CHL1   H1A  119   3.937   2.831   9.400 -0.5431 -1.2901  0.5693
    2CHL1   H1B  120   3.806   2.951   9.439  0.2670 -0.8303 -4.3622
    2CHL1    C2  121   3.906   2.890   9.612  0.4190 -0.2933  0.3857
    2CHL1   H2A  122   3.965   2.983   9.602  1.9262 -1.3294 -0.4848
    2CHL1   H2B  123   3.973   2.808   9.646  1.5455  0.0655 -0.9473
    2CHL1   C20  124   3.519   2.509   8.847 -0.4813  0.6468 -0.7647
    2CHL1   H20  125   3.502   2.408   8.889  0.5368  0.7265 -0.1468
    2CHL1   C21  126   3.655   2.539   8.789  0.1394  0.9791 -0.7967
    2CHL1  H21A  127   3.654   2.643   8.749 -1.8580  1.7907  1.2239
    2CHL1  H21B  128   3.658   2.474   8.699 -1.5876 -0.1036 -0.0901
    2CHL1  H21C  129   3.742   2.522   8.855 -1.6830 -2.6483  0.8301
    2CHL1   C22  130   3.417   2.521   8.733  0.2489 -0.6124  0.1608
    2CHL1  H22A  131   3.313   2.503   8.769 -0.8241 -1.6674 -3.2606
    2CHL1  H22B  132   3.413   2.628   8.703 -1.6414 -0.6064  0.3331
    2CHL1   C23  133   3.424   2.431   8.614 -0.1414  1.2358  0.3661
    2CHL1  H23A  134   3.506   2.469   8.550 -1.2773  1.0950 -1.2062
    2CHL1  H23B  135   3.446   2.324   8.638 -0.9096  0.7338 -1.0688
    2CHL1   C24  136   3.296   2.462   8.526  0.1737  0.3385 -0.9123
    2CHL1  H24A  137   3.213   2.420   8.586 -2.0610  1.7547 -2.9158
    2CHL1  H24B  138   3.272   2.567   8.502  1.2969  0.6771 -0.5741
    2CHL1   C25  139   3.299   2.388   8.394  0.2762 -0.2302  0.7775
    2CHL1   H25  140   3.378   2.418   8.321  0.0419 -1.4782 -0.0164
    2CHL1   C26  141   3.318   2.240   8.413  0.1833 -0.3329 -1.0376
    2CHL1  H26A  142   3.293   2.192   8.315 -4.4312  0.8634 -0.5776
    2CHL1  H26B  143   3.417   2.211   8.454 -0.8174 -1.0435  0.9116
    2CHL1  H26C  144   3.245   2.198   8.485  0.7640  0.8023  0.2213
    2CHL1   C27  145   3.165   2.396   8.327  0.6476 -0.1390  0.7341
    2CHL1  H27A  146   3.078   2.351   8.379 -0.7632  1.4998 -0.1621
    2CHL1  H27B  147   3.133   2.501   8.313  0.2206 -0.4547 -0.8283
    2CHL1  H27C  148   3.171   2.351   8.225 -1.0809  0.4753  0.3539
    3CHL1    C3  149   5.703   3.017   9.619 -0.3896  0.0357 -0.5929
    3CHL1    H3  150   5.724   2.910   9.601 -2.1187  0.1233 -3.3654
    3CHL1    O3  151   5.773   3.057   9.737 -0.0087  0.2522  0.3427
    3CHL1   H3'  152   5.751   3.151   9.733 -0.8138  0.1352  1.8830
    3CHL1    C4  153   5.748   3.102   9.497  0.1112 -0.4846 -0.3068
    3CHL1   H4A  154   5.730   3.212   9.505 -0.8672 -0.7706  1.5528
    3CHL1   H4B  155   5.856   3.082   9.487  0.4609  1.7381 -1.4385
    3CHL1    C5  156   5.676   3.064   9.369 -0.1821 -0.2673 -0.3187
    3CHL1    C6  157   5.735   3.009   9.262 -0.0423  0.3178 -0.4690
    3CHL1    H6  158   5.842   2.983   9.263 -0.4575 -1.4826  0.8655
    3CHL1    C7  159   5.666   2.960   9.142 -0.1365 -1.0233 -0.0967
    3CHL1   H7A  160   5.725   2.987   9.052  2.5560 -1.9496  1.3302
    3CHL1   H7B  161   5.667   2.849   9.150 -3.6825 -0.9137  3.1859
    3CHL1    C8  162   5.522   3.019   9.129 -0.4503  0.0831 -0.1666
    3CHL1    H8  163   5.530   3.128   9.109 -1.0071 -0.0863 -1.3838
    3CHL1   C14  164   5.447   2.949   9.013  0.5019 -0.1139  0.5334
    3CHL1   H14  165   5.442   2.839   9.032 -1.3615 -0.4169 -1.6109
    3CHL1   C15  166   5.503   2.951   8.871 -0.5218 -0.2842 -0.1047
    3CHL1  H15A  167   5.563   3.043   8.856  0.4714 -1.0841 -1.1153
    3CHL1  H15B  168   5.562   2.860   8.847 -1.0556 -0.8859  0.8126
    3CHL1   C16  169   5.375   2.939   8.785 -0.1514 -0.3374  1.2244
    3CHL1  H16A  170   5.375   3.028   8.718 -0.1103 -0.3688  1.1824
    3CHL1  H16B  171   5.386   2.850   8.719  0.6813  1.3973 -1.0608
    3CHL1   C17  172   5.251   2.938   8.874  0.2316  0.0106 -0.0065
    3CHL1   H17  173   5.233   2.833   8.903  0.7771 -0.5892 -1.7693
    3CHL1   C13  174   5.299   3.001   9.003  1.1757  0.8680 -0.4566
    3CHL1   C18  175   5.302   3.160   8.982  0.4782  0.8045  0.1286
    3CHL1  H18A  176   5.362   3.204   9.064 -0.0263  1.1235  0.3244
    3CHL1  H18B  177   5.350   3.185   8.885 -2.3858  1.9567 -1.0445
    3CHL1  H18C  178   5.204   3.212   8.985  0.1961  0.5722 -2.8577
    3CHL1   C12  179   5.234   2.952   9.126 -0.4221  0.0802  0.3209
    3CHL1  H12A  180   5.130   2.991   9.127 -0.6242 -0.4133 -0.8922
    3CHL1  H12B  181   5.224   2.842   9.124  1.1165 -0.0746  0.5669
    3CHL1   C11  182   5.297   3.009   9.254  0.2307 -0.4515 -0.1223
    3CHL1  H11A  183   5.272   3.116   9.240 -1.7213 -1.2766 -3.5992
    3CHL1  H11B  184   5.236   2.979   9.342 -1.0277  0.0008 -0.8333
    3CHL1    C9  185   5.448   3.003   9.265  0.5314  0.5708 -0.0162
    3CHL1    H9  186   5.457   2.894   9.285  1.6109  0.9525  1.6998
    3CHL1   C10  187   5.518   3.076   9.386 -0.4245 -0.2926  0.3326
    3CHL1   C19  188   5.472   3.228   9.397 -0.7408 -0.0358 -0.5166
    3CHL1  H19A  189   5.474   3.280   9.298 -0.0518 -0.3713 -0.6753
    3CHL1  H19B  190   5.364   3.224   9.423 -0.3204  0.1135  1.3160
    3CHL1  H19C  191   5.532   3.284   9.471 -1.1460 -2.3009  1.5947
    3CHL1    C1  192   5.473   2.996   9.513  0.2076 -0.1514  0.7154
    3CHL1   H1A  193   5.366   3.018   9.533 -0.4225 -2.8648  0.4751
    3CHL1   H1B  194   5.476   2.886   9.501 -0.7174 -0.0192 -0.8495
    3CHL1    C2  195   5.553   3.040   9.640  0.2320 -0.4235  0.1818
    3CHL1   H2A  196   5.518   2.987   9.731 -0.3309  0.8163  0.6895
    3CHL1   H2B  197   5.536   3.143   9.675 -2.5956 -1.4261  1.9070
    3CHL1   C20  198   5.122   2.991   8.800 -0.1225  0.1439  0.2116
    3CHL1   H20  199   5.141   3.093   8.761 -3.2719 -0.0280 -1.9378
    3CHL1   C21  200   4.998   2.994   8.895  0.3512 -0.1182 -0.1101
    3CHL1  H21A  201   5.014   3.072   8.973  1.3923  1.8783 -2.2423
    3CHL1  H21B  202   4.967   2.896   8.937  0.9278  1.2121  3.6473
    3CHL1  H21C  203   4.910   3.036   8.841 -1.3163 -1.7642  1.2644
    3CHL1   C22  204   5.085   2.910   8.676 -0.1689 -0.0013  0.3476
    3CHL1  H22A  205   5.168   2.930   8.605  0.2604  0.2680  0.9260
    3CHL1  H22B  206   5.091   2.801   8.696  0.6933 -0.1040 -0.4673
    3CHL1   C23  207   4.963   2.949   8.599  0.3636  0.5071  0.3263
    3CHL1  H23A  208   4.867   2.929   8.651  0.0806  1.1328  0.0517
    3CHL1  H23B  209   4.965   3.054   8.563  0.1513  0.5890  0.5556
    3CHL1   C24  210   4.947   2.856   8.467  0.3299  0.0282 -0.9726
    3CHL1  H24A  211   5.046   2.852   8.417  0.4001 -0.3361 -0.8028
    3CHL1  H24B  212   4.922   2.751   8.493 -1.5461  0.4422 -1.0801
    3CHL1   C25  213   4.832   2.911   8.375 -0.2051 -0.3523 -0.2647
    3CHL1   H25  214   4.740   2.933   8.433  1.4796  0.4094  2.1775
    3CHL1   C26  215   4.872   3.039   8.297  0.0477  0.5036  0.2810
    3CHL1  H26A  216   4.899   3.118   8.370 -0.9265  0.6679  0.4697
    3CHL1  H26B  217   4.969   3.036   8.243 -0.0253  0.3749  0.1582
    3CHL1  H26C  218   4.791   3.081   8.233  0.5225  0.6352 -0.2314
    3CHL1   C27  219   4.794   2.807   8.266 -0.0984 -0.7257 -0.1873
    3CHL1  H27A  220   4.880   2.793   8.198 -0.0074 -1.6699  0.1226
    3CHL1  H27B  221   4.775   2.710   8.317  1.9322 -0.3573  1.3328
    3CHL1  H27C  222   4.706   2.844   8.209  1.4464  0.9452 -1.5379
    4CHL1    C3  223   5.169   3.356   9.793 -0.0063  1.0276 -0.1818
    4CHL1    H3  224   5.060   3.371   9.808  0.3201  1.5719  1.8586
    4CHL1    O3  225   5.215   3.276   9.902 -0.4763  0.1401  0.2488
    4CHL1   H3'  226   5.199   3.184   9.884  1.4274 -0.5810  1.9650
    4CHL1    C4  227   5.206   3.288   9.660  0.0340 -0.0906 -0.6562
    4CHL1   H4A  228   5.310   3.251   9.651 -0.3611 -0.9368 -2.0452
    4CHL1   H4B  229   5.156   3.189   9.656  0.0190 -0.1683  1.2009
    4CHL1    C5  230   5.160   3.373   9.543 -0.1734  0.2870  0.3325
    4CHL1    C6  231   5.075   3.335   9.448 -0.5498  0.4666 -0.1456
    4CHL1    H6  232   5.049   3.228   9.448 -2.5255  0.9315 -0.9319
    4CHL1    C7  233   5.031   3.414   9.325  0.0380 -0.4033  0.4413
    4CHL1   H7A  234   5.041   3.345   9.238 -0.8403  0.1548 -0.1051
    4CHL1   H7B  235   4.924   3.441   9.328  0.2863  0.8055 -1.0339
    4CHL1    C8  236   5.133   3.532   9.299  0.9732 -0.4204 -0.2908
    4CHL1    H8  237   5.227   3.493   9.254  1.5423  0.1191  0.4103
    4CHL1   C14  238   5.076   3.641   9.209  0.9303 -0.2441  0.5774
    4CHL1   H14  239   4.985   3.679   9.259  0.4284 -1.3757  0.5365
    4CHL1   C15  240   5.019   3.601   9.070 -0.4482 -0.2258 -0.1910
    4CHL1  H15A  241   5.085   3.521   9.029 -1.7005  0.3475 -3.4144
    4CHL1  H15B  242   4.912   3.575   9.080 -0.1985 -0.8462  1.0220
    4CHL1   C16  243   5.030   3.726   8.973  0.4602 -0.1397  0.5924
    4CHL1  H16A  244   5.082   3.698   8.879 -0.7053 -1.2334  0.2631
    4CHL1  H16B  245   4.929   3.761   8.945  0.7615  0.7986  0.6524
    4CHL1   C17  246   5.099   3.842   9.054  0.3970  0.3051 -0.0724
    4CHL1   H17  247   5.025   3.901   9.112  0.4027  1.5602 -1.3206
    4CHL1   C13  248   5.171   3.757   9.168 -0.7874  0.0317  0.1494
    4CHL1   C18  249   5.299   3.702   9.106  0.1050 -0.3326  0.6726
    4CHL1  H18A  250   5.344   3.615   9.159  0.3440  0.2491  1.4364
    4CHL1  H18B  251   5.290   3.666   9.001  1.1780 -0.1478  0.5074
    4CHL1  H18C  252   5.377   3.781   9.101  0.2103 -0.5482 -1.9080
    4CHL1   C12  253   5.208   3.830   9.304 -0.7006 -0.3377  0.3461
    4CHL1  H12A  254   5.294   3.894   9.278 -2.2429  1.3237 -0.7798
    4CHL1  H12B  255   5.114   3.882   9.332 -1.6102 -1.1861 -1.0360
    4CHL1   C11  256   5.256   3.733   9.414 -0.2885 -0.0757  0.0579
    4CHL1  H11A  257   5.354   3.698   9.377 -0.2632 -1.4055  1.3292
    4CHL1  H11B  258   5.255   3.789   9.510 -2.8941 -0.6727  0.4082
    4CHL1    C9  259   5.168   3.605   9.431  0.8234  0.6402  0.3632
    4CHL1    H9  260   5.071   3.637   9.476  1.9515  4.1521  0.3834
    4CHL1   C10  261   5.219   3.516   9.546  0.0952 -0.5440  0.4076
    4CHL1   C19  262   5.373   3.518   9.530 -0.1859 -0.5593 -0.1322
    4CHL1  H19A  263   5.394   3.491   9.424  0.2251 -2.0962  0.3264
    4CHL1  H19B  264   5.417   3.618   9.547  0.7769 -0.9846 -0.0834
    4CHL1  H19C  265   5.430   3.457   9.603 -1.1871  0.3143  1.3932
    4CHL1    C1  266   5.199   3.581   9.682  0.3697  0.3327  0.0418
    4CHL1   H1A  267   5.242   3.683   9.679  0.1648  0.5122  2.1203
    4CHL1   H1B  268   5.089   3.600   9.684  0.0897 -1.1139 -0.6933
    4CHL1    C2  269   5.230   3.497   9.798 -0.1209 -0.4807  0.4960
    4CHL1   H2A  270   5.188   3.541   9.892  0.2944 -0.1074  0.5084
    4CHL1   H2B  271   5.338   3.506   9.821  0.4895 -0.6808 -2.1052
    4CHL1   C20  272   5.173   3.941   8.962 -1.2520 -0.5608  0.0370
    4CHL1   H20  273   5.275   3.904   8.936 -0.8824  0.9445 -0.6859
    4CHL1   C21  274   5.196   4.068   9.049  0.7757 -0.2071  0.0235
    4CHL1  H21A  275   5.099   4.112   9.082  0.1598 -1.3199 -0.2850
    4CHL1  H21B  276   5.245   4.147   8.988  1.7036  0.4120  1.5364
    4CHL1  H21C  277   5.262   4.059   9.138 -1.8490 -1.2388  1.9635
    4CHL1   C22  278   5.096   3.981   8.825 -0.7081 -0.1605  0.1413
    4CHL1  H22A  279   5.081   3.886   8.769  1.0527 -0.0118 -0.6035
    4CHL1  H22B  280   4.995   4.027   8.839 -0.7888  0.2446 -1.6894
    4CHL1   C23  281   5.184   4.066   8.726 -0.9649  0.6258 -0.2029
    4CHL1  H23A  282   5.192   4.163   8.780 -1.9603 -0.2076  1.5045
    4CHL1  H23B  283   5.288   4.029   8.732 -0.8908  0.0531 -4.0313
    4CHL1   C24  284   5.125   4.068   8.586 -0.0034 -0.3182 -0.1198
    4CHL1  H24A  285   5.105   3.969   8.541  0.5719  0.3739 -1.9380
    4CHL1  H24B  286   5.024   4.111   8.603 -0.4560 -1.3017 -0.2856
    4CHL1   C25  287   5.194   4.153   8.480  0.1187 -0.2529 -0.1848
    4CHL1   H25  288   5.300   4.121   8.474  0.1235 -0.5010  1.1087
    4CHL1   C26  289   5.122   4.150   8.345  0.4531  0.5754 -0.4557
    4CHL1  H26A  290   5.031   4.213   8.346 -0.4745 -0.7647 -0.3428
    4CHL1  H26B  291   5.189   4.195   8.268  1.0528 -1.1134 -0.9324
    4CHL1  H26C  292   5.091   4.046   8.320  0.2157  0.4373  0.4183
    4CHL1   C27  293   5.208   4.303   8.519 -0.0672 -0.2928  0.6550
    4CHL1  H27A  294   5.244   4.306   8.624  1.3529  0.7533  0.1416
    4CHL1  H27B  295   5.276   4.361   8.454  1.4317 -1.2481  1.3299
    4CHL1  H27C  296   5.108   4.350   8.532  0.1268  0.1079  0.6841
    5CHL1    C3  297   4.773   2.521   9.704 -0.3443  0.0275 -0.6608
    5CHL1    H3  298   4.856   2.455   9.736 -1.5187 -1.5537 -0.8390
    5CHL1    O3  299   4.704   2.574   9.809 -0.2601 -0.2720 -0.7169
    5CHL1   H3'  300   4.646   2.504   9.838 -1.1754 -0.2322 -2.3687
    5CHL1    C4  301   4.818   2.636   9.612  0.3230 -0.0411  0.0540
    5CHL1   H4A  302   4.740   2.713   9.600  0.2896  0.4331  3.0293
    5CHL1   H4B  303   4.895   2.690   9.671  1.0692  0.1331 -1.0665
    5CHL1    C5  304   4.876   2.598   9.480 -0.8956 -0.9037 -0.4241
    5CHL1    C6  305   5.003   2.637   9.461  0.2485  0.2456  0.6915
    5CHL1    H6  306   5.061   2.702   9.528  0.3260  1.4073 -0.4896
    5CHL1    C7  307   5.072   2.606   9.323 -0.2598  0.4134 -0.2834
    5CHL1   H7A  308   5.134   2.694   9.295  1.2723 -0.6187 -0.1315
    5CHL1   H7B  309   5.130   2.513   9.337  0.8113  0.5747 -3.3903
    5CHL1    C8  310   4.967   2.561   9.216 -0.0402 -0.0347 -0.6226
    5CHL1    H8  311   4.908   2.651   9.188  1.3642  0.8437 -0.7968
    5CHL1   C14  312   5.040   2.504   9.100  0.0149 -0.8548  0.8045
    5CHL1   H14  313   5.097   2.414   9.131  0.0096 -1.1670 -0.0824
    5CHL1   C15  314   5.152   2.595   9.037 -0.1359  0.2574 -0.3149
    5CHL1  H15A  315   5.115   2.699   9.023 -1.9642 -0.4410 -0.8402
    5CHL1  H15B  316   5.244   2.576   9.096 -1.0284  1.4476  1.5253
    5CHL1   C16  317   5.183   2.518   8.902  0.0273  0.2858 -0.2814
    5CHL1  H16A  318   5.175   2.595   8.822  1.6237 -1.0346 -1.7332
    5CHL1  H16B  319   5.283   2.470   8.904  0.2516  0.7253 -0.9285
    5CHL1   C17  320   5.070   2.410   8.886  0.4857 -0.5650 -0.3300
    5CHL1   H17  321   5.104   2.310   8.919  1.2822 -0.2495 -0.1908
    5CHL1   C13  322   4.960   2.458   8.980 -0.7362  0.1151  0.0982
    5CHL1   C18  323   4.885   2.587   8.916  0.2998  0.0661 -0.3245
    5CHL1  H18A  324   4.821   2.549   8.833 -1.8890  0.3881  1.1892
    5CHL1  H18B  325   4.817   2.636   8.988 -0.6750 -1.4219 -0.2017
    5CHL1  H18C  326   4.959   2.662   8.880  2.6562 -2.7319 -1.5959
    5CHL1   C12  327   4.860   2.353   9.032 -0.1452  1.0952  0.3751
    5CHL1  H12A  328   4.783   2.325   8.957 -0.1747  1.3930  0.2929
    5CHL1  H12B  329   4.911   2.265   9.077 -1.9917 -0.9940 -1.4797
    5CHL1   C11  330   4.772   2.402   9.149 -0.4757 -0.0785 -0.4541
    5CHL1  H11A  331   4.708   2.486   9.114  0.2098  1.2788  1.4384
    5CHL1  H11B  332   4.714   2.317   9.189  2.7639 -2.1717  0.0196
    5CHL1    C9  333   4.867   2.465   9.266  0.1281 -0.5705  0.3084
    5CHL1    H9  334   4.930   2.378   9.294  1.1887 -0.3471 -1.3122
    5CHL1   C10  335   4.786   2.514   9.386 -0.1753 -0.7961  0.8685
    5CHL1   C19  336   4.676   2.619   9.346  0.0462 -0.0769  0.0611
    5CHL1  H19A  337   4.717   2.705   9.288  1.4274 -0.5655  0.2923
    5CHL1  H19B  338   4.607   2.570   9.273  1.8618  0.0963 -1.8342
    5CHL1  H19C  339   4.613   2.649   9.432  2.6244  2.4290  1.1547
    5CHL1    C1  340   4.725   2.396   9.470  0.6892 -0.4779 -0.4361
    5CHL1   H1A  341   4.640   2.361   9.408 -0.8106  0.9460  0.7375
    5CHL1   H1B  342   4.806   2.322   9.486  0.7555 -0.3216 -0.0342
    5CHL1    C2  343   4.670   2.431   9.613  0.0795  0.2469  0.2564
    5CHL1   H2A  344   4.650   2.334   9.662  1.0097  0.8092  1.7955
    5CHL1   H2B  345   4.571   2.481   9.612 -0.7303 -1.3014 -2.4079
    5CHL1   C20  346   5.037   2.382   8.738 -0.1105  0.2368  0.8010
    5CHL1   H20  347   4.976   2.464   8.694 -0.2874  0.1730  0.9292
    5CHL1   C21  348   4.961   2.245   8.732 -0.7387  0.3517  0.1189
    5CHL1  H21A  349   4.923   2.251   8.628 -1.7856 -4.1700  0.1625
    5CHL1  H21B  350   4.872   2.240   8.797 -0.6761  1.0395  0.2644
    5CHL1  H21C  351   5.032   2.160   8.742  1.4402  1.5451 -3.8955
    5CHL1   C22  352   5.162   2.385   8.645 -0.0511 -0.0515  0.2636
    5CHL1  H22A  353   5.216   2.483   8.649 -0.9227  0.4146  0.6224
    5CHL1  H22B  354   5.234   2.304   8.672 -1.0191 -1.8332 -2.3811
    5CHL1   C23  355   5.134   2.370   8.489  0.2171 -0.5878  0.7779
    5CHL1  H23A  356   5.234   2.347   8.446 -1.1848 -0.4632 -2.6972
    5CHL1  H23B  357   5.061   2.290   8.465  0.9267 -1.1209  0.3537
    5CHL1   C24  358   5.080   2.503   8.426  0.3592 -0.0761  0.0427
    5CHL1  H24A  359   5.002   2.545   8.494  1.1409  0.7405  0.4470
    5CHL1  H24B  360   5.165   2.574   8.437  0.1629  0.1850 -0.1253
    5CHL1   C25  361   5.009   2.486   8.288  0.3224 -0.2767  0.0433
    5CHL1   H25  362   4.990   2.586   8.243 -0.5636  0.3133  1.7298
    5CHL1   C26  363   5.082   2.402   8.189  0.6435 -0.1156 -0.0250
    5CHL1  H26A  364   5.180   2.452   8.173  1.3390 -1.1156  1.0010
    5CHL1  H26B  365   5.104   2.301   8.229  0.6461 -0.4565 -0.8741
    5CHL1  H26C  366   5.023   2.387   8.096 -2.3118  0.9398  1.6085
    5CHL1   C27  367   4.870   2.425   8.302  0.0487  0.3596  0.1084
    5CHL1  H27A  368   4.876   2.315   8.310 -1.1356  0.2922  0.2133
    5CHL1  H27B  369   4.829   2.459   8.400 -1.0431  1.0642 -0.5794
    5CHL1  H27C  370   4.787   2.456   8.235 -0.2461 -0.3146  0.1664
    6CHL1    C3  371   3.057   5.806   9.685 -0.1747 -0.2684 -0.5032
    6CHL1    H3  372   3.153   5.763   9.648 -1.3979 -3.0647 -0.5346
    6CHL1    O3  373   3.023   5.759   9.816  0.4006  0.2168 -0.1028
    6CHL1   H3'  374   2.966   5.683   9.801  0.3069 -0.0117  1.2706
    6CHL1    C4  375   3.057   5.960   9.685 -0.1397 -0.1524 -0.5184
    6CHL1   H4A  376   2.957   5.994   9.722  0.6920  0.1864  1.4480
    6CHL1   H4B  377   3.134   5.999   9.755 -1.1160  1.9456 -0.5592
    6CHL1    C5  378   3.088   6.012   9.546 -0.1965  0.3805  0.2172
    6CHL1    C6  379   3.195   6.086   9.524 -0.2338  0.2233  0.7998
    6CHL1    H6  380   3.252   6.112   9.615  2.7850 -0.7266 -0.7758
    6CHL1    C7  381   3.228   6.145   9.386 -0.4310 -0.1642  0.1361
    6CHL1   H7A  382   3.250   6.253   9.398  1.8207 -0.2963 -2.5258
    6CHL1   H7B  383   3.314   6.091   9.343 -0.1089 -0.2442  0.8853
    6CHL1    C8  384   3.111   6.135   9.284 -0.8219  0.3747  1.0103
    6CHL1    H8  385   3.031   6.208   9.310 -1.3093  0.6957 -1.2453
    6CHL1   C14  386   3.163   6.165   9.144  0.2802 -0.0862 -0.2108
    6CHL1   H14  387   3.240   6.090   9.116  1.5659 -0.5843  4.3592
    6CHL1   C15  388   3.234   6.299   9.132  0.0001  0.1628 -0.1334
    6CHL1  H15A  389   3.176   6.375   9.188  0.3751  1.4662 -1.4961
    6CHL1  H15B  390   3.334   6.288   9.177 -0.1656  1.0988  0.4745
    6CHL1   C16  391   3.228   6.328   8.979 -0.1577  0.1483 -0.9258
    6CHL1  H16A  392   3.169   6.420   8.961 -1.6398 -0.6891 -0.4229
    6CHL1  H16B  393   3.333   6.337   8.944  0.2332  0.0151  0.1777
    6CHL1   C17  394   3.145   6.207   8.918  0.6041 -0.6488 -0.8022
    6CHL1   H17  395   3.217   6.126   8.895  2.6812  1.5121 -2.2281
    6CHL1   C13  396   3.056   6.164   9.031 -0.4144 -0.2352  0.2538
    6CHL1   C18  397   2.944   6.266   9.053  0.1272 -0.6614  0.2571
    6CHL1  H18A  398   2.866   6.245   8.976  1.2417  1.9290 -1.6524
    6CHL1  H18B  399   2.895   6.245   9.150  1.2427 -0.3297  0.8992
    6CHL1  H18C  400   2.978   6.372   9.057 -2.1287  0.0982  0.3362
    6CHL1   C12  401   2.988   6.024   9.030  0.3210  0.8882  0.3914
    6CHL1  H12A  402   2.910   6.003   8.954  0.6918 -0.4642  0.3749
    6CHL1  H12B  403   3.071   5.955   9.005 -1.5809 -1.1580 -0.4690
    6CHL1   C11  404   2.944   5.971   9.169  0.2497 -0.5351 -0.4267
    6CHL1  H11A  405   2.853   6.030   9.193  1.1940  0.5143  0.6449
    6CHL1  H11B  406   2.922   5.862   9.168  3.4575 -1.3069  2.7915
    6CHL1    C9  407   3.044   6.002   9.291 -0.5734 -0.4209 -0.2248
    6CHL1    H9  408   3.125   5.928   9.276 -0.5352  0.3460 -4.2970
    6CHL1   C10  409   2.982   5.973   9.435 -0.4458 -0.1438 -0.3531
    6CHL1   C19  410   2.849   6.051   9.454  0.5854  0.4609 -0.9214
    6CHL1  H19A  411   2.849   6.156   9.418 -0.3819  0.7832  0.0092
    6CHL1  H19B  412   2.770   5.998   9.398 -0.0095  1.1229 -0.7177
    6CHL1  H19C  413   2.813   6.046   9.559 -1.7403  2.8854 -1.5530
    6CHL1    C1  414   2.966   5.815   9.442 -0.0181 -0.0284  0.1354
    6CHL1   H1A  415   2.871   5.787   9.391  0.1053 -0.7785  0.3192
    6CHL1   H1B  416   3.057   5.774   9.393 -1.9425  0.5106 -4.1060
    6CHL1    C2  417   2.943   5.761   9.590  0.0529 -0.5099 -0.1908
    6CHL1   H2A  418   2.939   5.651   9.581  0.9860 -0.3254 -3.5380
    6CHL1   H2B  419   2.849   5.809   9.624 -1.0222  0.4192 -4.2055
    6CHL1   C20  420   3.075   6.240   8.788 -0.1165 -0.4684  0.0919
    6CHL1   H20  421   3.007   6.327   8.800 -0.0188 -0.3666 -0.1058
    6CHL1   C21  422   2.997   6.124   8.722  0.0265 -0.3650 -0.2396
    6CHL1  H21A  423   2.893   6.107   8.759 -0.4949 -0.4660 -1.7292
    6CHL1  H21B  424   3.059   6.033   8.737 -0.1923 -0.5827 -0.6385
    6CHL1  H21C  425   2.985   6.134   8.612 -0.9298  0.4823 -0.0654
    6CHL1   C22  426   3.187   6.284   8.686  0.6000 -0.0254  0.0773
    6CHL1  H22A  427   3.280   6.330   8.725 -0.5060  2.4206 -0.1275
    6CHL1  H22B  428   3.215   6.189   8.635  0.4314 -0.4625  0.7776
    6CHL1   C23  429   3.146   6.391   8.590 -0.2963  0.2531  0.0914
    6CHL1  H23A  430   3.079   6.352   8.510  2.0171 -2.5180 -0.6031
    6CHL1  H23B  431   3.081   6.470   8.633 -2.9184 -1.0478 -1.3046
    6CHL1   C24  432   3.258   6.450   8.501 -0.2452 -0.0207  0.2450
    6CHL1  H24A  433   3.355   6.438   8.553 -1.3114 -1.5384  1.9129
    6CHL1  H24B  434   3.269   6.397   8.404  0.7744 -0.9440  0.8662
    6CHL1   C25  435   3.217   6.596   8.473 -0.3599  0.4642  0.3951
    6CHL1   H25  436   3.227   6.649   8.571 -2.4142  2.7240 -0.5711
    6CHL1   C26  437   3.322   6.666   8.376 -0.0701  0.5912 -1.1676
    6CHL1  H26A  438   3.317   6.641   8.267 -2.6136 -0.3732 -0.8745
    6CHL1  H26B  439   3.309   6.775   8.390  1.5819  0.8409 -1.4856
    6CHL1  H26C  440   3.422   6.638   8.413 -1.1235  0.1551  1.4600
    6CHL1   C27  441   3.077   6.603   8.410  0.8064 -0.3652  0.0966
    6CHL1  H27A  442   2.996   6.555   8.468  0.3276  2.3169  1.6752
    6CHL1  H27B  443   3.064   6.713   8.412  0.2145 -0.4518  1.0221
    6CHL1  H27C  444   3.081   6.560   8.307  1.1482 -0.3485  0.1004
    7CHL1    C3  445   5.000   1.209   9.623 -1.0663  0.3147  0.2584
    7CHL1    H3  446   5.088   1.141   9.622 -0.9656  0.4311  0.7908
    7CHL1    O3  447   4.943   1.246   9.747  0.0764 -0.5257  1.0016
    7CHL1   H3'  448   4.901   1.330   9.727  0.4433 -0.4201  0.6552
    7CHL1    C4  449   5.045   1.331   9.544  0.2287 -0.2789  0.1295
    7CHL1   H4A  450   4.967   1.410   9.552  1.7677  1.1189  1.8154
    7CHL1   H4B  451   5.134   1.370   9.597 -2.1732 -0.3906  4.4171
    7CHL1    C5  452   5.074   1.310   9.389  0.3173  0.5816 -0.1276
    7CHL1    C6  453   5.185   1.361   9.332 -0.6365 -0.1632  0.2229
    7CHL1    H6  454   5.250   1.429   9.389  0.6784  0.3773 -1.8589
    7CHL1    C7  455   5.237   1.351   9.193 -0.5434 -0.1702 -0.4936
    7CHL1   H7A  456   5.250   1.452   9.148 -2.6545 -0.5017 -1.9317
    7CHL1   H7B  457   5.331   1.292   9.186  0.4485  1.2560  0.6864
    7CHL1    C8  458   5.112   1.295   9.111  0.4316 -0.0567 -0.5074
    7CHL1    H8  459   5.047   1.383   9.088  0.3783  0.3467  1.1316
    7CHL1   C14  460   5.167   1.245   8.976  0.2623 -0.5384  0.5828
    7CHL1   H14  461   5.226   1.157   9.009 -2.2273 -2.5584 -0.1189
    7CHL1   C15  462   5.254   1.341   8.894  0.2923  0.0759  0.4714
    7CHL1  H15A  463   5.208   1.442   8.888 -0.0053 -0.1564 -1.7396
    7CHL1  H15B  464   5.359   1.349   8.929  0.2398  0.0670  0.6323
    7CHL1   C16  465   5.250   1.270   8.753  0.3585 -0.2919  0.8030
    7CHL1  H16A  466   5.217   1.345   8.678 -5.6613 -2.5735  0.8536
    7CHL1  H16B  467   5.349   1.223   8.738  0.3627 -0.2652  0.7486
    7CHL1   C17  468   5.140   1.160   8.764 -0.4925 -0.3680  1.2322
    7CHL1   H17  469   5.200   1.070   8.788  0.7743 -0.7791 -3.1323
    7CHL1   C13  470   5.058   1.195   8.889  0.0164 -0.6364  0.2061
    7CHL1   C18  471   4.963   1.308   8.848 -0.2730  0.2841 -0.1747
    7CHL1  H18A  472   5.009   1.381   8.777 -0.3126 -0.9420 -1.4726
    7CHL1  H18B  473   4.872   1.264   8.803  0.1596 -0.5632 -0.2308
    7CHL1  H18C  474   4.919   1.361   8.936  0.4917  0.5648  0.0492
    7CHL1   C12  475   4.971   1.083   8.944 -0.0152 -0.0051 -0.3123
    7CHL1  H12A  476   4.881   1.052   8.887 -1.6488  1.3857  1.4479
    7CHL1  H12B  477   5.033   0.992   8.960 -0.9759 -0.9556 -1.8481
    7CHL1   C11  478   4.921   1.125   9.084  0.1265  0.0648  0.6075
    7CHL1  H11A  479   4.840   1.199   9.071 -0.5925 -0.5345  1.5704
    7CHL1  H11B  480   4.873   1.040   9.138 -1.1126 -0.3164 -1.0616
    7CHL1    C9  481   5.034   1.179   9.181 -0.5526  0.3074 -0.1879
    7CHL1    H9  482   5.101   1.091   9.192 -1.0030  0.1000  1.0649
    7CHL1   C10  483   4.976   1.230   9.316 -0.0956  0.5721 -0.0513
    7CHL1   C19  484   4.857   1.327   9.302  0.3725  0.5807 -0.3655
    7CHL1  H19A  485   4.877   1.414   9.237 -0.0128  0.5287 -0.5556
    7CHL1  H19B  486   4.763   1.280   9.263 -0.1872  0.6506  0.8701
    7CHL1  H19C  487   4.819   1.365   9.399 -0.2148 -1.9833  0.4658
    7CHL1    C1  488   4.940   1.103   9.397 -0.5352 -0.3031 -0.3532
    7CHL1   H1A  489   4.854   1.054   9.347 -2.3399  2.6029 -0.2136
    7CHL1   H1B  490   5.030   1.040   9.381 -0.8446 -1.0691  0.8989
    7CHL1    C2  491   4.900   1.128   9.539  0.4372  0.3368  0.3228
    7CHL1   H2A  492   4.880   1.030   9.587 -2.8049  0.9904  0.4110
    7CHL1   H2B  493   4.802   1.179   9.547 -0.7177 -1.8511  0.3982
    7CHL1   C20  494   5.079   1.110   8.631  0.0254  0.1099  0.6133
    7CHL1   H20  495   4.995   1.178   8.603  1.2633  1.5388  0.2955
    7CHL1   C21  496   5.019   0.968   8.648  0.5380  0.2095 -0.0369
    7CHL1  H21A  497   4.979   0.932   8.551 -0.7632 -0.1650  0.6298
    7CHL1  H21B  498   4.924   0.967   8.706 -1.2718 -1.6714 -2.9281
    7CHL1  H21C  499   5.088   0.899   8.703 -1.3170 -1.7447 -0.1199
    7CHL1   C22  500   5.172   1.109   8.511 -0.1540  0.4911  0.4582
    7CHL1  H22A  501   5.201   1.214   8.486 -2.1912  0.7240 -0.9871
    7CHL1  H22B  502   5.266   1.056   8.537  1.2128  1.9623 -1.3090
    7CHL1   C23  503   5.115   1.048   8.374  0.1283  0.5665 -0.8853
    7CHL1  H23A  504   5.115   0.938   8.390 -1.5103  0.5930 -0.6902
    7CHL1  H23B  505   5.014   1.083   8.344 -0.7477 -0.8374  0.3620
    7CHL1   C24  506   5.195   1.100   8.255 -0.0390 -0.1879  0.0286
    7CHL1  H24A  507   5.162   1.204   8.235  0.2720  0.0683  0.8167
    7CHL1  H24B  508   5.304   1.095   8.277 -0.3626 -3.4927  1.1071
    7CHL1   C25  509   5.189   1.024   8.127  0.4927 -0.1453  0.3630
    7CHL1   H25  510   5.180   0.914   8.139 -1.7438 -0.1945 -1.2424
    7CHL1   C26  511   5.062   1.057   8.055 -0.6281 -0.1310 -0.1823
    7CHL1  H26A  512   5.056   1.011   7.954 -4.0327  2.4258 -1.2392
    7CHL1  H26B  513   4.965   1.052   8.110 -1.4018  4.0601 -0.9892
    7CHL1  H26C  514   5.061   1.160   8.016  1.0464  0.2038  0.6217
    7CHL1   C27  515   5.309   1.043   8.032  0.5101 -0.1821  0.2578
    7CHL1  H27A  516   5.391   0.983   8.076  0.7341 -0.7944 -0.9784
    7CHL1  H27B  517   5.277   1.010   7.931  1.4600  0.4877 -0.2642
    7CHL1  H27C  518   5.320   1.152   8.017  0.4080 -0.2518 -0.3337
    8CHL1    C3  519   5.810   3.733   9.670 -0.4918  0.8642  0.6488
    8CHL1    H3  520   5.908   3.689   9.641 -1.1585 -1.2592  1.5673
    8CHL1    O3  521   5.786   3.716   9.807 -0.1310 -0.9230 -0.1523
    8CHL1   H3'  522   5.813   3.624   9.815  1.2935 -0.6216 -1.1760
    8CHL1    C4  523   5.804   3.882   9.644  0.0021 -0.3151  0.0242
    8CHL1   H4A  524   5.710   3.924   9.686  1.7553  4.1269 -0.1941
    8CHL1   H4B  525   5.891   3.929   9.696  1.1309  0.9661 -2.8918
    8CHL1    C5  526   5.821   3.920   9.497 -0.3660 -0.2999  0.7806
    8CHL1    C6  527   5.914   4.007   9.448  0.2149 -0.1312  0.4247
    8CHL1    H6  528   5.965   4.073   9.519  1.3762 -0.7832  0.1980
    8CHL1    C7  529   5.932   4.041   9.303 -0.1014  0.1865  0.1418
    8CHL1   H7A  530   5.940   4.151   9.291 -2.7671  0.3264 -0.7472
    8CHL1   H7B  531   6.024   4.003   9.254  0.2059 -0.2449  1.0376
    8CHL1    C8  532   5.823   3.987   9.210  0.5744  1.4922  0.1965
    8CHL1    H8  533   5.737   4.057   9.222 -1.3999 -0.8557  0.0945
    8CHL1   C14  534   5.850   3.982   9.061  0.2340 -0.0446 -0.4834
    8CHL1   H14  535   5.940   3.916   9.060  0.0587 -0.3389  1.2889
    8CHL1   C15  536   5.908   4.116   8.994  0.3660 -0.6709 -0.3196
    8CHL1  H15A  537   5.872   4.211   9.038  2.5406 -0.1884  0.5201
    8CHL1  H15B  538   6.019   4.121   8.987  0.4102 -1.2004 -0.0187
    8CHL1   C16  539   5.845   4.108   8.855  0.1043  0.5008  0.2972
    8CHL1  H16A  540   5.757   4.176   8.847 -0.5546 -0.1163  2.1055
    8CHL1  H16B  541   5.914   4.139   8.774 -1.1243 -2.4542 -1.9997
    8CHL1   C17  542   5.783   3.967   8.826  0.2378 -0.1191 -0.5034
    8CHL1   H17  543   5.867   3.900   8.800  0.5460  0.4118 -0.8777
    8CHL1   C13  544   5.738   3.932   8.971  0.2646 -0.7729  0.3106
    8CHL1   C18  545   5.603   4.008   8.997 -0.5460  0.3616 -0.3312
    8CHL1  H18A  546   5.571   4.010   9.104  0.5099 -0.1707  0.0052
    8CHL1  H18B  547   5.601   4.114   8.964  0.8098 -0.3483 -2.7899
    8CHL1  H18C  548   5.522   3.954   8.944 -0.6968  1.0025 -0.7628
    8CHL1   C12  549   5.725   3.787   9.008 -0.2973  0.2433  0.3821
    8CHL1  H12A  550   5.659   3.728   8.941  0.9786 -0.8417  0.0581
    8CHL1  H12B  551   5.827   3.744   8.996 -1.3039 -2.3564  0.6695
    8CHL1   C11  552   5.682   3.767   9.157 -0.3629  0.1848 -0.2250
    8CHL1  H11A  553   5.575   3.796   9.163 -0.2146  1.0795 -1.6195
    8CHL1  H11B  554   5.685   3.657   9.173 -1.6244 -0.2248 -2.5327
    8CHL1    C9  555   5.775   3.848   9.258  0.4167  0.5882 -0.0285
    8CHL1    H9  556   5.868   3.786   9.255  0.5171  0.7424 -0.1316
    8CHL1   C10  557   5.726   3.844   9.403 -0.0608 -0.1742  0.0804
    8CHL1   C19  558   5.585   3.905   9.410 -0.0889  0.1913  0.7839
    8CHL1  H19A  559   5.510   3.845   9.353  0.5879 -0.2036  0.3125
    8CHL1  H19B  560   5.550   3.917   9.515 -0.1878  0.0503  0.7684
    8CHL1  H19C  561   5.571   4.005   9.363  2.6849 -0.0999 -0.7774
    8CHL1    C1  562   5.724   3.690   9.449 -0.2273 -0.2372  0.6940
    8CHL1   H1A  563   5.648   3.638   9.387 -0.0729 -0.8892  1.0481
    8CHL1   H1B  564   5.824   3.643   9.431 -0.2513  0.1691 -0.5539
    8CHL1    C2  565   5.688   3.669   9.596 -0.8141  0.6526  0.3077
    8CHL1   H2A  566   5.685   3.561   9.618 -2.3237  0.3690 -1.1961
    8CHL1   H2B  567   5.593   3.715   9.632 -1.5636  0.3718 -1.2521
    8CHL1   C20  568   5.686   3.971   8.706  0.6655 -0.5569  0.1837
    8CHL1   H20  569   5.601   4.038   8.727  1.3169  0.6700 -0.9780
    8CHL1   C21  570   5.629   3.826   8.685 -0.6284 -0.0693 -0.6464
    8CHL1  H21A  571   5.712   3.752   8.687 -0.3321  0.2926  1.7829
    8CHL1  H21B  572   5.569   3.813   8.592  1.5385  1.2896 -2.2727
    8CHL1  H21C  573   5.562   3.805   8.771 -1.5428 -2.7753 -1.9760
    8CHL1   C22  574   5.755   4.011   8.575  0.1287 -0.1154 -0.0308
    8CHL1  H22A  575   5.812   4.105   8.591  1.9030 -1.3653  1.1941
    8CHL1  H22B  576   5.828   3.938   8.534 -0.0403 -1.0647  1.3227
    8CHL1   C23  577   5.658   4.046   8.456  0.9697  0.4104  0.5317
    8CHL1  H23A  578   5.600   3.954   8.430 -1.7153  1.3281  3.0022
    8CHL1  H23B  579   5.588   4.122   8.497  1.0279 -1.1510  3.6406
    8CHL1   C24  580   5.735   4.095   8.330  0.5348  0.2061  0.0687
    8CHL1  H24A  581   5.796   4.183   8.357 -0.4474  0.5356  1.2893
    8CHL1  H24B  582   5.798   4.007   8.306 -0.3174 -0.3850 -0.0530
    8CHL1   C25  583   5.637   4.116   8.216 -0.3660  0.3477  0.5089
    8CHL1   H25  584   5.611   4.019   8.168 -0.3713  0.0221  1.1747
    8CHL1   C26  585   5.503   4.181   8.253  0.1468 -0.0933  0.0610
    8CHL1  H26A  586   5.521   4.273   8.313 -1.8636 -0.6927  1.6671
    8CHL1  H26B  587   5.454   4.215   8.160  1.2974  0.3464 -0.3976
    8CHL1  H26C  588   5.444   4.097   8.296 -1.0786 -0.1771 -1.7248
    8CHL1   C27  589   5.708   4.190   8.104  0.0810 -0.7866  0.4111
    8CHL1  H27A  590   5.728   4.297   8.126 -2.9938 -0.4938  1.9877
    8CHL1  H27B  591   5.808   4.146   8.084  0.2112 -0.7056  0.8856
    8CHL1  H27C  592   5.653   4.180   8.007 -0.7826 -0.3218  0.8532
    9CHL1    C3  593   3.034   6.342   9.769 -0.5799  0.6027  0.3619
    9CHL1    H3  594   3.097   6.272   9.710 -0.0106  0.5472  1.0263
    9CHL1    O3  595   2.994   6.278   9.890  0.1677  0.1427 -0.2783
    9CHL1   H3'  596   2.929   6.209   9.871  1.4942 -0.6133 -2.1264
    9CHL1    C4  597   3.114   6.473   9.792 -0.7527  0.4802 -0.0203
    9CHL1   H4A  598   3.039   6.544   9.835 -3.5132 -1.8283 -0.8324
    9CHL1   H4B  599   3.198   6.467   9.863 -0.0922 -0.1528 -0.8469
    9CHL1    C5  600   3.160   6.520   9.656  0.1583  0.6776  0.2204
    9CHL1    C6  601   3.284   6.527   9.620  0.4061  0.1422 -0.5021
    9CHL1    H6  602   3.362   6.504   9.694  0.7392  1.3670 -0.4607
    9CHL1    C7  603   3.338   6.562   9.486 -0.3085  0.3416 -0.7877
    9CHL1   H7A  604   3.428   6.625   9.497 -1.0399  1.2850 -0.0696
    9CHL1   H7B  605   3.361   6.465   9.435  3.0298 -0.5742  2.2360
    9CHL1    C8  606   3.229   6.643   9.410  0.0391  0.8363  0.0943
    9CHL1    H8  607   3.227   6.732   9.477 -2.8056  0.7412  0.2029
    9CHL1   C14  608   3.267   6.666   9.261 -0.0299 -0.4608 -0.2809
    9CHL1   H14  609   3.264   6.565   9.215  2.4437 -1.2823  1.2921
    9CHL1   C15  610   3.409   6.727   9.238  0.3047 -0.0632 -0.9834
    9CHL1  H15A  611   3.426   6.818   9.301 -0.8727 -1.5759  1.5979
    9CHL1  H15B  612   3.485   6.646   9.247  0.2486  0.0376  0.6097
    9CHL1   C16  613   3.402   6.777   9.084  0.3439  0.4886  0.5523
    9CHL1  H16A  614   3.423   6.885   9.094 -2.7826  1.2557 -0.5897
    9CHL1  H16B  615   3.476   6.723   9.021  1.1712 -0.1805  2.0583
    9CHL1   C17  616   3.256   6.747   9.045 -0.0530 -0.0716 -0.5822
    9CHL1   H17  617   3.251   6.643   9.006 -1.4680 -0.0196 -0.5619
    9CHL1   C13  618   3.171   6.744   9.172 -0.3091 -0.2061  0.4903
    9CHL1   C18  619   3.170   6.888   9.217  0.3098 -1.0307 -0.3923
    9CHL1  H18A  620   3.157   6.895   9.327  3.1233 -1.3322 -0.0060
    9CHL1  H18B  621   3.258   6.953   9.193 -0.5416  0.2910  0.0213
    9CHL1  H18C  622   3.083   6.941   9.172  1.7125  1.4026 -0.3757
    9CHL1   C12  623   3.035   6.679   9.174 -0.1701 -0.5415  0.3613
    9CHL1  H12A  624   2.970   6.759   9.131  1.5942  0.7184 -0.0187
    9CHL1  H12B  625   3.039   6.588   9.110 -3.2012 -0.7118  0.3319
    9CHL1   C11  626   2.994   6.651   9.312  0.1152 -0.1129 -0.3673
    9CHL1  H11A  627   2.963   6.751   9.348 -1.6045 -0.7059 -0.1633
    9CHL1  H11B  628   2.900   6.593   9.303 -0.1479 -0.0246  1.5731
    9CHL1    C9  629   3.095   6.577   9.409 -0.2503  0.5077 -0.2783
    9CHL1    H9  630   3.106   6.484   9.349 -1.9188  0.2033 -0.1312
    9CHL1   C10  631   3.043   6.546   9.551 -0.0636 -0.4232  0.4120
    9CHL1   C19  632   2.959   6.665   9.602  0.3006 -0.0846 -1.0026
    9CHL1  H19A  633   3.020   6.758   9.594 -0.2090  0.3896  0.3233
    9CHL1  H19B  634   2.868   6.681   9.540 -1.5605 -0.2563  1.5998
    9CHL1  H19C  635   2.928   6.648   9.708  2.5458 -0.8877 -0.4376
    9CHL1    C1  636   2.952   6.418   9.542 -0.2213  0.2296 -0.3963
    9CHL1   H1A  637   2.864   6.449   9.482  0.4145  2.8363 -0.0373
    9CHL1   H1B  638   3.008   6.334   9.494 -1.4799 -1.3066  0.7686
    9CHL1    C2  639   2.909   6.372   9.685 -0.3177  0.2263  0.3663
    9CHL1   H2A  640   2.858   6.274   9.673 -1.8926  1.1358 -0.4422
    9CHL1   H2B  641   2.836   6.440   9.733 -0.3593 -0.0375  0.6797
    9CHL1   C20  642   3.207   6.832   8.919  0.3110  0.0063  0.8751
    9CHL1   H20  643   3.204   6.941   8.941  1.0876  0.0779  0.6566
    9CHL1   C21  644   3.075   6.785   8.864  0.1775 -0.7964 -0.3196
    9CHL1  H21A  645   2.992   6.809   8.934  0.7879 -0.5940  0.3370
    9CHL1  H21B  646   3.075   6.677   8.839  0.8269 -0.9420  0.3054
    9CHL1  H21C  647   3.054   6.832   8.765  0.3729 -0.8271 -0.3766
    9CHL1   C22  648   3.316   6.822   8.804  0.5063 -0.0443 -0.0755
    9CHL1  H22A  649   3.411   6.851   8.854  1.1206 -1.1431 -0.5831
    9CHL1  H22B  650   3.341   6.719   8.773 -0.1198 -0.3446  0.4117
    9CHL1   C23  651   3.280   6.915   8.678  0.1968  0.7469  0.1260
    9CHL1  H23A  652   3.210   6.863   8.609 -1.1105  2.7745 -0.0954
    9CHL1  H23B  653   3.238   7.012   8.713 -4.7967 -0.5659 -1.7623
    9CHL1   C24  654   3.409   6.946   8.605  0.0421  1.1799 -0.3759
    9CHL1  H24A  655   3.478   7.002   8.671  1.8852 -0.1850 -1.1123
    9CHL1  H24B  656   3.456   6.848   8.585 -1.7809  0.4438 -1.1642
    9CHL1   C25  657   3.393   7.032   8.474  0.5165  0.5655  0.1225
    9CHL1   H25  658   3.305   6.994   8.418  1.1653 -0.6784 -0.0698
    9CHL1   C26  659   3.347   7.178   8.497  0.3280 -0.2848 -0.1433
    9CHL1  H26A  660   3.346   7.234   8.401 -1.2405  0.4934  0.3048
    9CHL1  H26B  661   3.245   7.182   8.541 -0.0170 -1.7139 -0.7600
    9CHL1  H26C  662   3.419   7.224   8.567 -1.4940  0.3964  1.3228
    9CHL1   C27  663   3.524   7.034   8.392 -0.3883 -0.1317  0.4731
    9CHL1  H27A  664   3.508   7.100   8.304  0.2562  0.3345  0.6984
    9CHL1  H27B  665   3.616   7.064   8.447  0.1625  0.0108 -0.5223
    9CHL1  H27C  666   3.531   6.934   8.343  2.4726 -0.2177  0.9519
   10CHL1    C3  667   0.890   4.509   9.823 -0.0921  0.6786  0.2700
   10CHL1    H3  668   0.791   4.483   9.778 -0.5305  0.7436  1.1898
   10CHL1    O3  669   0.893   4.498   9.966  0.3974  0.2560 -0.1512
   10CHL1   H3'  670   0.972   4.545   9.996  0.1751  0.6804 -0.2339
   10CHL1    C4  671   1.002   4.433   9.763  1.0390 -0.4533  0.0108
   10CHL1   H4A  672   1.101   4.470   9.795  0.9179 -0.4155  0.3403
   10CHL1   H4B  673   0.976   4.334   9.808  0.5367  0.0267  0.7888
   10CHL1    C5  674   0.996   4.439   9.610 -0.1226  0.0691 -0.2745
   10CHL1    C6  675   0.976   4.332   9.538 -0.0326  0.5313  0.0672
   10CHL1    H6  676   0.978   4.235   9.590 -0.3826  0.8976  0.7632
   10CHL1    C7  677   0.985   4.333   9.384 -0.1192  0.4164 -0.2025
   10CHL1   H7A  678   1.058   4.256   9.353  0.4285  1.2879 -1.0798
   10CHL1   H7B  679   0.889   4.317   9.331 -0.1033  2.3000 -0.8479
   10CHL1    C8  680   1.032   4.466   9.325 -0.4754 -0.5562  0.3166
   10CHL1    H8  681   1.141   4.484   9.332 -0.8515  1.9040  0.3482
   10CHL1   C14  682   0.971   4.465   9.184  0.8289  0.4296 -0.0270
   10CHL1   H14  683   0.860   4.466   9.187  0.8299  0.4065  0.0188
   10CHL1   C15  684   1.026   4.359   9.092  0.0050  0.2278 -0.1655
   10CHL1  H15A  685   1.136   4.369   9.098  0.1449 -2.0102  2.4283
   10CHL1  H15B  686   0.995   4.256   9.120  3.2338 -0.3321  1.5852
   10CHL1   C16  687   0.975   4.401   8.951 -0.7807  0.4682 -0.4944
   10CHL1  H16A  688   1.051   4.376   8.874 -0.3087 -0.3413  0.2235
   10CHL1  H16B  689   0.883   4.348   8.920 -0.2097 -1.2560  0.7138
   10CHL1   C17  690   0.941   4.553   8.968 -0.1207  0.1108 -0.5965
   10CHL1   H17  691   0.831   4.560   8.982 -0.3114 -0.8110 -1.5429
   10CHL1   C13  692   0.997   4.593   9.108 -0.0493  0.3004  0.1561
   10CHL1   C18  693   1.150   4.625   9.082 -0.3409 -0.1413 -0.0446
   10CHL1  H18A  694   1.197   4.545   9.021 -0.5976  0.0123 -0.4462
   10CHL1  H18B  695   1.165   4.724   9.035  0.3472  0.4265  1.3545
   10CHL1  H18C  696   1.207   4.622   9.177  1.5374  0.1149 -1.1331
   10CHL1   C12  697   0.927   4.709   9.179  0.5960 -0.4945 -0.0609
   10CHL1  H12A  698   0.954   4.807   9.136  2.1672  0.1364  2.2724
   10CHL1  H12B  699   0.818   4.692   9.167  0.8903 -2.5195 -0.0337
   10CHL1   C11  700   0.969   4.718   9.333 -0.0092  0.1177 -0.0304
   10CHL1  H11A  701   1.075   4.750   9.331  0.3983 -0.9419  2.4901
   10CHL1  H11B  702   0.896   4.793   9.371  0.1113  0.1387  0.1627
   10CHL1    C9  703   0.955   4.578   9.406  0.1083 -0.2996 -0.0508
   10CHL1    H9  704   0.850   4.543   9.397 -0.0612 -0.2513  1.6421
   10CHL1   C10  705   1.001   4.577   9.556 -0.1504 -0.1786  0.1605
   10CHL1   C19  706   1.140   4.636   9.564  0.3573  0.2906 -0.4302
   10CHL1  H19A  707   1.214   4.585   9.498  0.9172 -0.5369  0.8072
   10CHL1  H19B  708   1.138   4.743   9.537  1.2948  0.6672  0.9113
   10CHL1  H19C  709   1.177   4.618   9.668 -0.6942 -1.3828 -0.3251
   10CHL1    C1  710   0.904   4.667   9.634  0.4524  1.2295  1.5010
   10CHL1   H1A  711   0.929   4.766   9.592 -2.3200  1.2408 -0.2967
   10CHL1   H1B  712   0.802   4.637   9.603  2.3386 -0.9445 -3.0920
   10CHL1    C2  713   0.907   4.657   9.784  0.7721 -0.1284 -0.3306
   10CHL1   H2A  714   0.822   4.714   9.825 -0.1679 -1.3099 -0.6161
   10CHL1   H2B  715   1.003   4.691   9.830  1.9230 -0.3079 -2.5285
   10CHL1   C20  716   0.975   4.640   8.837  0.5487  0.6807 -0.3015
   10CHL1   H20  717   1.085   4.654   8.836  0.6231  0.4277  1.7572
   10CHL1   C21  718   0.912   4.777   8.846  0.6095  0.6326 -0.2859
   10CHL1  H21A  719   0.809   4.771   8.886  0.7283  0.0928 -0.0670
   10CHL1  H21B  720   0.906   4.815   8.741  1.5745 -7.1138 -3.5025
   10CHL1  H21C  721   0.953   4.845   8.924 -1.6759  0.6890  0.9043
   10CHL1   C22  722   0.937   4.573   8.706  0.0575 -0.3967 -0.5864
   10CHL1  H22A  723   0.982   4.631   8.623  1.6421 -1.3784 -0.4506
   10CHL1  H22B  724   1.001   4.482   8.706  1.3884  0.5099  0.9190
   10CHL1   C23  725   0.796   4.528   8.683 -0.3733  0.5153  0.1572
   10CHL1  H23A  726   0.764   4.450   8.755  1.6530 -0.5800 -0.0868
   10CHL1  H23B  727   0.736   4.620   8.698 -2.4724 -0.9357  0.8097
   10CHL1   C24  728   0.760   4.476   8.544  0.1580 -0.1681  0.0933
   10CHL1  H24A  729   0.817   4.383   8.523  1.7901  1.0138 -0.8134
   10CHL1  H24B  730   0.651   4.464   8.529 -0.0402 -1.6685  2.5897
   10CHL1   C25  731   0.801   4.577   8.434  0.0050 -0.4679 -0.3549
   10CHL1   H25  732   0.911   4.571   8.420  0.2965  2.9955  0.0602
   10CHL1   C26  733   0.741   4.524   8.302  0.2914  0.8185  0.7776
   10CHL1  H26A  734   0.633   4.547   8.293 -0.2662 -1.6806  0.7826
   10CHL1  H26B  735   0.784   4.582   8.217  1.3071  0.7602  1.2426
   10CHL1  H26C  736   0.748   4.416   8.277  0.5519  1.3961 -1.7419
   10CHL1   C27  737   0.761   4.719   8.458 -0.7435 -0.3624 -0.6762
   10CHL1  H27A  738   0.651   4.720   8.472 -0.6879 -0.6812 -0.1958
   10CHL1  H27B  739   0.817   4.768   8.541 -3.8789  0.0310  1.2815
   10CHL1  H27C  740   0.777   4.784   8.369  0.1357 -2.2562 -1.9330
   11CHL1    C3  741   2.218   1.242   9.775 -0.8465 -0.4054  0.5446
   11CHL1    H3  742   2.183   1.334   9.723  1.0365  0.1594  0.2543
   11CHL1    O3  743   2.190   1.269   9.916  0.2362 -0.0754  0.8755
   11CHL1   H3'  744   2.210   1.183   9.953  0.5247 -0.7544 -0.8142
   11CHL1    C4  745   2.137   1.122   9.724 -0.2847 -0.0165  0.8501
   11CHL1   H4A  746   2.152   1.035   9.791  1.7675 -0.2699  0.0981
   11CHL1   H4B  747   2.031   1.154   9.736 -0.2857  0.1660  0.3677
   11CHL1    C5  748   2.168   1.089   9.576  0.9213 -0.0661 -0.1300
   11CHL1    C6  749   2.068   1.087   9.486 -0.3448  0.3319 -0.1576
   11CHL1    H6  750   1.965   1.115   9.511 -0.7862  0.2812 -1.8320
   11CHL1    C7  751   2.089   1.058   9.346 -0.3068 -0.6670  0.0317
   11CHL1   H7A  752   2.010   0.997   9.298 -0.3002 -0.6602  0.0128
   11CHL1   H7B  753   2.078   1.153   9.288  0.7725 -0.9352 -0.6225
   11CHL1    C8  754   2.225   0.980   9.329  0.5729 -0.5754  0.1439
   11CHL1    H8  755   2.230   0.875   9.367  0.0631 -1.0315 -1.0388
   11CHL1   C14  756   2.256   0.982   9.175  0.3194 -0.0555  0.1023
   11CHL1   H14  757   2.264   1.087   9.140 -0.4185  0.0389  0.2098
   11CHL1   C15  758   2.152   0.919   9.079  0.2954 -0.2911 -0.7562
   11CHL1  H15A  759   2.108   0.827   9.122 -1.6922  1.8386  1.9165
   11CHL1  H15B  760   2.062   0.984   9.079 -0.4850 -1.2915  3.3218
   11CHL1   C16  761   2.228   0.914   8.943  0.3380 -0.1965  0.1166
   11CHL1  H16A  762   2.201   0.820   8.891  3.0412 -0.2018 -1.3615
   11CHL1  H16B  763   2.188   1.004   8.893  1.6812  1.5853  2.1491
   11CHL1   C17  764   2.378   0.938   8.972  0.1612  0.8714  0.6088
   11CHL1   H17  765   2.392   1.047   8.957 -1.8738  0.8376 -1.7020
   11CHL1   C13  766   2.385   0.920   9.129  0.2686  0.0601 -1.4117
   11CHL1   C18  767   2.388   0.764   9.165 -0.3679 -0.5242  0.1765
   11CHL1  H18A  768   2.486   0.717   9.142  0.2129  1.3351 -1.2457
   11CHL1  H18B  769   2.381   0.761   9.276  0.1164  0.7095  0.2541
   11CHL1  H18C  770   2.304   0.706   9.121 -0.6147 -0.7128  0.8873
   11CHL1   C12  771   2.490   0.999   9.206 -0.5697 -0.3346 -0.0852
   11CHL1  H12A  772   2.592   0.964   9.180  0.5955  1.7756  1.5281
   11CHL1  H12B  773   2.483   1.108   9.185 -0.5827 -0.5947 -1.5128
   11CHL1   C11  774   2.477   1.013   9.365 -0.3315 -0.2777 -0.2260
   11CHL1  H11A  775   2.503   0.911   9.399 -0.5708 -0.0605  0.6059
   11CHL1  H11B  776   2.557   1.081   9.401 -0.9069 -0.6980  1.8704
   11CHL1    C9  777   2.334   1.061   9.403  0.2870  0.5388 -0.2150
   11CHL1    H9  778   2.329   1.167   9.372 -0.4958  0.2382 -1.1541
   11CHL1   C10  779   2.315   1.062   9.552 -0.0126  0.1631 -0.0803
   11CHL1   C19  780   2.373   0.927   9.617  0.5634 -0.1940  0.2216
   11CHL1  H19A  781   2.480   0.917   9.587  0.5142 -2.0685  0.5847
   11CHL1  H19B  782   2.365   0.929   9.727 -2.6438 -0.6232  0.0510
   11CHL1  H19C  783   2.318   0.840   9.574  0.7878  0.1155 -0.7162
   11CHL1    C1  784   2.396   1.183   9.602 -0.0021  0.2069 -0.4816
   11CHL1   H1A  785   2.506   1.169   9.598  0.1235  0.7960  0.7535
   11CHL1   H1B  786   2.359   1.273   9.549 -0.3243  1.6685  2.1565
   11CHL1    C2  787   2.366   1.228   9.751  0.4825  0.3584  0.7192
   11CHL1   H2A  788   2.414   1.327   9.769 -0.8778  0.9498  1.1160
   11CHL1   H2B  789   2.401   1.159   9.830 -0.9755 -0.4521  0.6493
   11CHL1   C20  790   2.466   0.847   8.878 -0.8575  0.9639 -0.5323
   11CHL1   H20  791   2.448   0.740   8.901 -1.8041  1.4392  0.9442
   11CHL1   C21  792   2.613   0.880   8.912 -0.2307  0.5011 -0.0972
   11CHL1  H21A  793   2.623   0.989   8.896 -0.9534  0.7384  1.0076
   11CHL1  H21B  794   2.680   0.836   8.835  1.0850  1.1973  0.6516
   11CHL1  H21C  795   2.632   0.843   9.015 -1.1770 -1.4793 -0.6011
   11CHL1   C22  796   2.430   0.863   8.728  0.3998 -1.2453 -0.2666
   11CHL1  H22A  797   2.326   0.829   8.707 -0.2197 -0.6088  1.6945
   11CHL1  H22B  798   2.439   0.970   8.699  1.2054 -1.4274 -0.6827
   11CHL1   C23  799   2.529   0.795   8.627 -0.1509 -0.3101 -0.0338
   11CHL1  H23A  800   2.624   0.851   8.636 -2.4638  3.6554  0.9442
   11CHL1  H23B  801   2.557   0.691   8.656  0.8771 -0.3824 -1.2718
   11CHL1   C24  802   2.485   0.782   8.478  0.8513  0.1609  0.3898
   11CHL1  H24A  803   2.386   0.732   8.471 -0.6251  3.0663 -0.3833
   11CHL1  H24B  804   2.476   0.884   8.434 -1.7877 -0.3334 -0.2632
   11CHL1   C25  805   2.583   0.714   8.375 -0.0134 -0.3860  0.3784
   11CHL1   H25  806   2.523   0.697   8.283  0.9790 -1.6914 -0.0602
   11CHL1   C26  807   2.692   0.808   8.324 -0.2850 -0.0641  0.4313
   11CHL1  H26A  808   2.753   0.772   8.238 -2.4028 -1.0532 -0.6814
   11CHL1  H26B  809   2.643   0.903   8.294 -1.1714 -1.0632 -1.3785
   11CHL1  H26C  810   2.763   0.824   8.409  0.0664 -0.3645  0.1955
   11CHL1   C27  811   2.636   0.580   8.422  0.5935 -0.0239  0.5734
   11CHL1  H27A  812   2.573   0.527   8.496 -1.1839  1.2861  0.0197
   11CHL1  H27B  813   2.654   0.509   8.338 -1.6541 -1.1811  1.0232
   11CHL1  H27C  814   2.730   0.599   8.479  0.7726 -0.7427  0.5306
   12CHL1    C3  815   0.289   3.183   9.601 -0.2784  0.1873  0.0766
   12CHL1    H3  816   0.338   3.275   9.563 -0.3293 -0.1828 -0.9004
   12CHL1    O3  817   0.240   3.210   9.736 -0.1784 -0.6649 -0.1654
   12CHL1   H3'  818   0.168   3.151   9.760 -0.7987  0.7686  1.6837
   12CHL1    C4  819   0.163   3.153   9.507 -0.3911 -0.4633 -0.5639
   12CHL1   H4A  820   0.104   3.070   9.552 -0.2537 -0.8834 -1.1610
   12CHL1   H4B  821   0.101   3.244   9.521  0.0709 -0.3132  0.5814
   12CHL1    C5  822   0.205   3.111   9.373 -0.6361 -0.4513  0.3478
   12CHL1    C6  823   0.165   3.180   9.269  0.7467  0.2967 -0.2348
   12CHL1    H6  824   0.108   3.269   9.297 -0.3811 -0.2672 -0.7256
   12CHL1    C7  825   0.200   3.155   9.126  0.3886  1.2098 -0.6278
   12CHL1   H7A  826   0.116   3.185   9.060  0.4227  1.4965 -0.5409
   12CHL1   H7B  827   0.285   3.223   9.104 -0.3181  2.5142  0.6314
   12CHL1    C8  828   0.248   3.015   9.109  0.2958 -0.5029 -0.5443
   12CHL1    H8  829   0.156   2.953   9.119 -1.7367  2.6119  0.5415
   12CHL1   C14  830   0.313   2.990   8.979 -0.1746 -0.6295  0.0782
   12CHL1   H14  831   0.402   3.055   8.976 -0.8370  0.3620  1.2182
   12CHL1   C15  832   0.223   3.039   8.858 -0.3305 -0.0356  0.1400
   12CHL1  H15A  833   0.124   2.993   8.878 -0.6898  0.6450 -0.0327
   12CHL1  H15B  834   0.192   3.146   8.850  0.7782  0.3490  1.0113
   12CHL1   C16  835   0.282   2.976   8.737 -0.3660  0.3667  0.1542
   12CHL1  H16A  836   0.211   2.910   8.683 -0.3801  0.2256  0.3472
   12CHL1  H16B  837   0.327   3.053   8.671  2.6086 -0.5210  1.0602
   12CHL1   C17  838   0.390   2.875   8.802  0.7242 -0.5610  0.4283
   12CHL1   H17  839   0.484   2.935   8.802 -0.1379  0.8218  1.5686
   12CHL1   C13  840   0.341   2.852   8.944 -0.0961  0.5654  0.6813
   12CHL1   C18  841   0.218   2.754   8.944  0.7200 -0.1135  0.7794
   12CHL1  H18A  842   0.151   2.781   8.860 -1.1660  1.4339  2.7449
   12CHL1  H18B  843   0.253   2.651   8.924 -0.9088 -0.3464 -0.9848
   12CHL1  H18C  844   0.164   2.759   9.041 -1.5694  1.1120 -0.5354
   12CHL1   C12  845   0.450   2.808   9.046 -0.0086  0.0630  0.5675
   12CHL1  H12A  846   0.479   2.702   9.032 -0.2366 -0.0045  0.6020
   12CHL1  H12B  847   0.535   2.878   9.030 -1.9965  1.8731 -2.6326
   12CHL1   C11  848   0.398   2.820   9.196 -0.5885  0.6285 -0.1895
   12CHL1  H11A  849   0.313   2.750   9.201 -0.8792  1.0912  1.8820
   12CHL1  H11B  850   0.489   2.788   9.250  1.4517  3.0411 -2.0261
   12CHL1    C9  851   0.349   2.967   9.217 -0.8197  0.5532 -0.8747
   12CHL1    H9  852   0.443   3.023   9.201  0.0017 -1.4394 -3.3925
   12CHL1   C10  853   0.310   2.993   9.370  0.4782  0.5050  0.1036
   12CHL1   C19  854   0.228   2.865   9.426  0.6416 -0.2934  0.1477
   12CHL1  H19A  855   0.299   2.789   9.463 -1.4487 -1.3282  2.1240
   12CHL1  H19B  856   0.166   2.876   9.517 -0.3562 -1.5051 -0.3708
   12CHL1  H19C  857   0.161   2.824   9.348  0.1905 -0.2364  0.5059
   12CHL1    C1  858   0.427   3.007   9.469  0.8389  0.0407 -0.7301
   12CHL1   H1A  859   0.498   2.924   9.487  1.0608 -0.2591 -2.8439
   12CHL1   H1B  860   0.488   3.087   9.422  0.3808 -0.5582 -2.3741
   12CHL1    C2  861   0.389   3.069   9.609  0.7827 -0.4221 -0.1046
   12CHL1   H2A  862   0.482   3.109   9.656  0.9513  0.0952 -0.8762
   12CHL1   H2B  863   0.347   2.984   9.667 -1.6316  0.7159 -0.1609
   12CHL1   C20  864   0.427   2.756   8.709  0.7757 -0.2925 -0.5008
   12CHL1   H20  865   0.341   2.686   8.720 -1.2403  1.8002 -2.4048
   12CHL1   C21  866   0.560   2.698   8.746  0.7998 -0.9216 -0.5550
   12CHL1  H21A  867   0.574   2.671   8.853 -0.2021 -3.1702 -0.9766
   12CHL1  H21B  868   0.640   2.771   8.722  0.0562 -0.0676 -0.4471
   12CHL1  H21C  869   0.588   2.609   8.687  2.9266  0.5456 -1.8369
   12CHL1   C22  870   0.436   2.798   8.560 -1.1744  0.2041 -0.3936
   12CHL1  H22A  871   0.331   2.817   8.527 -1.1104  1.9231  0.3365
   12CHL1  H22B  872   0.495   2.891   8.550 -0.7917  0.0070  0.0210
   12CHL1   C23  873   0.510   2.695   8.466  0.3568  0.8903 -0.2859
   12CHL1  H23A  874   0.618   2.719   8.475  0.0100  2.5054 -0.2980
   12CHL1  H23B  875   0.492   2.588   8.488 -0.9568  1.2174  0.2318
   12CHL1   C24  876   0.475   2.713   8.317  0.6302 -0.0293 -0.3146
   12CHL1  H24A  877   0.504   2.817   8.289 -1.1220  0.5167 -0.1534
   12CHL1  H24B  878   0.535   2.644   8.254  1.6159 -0.3222  0.9358
   12CHL1   C25  879   0.325   2.698   8.283  0.2867  0.9487  0.2139
   12CHL1   H25  880   0.249   2.751   8.345 -0.3048 -1.1008  1.2921
   12CHL1   C26  881   0.308   2.775   8.153  0.0818 -0.2207  0.6069
   12CHL1  H26A  882   0.203   2.759   8.121  0.4946 -2.3389  0.2005
   12CHL1  H26B  883   0.333   2.881   8.176  0.1348 -0.3149  0.9972
   12CHL1  H26C  884   0.382   2.747   8.075  0.9780  0.4067  1.2238
   12CHL1   C27  885   0.274   2.549   8.279 -0.0475 -0.6028 -0.1553
   12CHL1  H27A  886   0.267   2.518   8.386  1.3019  0.4859  0.2604
   12CHL1  H27B  887   0.176   2.534   8.229  0.9052 -0.1023 -2.2121
   12CHL1  H27C  888   0.346   2.477   8.235  0.7359 -0.6702  1.1933
   13CHL1    C3  889   6.214   4.494   9.667 -0.2822  0.1016 -0.0687
   13CHL1    H3  890   6.240   4.602   9.675 -1.1438  0.1977  1.6396
   13CHL1    O3  891   6.200   4.448   9.801 -0.4740 -0.0442  0.4736
   13CHL1   H3'  892   6.122   4.486   9.843  0.2280  1.3843  0.5270
   13CHL1    C4  893   6.083   4.488   9.600  0.4716 -0.6177  0.9375
   13CHL1   H4A  894   6.058   4.380   9.598  1.0468 -0.7487  0.3704
   13CHL1   H4B  895   6.005   4.547   9.652  2.2712  3.6043 -0.9396
   13CHL1    C5  896   6.090   4.544   9.459 -0.1211  0.4655 -1.0394
   13CHL1    C6  897   6.018   4.640   9.413  0.5564  0.2813 -0.0477
   13CHL1    H6  898   5.949   4.682   9.488 -0.0518 -1.8173  0.6155
   13CHL1    C7  899   5.998   4.686   9.269 -0.3634 -0.0328  0.6233
   13CHL1   H7A  900   5.889   4.691   9.247 -0.7757 -5.2722  0.8662
   13CHL1   H7B  901   6.046   4.786   9.256 -0.6553  0.1338  0.8154
   13CHL1    C8  902   6.071   4.596   9.170  0.2629  0.6760  0.7486
   13CHL1    H8  903   6.018   4.498   9.165  0.4934  0.4778  1.8739
   13CHL1   C14  904   6.097   4.666   9.038 -0.7911  0.6281  0.5126
   13CHL1   H14  905   6.169   4.749   9.053 -0.2987  0.2389  0.3070
   13CHL1   C15  906   5.979   4.734   8.967  0.1161  0.1820 -0.4372
   13CHL1  H15A  907   5.898   4.659   8.961  0.5312 -0.1934 -1.4310
   13CHL1  H15B  908   5.952   4.827   9.021  1.0260 -0.7428  1.6722
   13CHL1   C16  909   6.048   4.758   8.828  0.8226 -0.3471 -0.3272
   13CHL1  H16A  910   5.976   4.731   8.748 -0.0364 -0.4872  0.4799
   13CHL1  H16B  911   6.076   4.866   8.832  1.3402 -0.4616 -0.8564
   13CHL1   C17  912   6.169   4.668   8.812 -0.0693 -0.3693  0.8065
   13CHL1   H17  913   6.260   4.732   8.824  0.1413 -0.0917 -1.9132
   13CHL1   C13  914   6.165   4.573   8.937  0.0077 -0.7648  0.2409
   13CHL1   C18  915   6.075   4.451   8.910 -0.2943 -0.3053  0.4674
   13CHL1  H18A  916   6.069   4.371   8.987  3.2035 -1.4014 -0.3288
   13CHL1  H18B  917   5.975   4.482   8.873 -0.5774 -2.0840 -0.3175
   13CHL1  H18C  918   6.123   4.395   8.827 -0.8382 -1.3582  0.8502
   13CHL1   C12  919   6.308   4.539   8.989  0.3033 -0.0813  0.5560
   13CHL1  H12A  920   6.363   4.472   8.919  1.6968  0.3517  1.2208
   13CHL1  H12B  921   6.364   4.635   8.992  0.4758 -0.1170 -1.1208
   13CHL1   C11  922   6.296   4.467   9.126  0.3115 -0.0485 -0.0755
   13CHL1  H11A  923   6.244   4.369   9.116 -2.6286  1.2136  2.0241
   13CHL1  H11B  924   6.399   4.451   9.164  0.6131 -0.9011 -1.2414
   13CHL1    C9  925   6.208   4.548   9.227  0.9840  0.1565 -0.0020
   13CHL1    H9  926   6.264   4.638   9.258  1.4978 -0.2378  0.2254
   13CHL1   C10  927   6.191   4.469   9.366 -0.1145  0.1559 -0.1443
   13CHL1   C19  928   6.146   4.324   9.345 -0.3298 -0.3084  0.3880
   13CHL1  H19A  929   6.122   4.269   9.438  0.5205  0.4440  1.0609
   13CHL1  H19B  930   6.064   4.324   9.270  0.4721 -0.2718 -0.4942
   13CHL1  H19C  931   6.232   4.271   9.299  0.6333  0.3449  1.4051
   13CHL1    C1  932   6.329   4.471   9.441  0.2197 -0.4993 -0.2072
   13CHL1   H1A  933   6.400   4.416   9.375 -0.6036 -1.8846  0.0462
   13CHL1   H1B  934   6.370   4.574   9.444 -0.1572 -0.3090 -1.2081
   13CHL1    C2  935   6.323   4.419   9.587 -0.4823 -0.0075 -0.2267
   13CHL1   H2A  936   6.421   4.418   9.638  0.3888  2.4415 -1.7787
   13CHL1   H2B  937   6.283   4.315   9.580  0.3036 -0.1040 -4.7684
   13CHL1   C20  938   6.190   4.606   8.664 -0.1056 -0.2606 -0.1745
   13CHL1   H20  939   6.107   4.534   8.648  2.0869 -2.2789 -2.8961
   13CHL1   C21  940   6.324   4.537   8.662 -0.5487  0.3732 -0.1157
   13CHL1  H21A  941   6.335   4.449   8.729 -0.5127 -0.5522 -1.3247
   13CHL1  H21B  942   6.409   4.602   8.692  0.0024  0.6207 -2.1183
   13CHL1  H21C  943   6.335   4.494   8.560 -1.8011 -2.0408  0.7308
   13CHL1   C22  944   6.185   4.712   8.548 -0.4106  0.2052  0.4405
   13CHL1  H22A  945   6.109   4.791   8.563 -0.6842 -0.1696  1.0302
   13CHL1  H22B  946   6.284   4.761   8.544 -0.8412  1.2845  2.3181
   13CHL1   C23  947   6.155   4.649   8.416 -0.4859 -0.2461  0.1672
   13CHL1  H23A  948   6.238   4.581   8.387  0.1277  1.3350 -1.9505
   13CHL1  H23B  949   6.062   4.588   8.426 -1.5282  1.1398 -0.8486
   13CHL1   C24  950   6.127   4.747   8.292  0.2127  0.2523  0.4373
   13CHL1  H24A  951   6.044   4.819   8.312 -0.6826 -0.5416 -0.3677
   13CHL1  H24B  952   6.218   4.810   8.292  1.6400 -1.7870  0.5060
   13CHL1   C25  953   6.081   4.675   8.167 -0.1166 -0.2352  0.2597
   13CHL1   H25  954   6.157   4.598   8.139  0.2633  0.7148 -1.3920
   13CHL1   C26  955   5.947   4.611   8.180  0.0714 -0.2704 -0.1182
   13CHL1  H26A  956   5.945   4.532   8.258 -1.9445  1.4040  1.5913
   13CHL1  H26B  957   5.873   4.689   8.208  0.2510  0.2030 -0.9404
   13CHL1  H26C  958   5.930   4.567   8.079 -2.8732  0.1593  0.1265
   13CHL1   C27  959   6.079   4.779   8.051 -1.3318 -0.4843 -0.1960
   13CHL1  H27A  960   6.164   4.850   8.053 -1.7111 -0.0460  0.6408
   13CHL1  H27B  961   6.071   4.724   7.954  0.2535 -0.6840 -0.2228
   13CHL1  H27C  962   5.982   4.832   8.057  0.9289  3.7523  0.6623
   14CHL1    C3  963   4.516   0.706   9.695 -0.0735 -0.0240  0.4767
   14CHL1    H3  964   4.574   0.612   9.700 -0.3480 -0.3005 -1.4008
   14CHL1    O3  965   4.481   0.744   9.821 -0.1212  0.3134  0.7194
   14CHL1   H3'  966   4.572   0.753   9.850  0.1407  1.3247 -0.3954
   14CHL1    C4  967   4.608   0.805   9.632 -0.2716  0.3689 -0.7969
   14CHL1   H4A  968   4.563   0.907   9.632 -0.1890  0.4106 -1.8837
   14CHL1   H4B  969   4.695   0.818   9.699 -0.4374  1.1481 -0.7322
   14CHL1    C5  970   4.650   0.782   9.491 -0.5337 -0.0209 -1.4940
   14CHL1    C6  971   4.781   0.769   9.455 -0.4937 -1.0092 -0.1991
   14CHL1    H6  972   4.859   0.776   9.533  1.4504 -2.5492 -1.9473
   14CHL1    C7  973   4.826   0.753   9.314 -0.0865 -0.2839 -0.8901
   14CHL1   H7A  974   4.910   0.820   9.286  1.4765 -1.8653 -0.1032
   14CHL1   H7B  975   4.882   0.659   9.294 -1.3642 -0.9795 -1.2097
   14CHL1    C8  976   4.710   0.762   9.211  0.4438 -0.8003 -0.6019
   14CHL1    H8  977   4.691   0.871   9.200 -2.2467 -1.2098 -0.2970
   14CHL1   C14  978   4.749   0.690   9.078 -0.9012  0.1313 -0.6187
   14CHL1   H14  979   4.739   0.581   9.097 -0.1112 -0.0423 -1.2099
   14CHL1   C15  980   4.890   0.710   9.025  0.1388  0.1234 -0.3842
   14CHL1  H15A  981   4.933   0.808   9.054  2.4075 -1.0882  0.5444
   14CHL1  H15B  982   4.964   0.644   9.076  0.8240  0.3431 -1.0739
   14CHL1   C16  983   4.888   0.690   8.877 -0.7812 -0.2316 -1.1149
   14CHL1  H16A  984   4.884   0.788   8.824  0.6894  0.8240  0.6553
   14CHL1  H16B  985   4.968   0.632   8.828 -0.7791 -1.1273 -0.0692
   14CHL1   C17  986   4.743   0.630   8.850 -0.2527 -0.5238  0.4135
   14CHL1   H17  987   4.735   0.522   8.873  3.5799 -0.9698 -0.1150
   14CHL1   C13  988   4.658   0.699   8.957  0.9453 -0.0311 -0.1554
   14CHL1   C18  989   4.647   0.851   8.923  0.1247  0.0164 -0.0126
   14CHL1  H18A  990   4.602   0.882   8.827  2.7760  0.1023 -1.2678
   14CHL1  H18B  991   4.603   0.901   9.012  0.1886 -0.9987  0.6026
   14CHL1  H18C  992   4.745   0.904   8.919  0.0083  0.2635  0.3698
   14CHL1   C12  993   4.521   0.643   9.009 -0.1179 -0.0432  0.2557
   14CHL1  H12A  994   4.443   0.648   8.929 -0.9575 -0.9195  0.9996
   14CHL1  H12B  995   4.543   0.538   9.037  1.2458 -0.2448 -1.5091
   14CHL1   C11  996   4.476   0.708   9.140  0.4236 -0.6471  0.2584
   14CHL1  H11A  997   4.429   0.807   9.117 -0.4336 -1.6500 -2.5290
   14CHL1  H11B  998   4.390   0.645   9.171 -1.0861 -0.9610 -4.2795
   14CHL1    C9  999   4.580   0.707   9.254  0.0975 -0.0175 -0.2581
   14CHL1    H9 1000   4.606   0.601   9.272 -2.1922 -0.4486  0.6380
   14CHL1   C10 1001   4.532   0.762   9.391  0.1555 -0.1187  0.3036
   14CHL1   C19 1002   4.454   0.896   9.365  0.0977 -0.3861  0.1409
   14CHL1  H19A 1003   4.505   0.952   9.283  1.0649 -0.4897  0.6750
   14CHL1  H19B 1004   4.348   0.877   9.336  0.2220  0.3724 -0.8361
   14CHL1  H19C 1005   4.454   0.961   9.455  2.3562 -2.0079  1.3359
   14CHL1    C1 1006   4.430   0.666   9.450  0.0436 -0.8502 -0.2595
   14CHL1   H1A 1007   4.334   0.666   9.395 -2.7228 -1.2333  4.3218
   14CHL1   H1B 1008   4.467   0.561   9.448 -0.5466 -1.0436 -2.1189
   14CHL1    C2 1009   4.392   0.696   9.598  0.8867  0.5152 -0.1686
   14CHL1   H2A 1010   4.322   0.619   9.637 -1.2619  2.2885 -0.4375
   14CHL1   H2B 1011   4.336   0.792   9.601  1.2818  0.7399  0.1016
   14CHL1   C20 1012   4.711   0.633   8.699 -0.4771  0.3377  0.3020
   14CHL1   H20 1013   4.710   0.739   8.666  0.2057 -0.1027 -1.1867
   14CHL1   C21 1014   4.572   0.565   8.672 -0.3940 -0.5341 -0.5499
   14CHL1  H21A 1015   4.553   0.568   8.563  1.3108 -0.3582 -0.8680
   14CHL1  H21B 1016   4.491   0.627   8.717  0.3904  1.2771 -1.5674
   14CHL1  H21C 1017   4.574   0.457   8.695 -0.4817 -0.4196  0.0240
   14CHL1   C22 1018   4.823   0.573   8.613 -0.3351  0.5778 -0.7561
   14CHL1  H22A 1019   4.920   0.623   8.636  0.2407 -1.6515  1.9017
   14CHL1  H22B 1020   4.832   0.468   8.647 -3.9725  0.4606 -0.0005
   14CHL1   C23 1021   4.809   0.591   8.463 -0.4269  0.3185  0.4219
   14CHL1  H23A 1022   4.900   0.550   8.415 -0.4324  0.2882  0.4376
   14CHL1  H23B 1023   4.727   0.524   8.428 -0.6767 -0.0274  1.6228
   14CHL1   C24 1024   4.783   0.734   8.415 -0.2637  0.4917 -0.3061
   14CHL1  H24A 1025   4.688   0.767   8.462 -1.4054 -1.4436 -1.1897
   14CHL1  H24B 1026   4.872   0.795   8.442 -0.3613  1.3605 -1.8588
   14CHL1   C25 1027   4.754   0.750   8.262 -0.2769 -0.3883  0.4217
   14CHL1   H25 1028   4.675   0.677   8.236  1.1866 -0.9990 -2.5078
   14CHL1   C26 1029   4.714   0.896   8.227 -0.3379  0.2023 -0.8345
   14CHL1  H26A 1030   4.695   0.919   8.120 -1.3977 -0.8656 -0.8826
   14CHL1  H26B 1031   4.614   0.924   8.266  0.1546  2.3845 -1.0867
   14CHL1  H26C 1032   4.784   0.969   8.273  0.3838 -0.6224 -0.6243
   14CHL1   C27 1033   4.873   0.715   8.176  0.0693 -0.7993  0.0491
   14CHL1  H27A 1034   4.843   0.725   8.069 -2.7865  1.2416  0.9857
   14CHL1  H27B 1035   4.954   0.788   8.199  0.5082 -1.2461 -0.0729
   14CHL1  H27C 1036   4.921   0.616   8.189  1.0435 -0.5990 -1.8468
   15CHL1    C3 1037   3.849   0.595   9.714 -0.0744 -0.4373  0.4839
   15CHL1    H3 1038   3.816   0.682   9.653  1.7394 -0.0703 -0.0136
   15CHL1    O3 1039   3.822   0.595   9.852  0.0755  0.3413  0.0613
   15CHL1   H3' 1040   3.837   0.684   9.886 -1.3700 -0.3632  2.7219
   15CHL1    C4 1041   3.776   0.471   9.657 -0.0500  0.7803 -0.8820
   15CHL1   H4A 1042   3.809   0.389   9.724  2.4131  3.5786  1.5202
   15CHL1   H4B 1043   3.668   0.497   9.665 -0.3899 -0.6502 -0.7863
   15CHL1    C5 1044   3.816   0.442   9.512  0.1173 -0.1549  0.3648
   15CHL1    C6 1045   3.726   0.440   9.408  0.5505  0.7348  0.1488
   15CHL1    H6 1046   3.617   0.446   9.422  0.5810  0.6220  0.4348
   15CHL1    C7 1047   3.770   0.415   9.266  0.1958  0.3563  0.2240
   15CHL1   H7A 1048   3.704   0.359   9.196  0.3676  1.1535 -0.5839
   15CHL1   H7B 1049   3.756   0.515   9.220 -0.9709 -0.8024 -2.0188
   15CHL1    C8 1050   3.914   0.367   9.254 -0.9091  1.0139  0.5140
   15CHL1    H8 1051   3.912   0.258   9.273 -1.6068  0.7584 -0.9127
   15CHL1   C14 1052   3.958   0.378   9.106  0.6109 -0.2504 -0.1937
   15CHL1   H14 1053   3.966   0.488   9.092 -2.6181  0.2580  1.3965
   15CHL1   C15 1054   3.869   0.325   8.995  0.5116 -0.5728 -0.9210
   15CHL1  H15A 1055   3.829   0.228   9.031 -1.1396  0.3045 -0.3306
   15CHL1  H15B 1056   3.783   0.388   8.964  0.4155  0.2784  0.9826
   15CHL1   C16 1057   3.963   0.299   8.877 -0.1385 -0.1060  0.6259
   15CHL1  H16A 1058   3.967   0.193   8.845  0.7669 -1.0807  3.7686
   15CHL1  H16B 1059   3.946   0.346   8.778 -0.9444 -1.5044  0.0933
   15CHL1   C17 1060   4.111   0.339   8.921  0.1444  0.3810 -0.4357
   15CHL1   H17 1061   4.110   0.448   8.901  2.1071  0.7095  1.1221
   15CHL1   C13 1062   4.100   0.321   9.078 -0.1836 -0.1465 -0.2033
   15CHL1   C18 1063   4.108   0.165   9.099 -0.1862 -0.7258 -0.5982
   15CHL1  H18A 1064   4.060   0.124   9.190 -0.6401  0.3701 -0.3347
   15CHL1  H18B 1065   4.064   0.112   9.012 -0.3295  1.6687 -2.0206
   15CHL1  H18C 1066   4.212   0.125   9.093  0.0491 -0.3200  0.7195
   15CHL1   C12 1067   4.201   0.392   9.169 -0.4560  0.7523 -0.4951
   15CHL1  H12A 1068   4.303   0.356   9.145 -1.1942 -0.9425 -1.1964
   15CHL1  H12B 1069   4.196   0.500   9.147  0.1363  0.5616 -1.6065
   15CHL1   C11 1070   4.158   0.371   9.319 -0.0642 -0.1068 -0.0444
   15CHL1  H11A 1071   4.165   0.260   9.324 -2.8763 -0.4056 -1.7855
   15CHL1  H11B 1072   4.243   0.414   9.376 -0.2117  0.1326 -0.0063
   15CHL1    C9 1073   4.013   0.430   9.342 -0.6992  0.2585 -0.0632
   15CHL1    H9 1074   4.024   0.538   9.318 -1.4005 -0.0852 -2.0025
   15CHL1   C10 1075   3.967   0.434   9.492  0.3496 -0.6258 -0.3812
   15CHL1   C19 1076   3.998   0.304   9.555  0.3453 -0.0253  0.3097
   15CHL1  H19A 1077   3.982   0.297   9.665  1.5916  3.1191  0.7497
   15CHL1  H19B 1078   3.949   0.214   9.512  1.8607 -1.2012  1.0073
   15CHL1  H19C 1079   4.104   0.273   9.548  0.4535  0.7037 -1.5790
   15CHL1    C1 1080   4.044   0.559   9.557 -0.0637  0.1256  0.6009
   15CHL1   H1A 1081   4.151   0.531   9.559 -0.3735 -1.0502  1.5879
   15CHL1   H1B 1082   4.039   0.649   9.493  1.4617  0.6887  1.2542
   15CHL1    C2 1083   4.003   0.586   9.702  0.5856 -0.5659 -0.2792
   15CHL1   H2A 1084   4.051   0.681   9.736 -2.1464  0.4108  1.0948
   15CHL1   H2B 1085   4.033   0.504   9.771 -1.7228 -1.4811 -0.3052
   15CHL1   C20 1086   4.216   0.262   8.844 -0.3552 -0.2767 -0.0176
   15CHL1   H20 1087   4.207   0.152   8.855  0.8328 -0.3219  0.6613
   15CHL1   C21 1088   4.362   0.295   8.883  0.8830 -0.5719  0.5205
   15CHL1  H21A 1089   4.382   0.241   8.978 -0.7486  0.8708  1.7158
   15CHL1  H21B 1090   4.380   0.404   8.891  0.6869 -0.5416  0.5518
   15CHL1  H21C 1091   4.433   0.260   8.804  0.7048 -1.6340  0.8256
   15CHL1   C22 1092   4.200   0.289   8.697 -0.7304 -0.1184  0.6264
   15CHL1  H22A 1093   4.098   0.293   8.652 -0.4779 -0.9882 -0.0522
   15CHL1  H22B 1094   4.250   0.385   8.674 -0.2586 -0.2642  1.0419
   15CHL1   C23 1095   4.265   0.175   8.611  0.2237 -0.3090 -0.8669
   15CHL1  H23A 1096   4.373   0.159   8.635 -0.2524 -0.3042  1.3143
   15CHL1  H23B 1097   4.200   0.088   8.631  1.8986 -0.7752  2.9688
   15CHL1   C24 1098   4.285   0.204   8.458 -0.5379 -0.5442  0.1649
   15CHL1  H24A 1099   4.308   0.109   8.406 -1.5067 -1.0218  0.5985
   15CHL1  H24B 1100   4.190   0.241   8.412 -1.7433 -3.7713 -0.0337
   15CHL1   C25 1101   4.387   0.311   8.411 -0.1695  0.4013 -0.1660
   15CHL1   H25 1102   4.362   0.409   8.457 -0.6521 -0.3663  1.2018
   15CHL1   C26 1103   4.535   0.271   8.441  0.0514  0.5756  0.1649
   15CHL1  H26A 1104   4.596   0.359   8.409 -1.2895  1.6541  0.5446
   15CHL1  H26B 1105   4.554   0.245   8.547  0.7517 -0.3298 -0.1736
   15CHL1  H26C 1106   4.566   0.192   8.369 -0.4263 -0.5058  1.1435
   15CHL1   C27 1107   4.378   0.320   8.259  0.8203 -0.3494  0.2820
   15CHL1  H27A 1108   4.371   0.219   8.212  1.3179 -1.5708  2.7171
   15CHL1  H27B 1109   4.289   0.380   8.231  0.3978 -1.2123 -0.2382
   15CHL1  H27C 1110   4.461   0.380   8.215  0.5515 -1.4792 -1.8540
   16CHL1    C3 1111   5.050   0.689   9.783 -0.2494 -0.3050  0.6142
   16CHL1    H3 1112   4.964   0.701   9.713  0.8126 -2.3936 -1.1040
   16CHL1    O3 1113   5.004   0.639   9.911  0.1370 -0.4126  0.3419
   16CHL1   H3' 1114   5.086   0.642   9.961 -0.0711 -0.8020  0.7014
   16CHL1    C4 1115   5.132   0.575   9.718 -0.0501  0.4121  0.1712
   16CHL1   H4A 1116   5.220   0.556   9.783  0.7327 -1.5937 -1.4159
   16CHL1   H4B 1117   5.094   0.471   9.715  1.1661 -0.0246 -0.4304
   16CHL1    C5 1118   5.177   0.609   9.575  0.0547  1.2836  0.9585
   16CHL1    C6 1119   5.138   0.538   9.464 -0.5034  0.1815 -0.0234
   16CHL1    H6 1120   5.086   0.441   9.471 -1.2884  0.6534  0.9632
   16CHL1    C7 1121   5.182   0.575   9.329  0.1198  1.1788  0.4146
   16CHL1   H7A 1122   5.221   0.480   9.286  0.2584  0.3017  2.4126
   16CHL1   H7B 1123   5.104   0.619   9.264  1.1806  2.9286  0.2973
   16CHL1    C8 1124   5.302   0.684   9.320 -0.5130  0.3812  0.4886
   16CHL1    H8 1125   5.402   0.640   9.340  0.4396  2.1498 -0.3296
   16CHL1   C14 1126   5.309   0.751   9.182  0.2548 -0.2604  0.3275
   16CHL1   H14 1127   5.213   0.808   9.183  0.7985  0.6923 -0.6805
   16CHL1   C15 1128   5.304   0.651   9.065  0.4395  0.1942 -0.0020
   16CHL1  H15A 1129   5.379   0.570   9.071 -0.0491 -0.2378  0.2355
   16CHL1  H15B 1130   5.207   0.603   9.044  0.6904 -0.4729  0.3501
   16CHL1   C16 1131   5.358   0.734   8.948 -0.0986  0.5554 -0.0957
   16CHL1  H16A 1132   5.441   0.686   8.893 -0.8944  0.8257 -1.5754
   16CHL1  H16B 1133   5.281   0.754   8.870 -1.1241 -1.4305  0.3672
   16CHL1   C17 1134   5.400   0.872   9.004 -0.1946  0.4778 -0.1751
   16CHL1   H17 1135   5.313   0.940   9.000 -1.5145 -1.2249 -1.4455
   16CHL1   C13 1136   5.426   0.848   9.153 -0.1354 -0.0024 -0.8912
   16CHL1   C18 1137   5.567   0.776   9.161  0.3454 -0.0508  0.4692
   16CHL1  H18A 1138   5.595   0.747   9.264  0.5096 -0.0520  0.4253
   16CHL1  H18B 1139   5.563   0.681   9.103 -2.2800  0.4164 -0.1903
   16CHL1  H18C 1140   5.652   0.834   9.117  1.3740 -2.3070 -0.5984
   16CHL1   C12 1141   5.412   0.955   9.261  0.1440  0.3795  0.5218
   16CHL1  H12A 1142   5.496   1.026   9.244  0.9993 -0.5185  0.9092
   16CHL1  H12B 1143   5.312   1.000   9.247 -0.0353 -0.7477 -2.0708
   16CHL1   C11 1144   5.401   0.898   9.403  0.2779  0.1393 -0.3830
   16CHL1  H11A 1145   5.501   0.862   9.436 -0.7474 -2.0550  0.4196
   16CHL1  H11B 1146   5.374   0.974   9.480 -1.6320 -2.8495  2.0064
   16CHL1    C9 1147   5.285   0.792   9.425  0.3542  0.3202 -0.1576
   16CHL1    H9 1148   5.191   0.847   9.402  0.6946  0.5704 -0.9634
   16CHL1   C10 1149   5.261   0.739   9.572 -0.2144  0.0187  0.1821
   16CHL1   C19 1150   5.403   0.710   9.629  0.1138  0.3300 -0.2999
   16CHL1  H19A 1151   5.454   0.631   9.571 -1.2381 -0.5971 -0.2535
   16CHL1  H19B 1152   5.464   0.803   9.628 -0.8344  0.9795  0.5068
   16CHL1  H19C 1153   5.394   0.684   9.736  0.0660 -0.0435 -0.3938
   16CHL1    C1 1154   5.184   0.854   9.646 -0.8207 -0.3839 -0.3309
   16CHL1   H1A 1155   5.265   0.929   9.653 -0.9981 -0.1816 -0.4323
   16CHL1   H1B 1156   5.105   0.889   9.576  0.2905 -0.9461 -1.8883
   16CHL1    C2 1157   5.133   0.817   9.789  0.1928 -0.6130  0.3454
   16CHL1   H2A 1158   5.070   0.889   9.844 -0.6673  1.1333 -2.7720
   16CHL1   H2B 1159   5.221   0.794   9.853  0.0593  0.9184  1.0936
   16CHL1   C20 1160   5.516   0.937   8.923 -0.5957  0.8001 -0.4888
   16CHL1   H20 1161   5.608   0.875   8.925  0.7197  2.7447  2.0604
   16CHL1   C21 1162   5.567   1.066   8.983 -0.6871 -0.1196  0.1048
   16CHL1  H21A 1163   5.618   1.050   9.081  0.2491  0.1759 -0.3198
   16CHL1  H21B 1164   5.487   1.143   8.993  0.6774  1.4080 -0.4396
   16CHL1  H21C 1165   5.651   1.102   8.920  0.9054 -3.4211  0.2620
   16CHL1   C22 1166   5.484   0.956   8.774  0.3546  0.5468  0.7854
   16CHL1  H22A 1167   5.438   0.866   8.728 -2.9580  1.3777  2.3375
   16CHL1  H22B 1168   5.408   1.036   8.761 -0.3203  0.0055  1.3459
   16CHL1   C23 1169   5.617   0.975   8.688  0.1052  0.6520  0.5448
   16CHL1  H23A 1170   5.663   1.075   8.707  2.6996 -0.4380  0.2354
   16CHL1  H23B 1171   5.681   0.893   8.728 -0.3317 -0.1334 -0.3457
   16CHL1   C24 1172   5.586   0.957   8.541 -0.0427 -0.0553  0.2849
   16CHL1  H24A 1173   5.538   0.857   8.540  0.2064 -0.1720 -1.5890
   16CHL1  H24B 1174   5.508   1.030   8.510 -2.3862 -1.5931  2.4032
   16CHL1   C25 1175   5.702   0.957   8.434 -0.3599 -0.6190 -0.5183
   16CHL1   H25 1176   5.772   0.880   8.474  1.2040  1.5512  1.0654
   16CHL1   C26 1177   5.639   0.900   8.303 -0.0582  0.3464  0.1210
   16CHL1  H26A 1178   5.565   0.976   8.269  0.2666  0.3101 -0.6771
   16CHL1  H26B 1179   5.717   0.893   8.225  0.0834  1.1038  0.1929
   16CHL1  H26C 1180   5.592   0.802   8.327  0.0073  0.0167 -1.0826
   16CHL1   C27 1181   5.776   1.095   8.418 -0.5675  0.2895  0.1609
   16CHL1  H27A 1182   5.866   1.087   8.355 -1.2440  3.7237 -1.3651
   16CHL1  H27B 1183   5.714   1.175   8.373 -2.0442 -0.9507 -0.0562
   16CHL1  H27C 1184   5.805   1.127   8.521  0.1011 -1.1526  0.4246
   17CHL1    C3 1185   1.379   6.102   9.695 -0.5703 -0.2078 -0.3116
   17CHL1    H3 1186   1.285   6.104   9.637 -0.4370 -0.7864 -0.5493
   17CHL1    O3 1187   1.336   6.142   9.824 -0.3768 -0.0698  0.4145
   17CHL1   H3' 1188   1.399   6.212   9.842  0.8773 -0.6632 -1.4596
   17CHL1    C4 1189   1.439   5.960   9.696 -0.6056  0.1040  0.0487
   17CHL1   H4A 1190   1.514   5.944   9.776  1.8169  1.1318 -1.9461
   17CHL1   H4B 1191   1.359   5.890   9.726  0.8033 -1.4640  0.2334
   17CHL1    C5 1192   1.506   5.924   9.567 -0.8797 -0.5160  0.0478
   17CHL1    C6 1193   1.483   5.805   9.504  0.4983 -0.1100  0.5569
   17CHL1    H6 1194   1.425   5.728   9.557  0.6365 -0.1242  0.6887
   17CHL1    C7 1195   1.517   5.778   9.363  0.0668  0.4501  0.1370
   17CHL1   H7A 1196   1.537   5.670   9.347  1.0037  1.0259 -2.8624
   17CHL1   H7B 1197   1.435   5.797   9.289  1.0574  0.4371 -0.9799
   17CHL1    C8 1198   1.640   5.858   9.307 -0.1784 -0.6404 -0.2177
   17CHL1    H8 1199   1.732   5.841   9.367  0.1780  1.0807 -0.2617
   17CHL1   C14 1200   1.667   5.842   9.156  0.1703  0.1031 -0.2235
   17CHL1   H14 1201   1.570   5.870   9.108  0.0384 -0.9130 -0.5585
   17CHL1   C15 1202   1.697   5.700   9.101  0.3474 -0.3879 -0.0930
   17CHL1  H15A 1203   1.771   5.658   9.173  0.0583  0.1616  0.5296
   17CHL1  H15B 1204   1.607   5.635   9.113  0.5788 -0.9536 -1.3324
   17CHL1   C16 1205   1.750   5.718   8.960 -0.2603 -0.2312 -0.6473
   17CHL1  H16A 1206   1.829   5.655   8.915 -0.3423 -0.3675 -0.6015
   17CHL1  H16B 1207   1.658   5.698   8.901 -0.3127  0.0163 -0.6503
   17CHL1   C17 1208   1.771   5.867   8.937 -0.3970  0.4179  0.1035
   17CHL1   H17 1209   1.683   5.917   8.892  0.3138  2.4159  0.8423
   17CHL1   C13 1210   1.777   5.931   9.088  0.9195 -0.2896  0.3638
   17CHL1   C18 1211   1.912   5.905   9.144 -0.5443  0.7153 -0.3775
   17CHL1  H18A 1212   1.913   5.896   9.254 -0.0264  2.5054 -0.2146
   17CHL1  H18B 1213   1.945   5.803   9.114  0.3006  0.7530  0.4021
   17CHL1  H18C 1214   1.990   5.982   9.122  0.1028 -0.0566 -0.8333
   17CHL1   C12 1215   1.740   6.078   9.116  0.6616 -0.9839  0.3661
   17CHL1  H12A 1216   1.824   6.147   9.093  0.7516 -0.7045  1.5057
   17CHL1  H12B 1217   1.650   6.109   9.059  2.2449 -1.1164 -2.2818
   17CHL1   C11 1218   1.711   6.105   9.264 -0.2439  0.5860  0.2619
   17CHL1  H11A 1219   1.802   6.092   9.327 -0.5861 -2.6397  0.1699
   17CHL1  H11B 1220   1.673   6.209   9.273  1.4753  1.1699  1.1763
   17CHL1    C9 1221   1.608   6.002   9.337 -0.2941 -0.2843  0.5493
   17CHL1    H9 1222   1.512   6.023   9.285  0.4154 -2.5126 -1.7339
   17CHL1   C10 1223   1.588   6.039   9.486 -0.0837 -0.2142  0.5860
   17CHL1   C19 1224   1.721   6.062   9.563  0.4935 -0.2271 -0.2820
   17CHL1  H19A 1225   1.787   5.979   9.531  0.2774 -0.0764 -1.1377
   17CHL1  H19B 1226   1.764   6.157   9.524 -0.5115  0.5594  0.5105
   17CHL1  H19C 1227   1.704   6.064   9.673 -0.2676  1.1797 -0.4134
   17CHL1    C1 1228   1.510   6.171   9.497 -0.7171 -1.0143  0.1638
   17CHL1   H1A 1229   1.560   6.249   9.435 -1.8779 -1.3684 -1.2389
   17CHL1   H1B 1230   1.417   6.144   9.444 -0.3213 -1.2604 -0.4053
   17CHL1    C2 1231   1.474   6.211   9.642  0.2407  0.2039  0.3141
   17CHL1   H2A 1232   1.418   6.306   9.639 -0.8926 -0.4780 -3.8358
   17CHL1   H2B 1233   1.562   6.216   9.709 -1.4103 -0.2224  2.5650
   17CHL1   C20 1234   1.882   5.914   8.830 -1.0526 -0.1992 -0.2907
   17CHL1   H20 1235   1.972   5.871   8.879 -0.1010  1.9162 -0.1339
   17CHL1   C21 1236   1.883   6.064   8.815  0.0069 -0.3234  1.1604
   17CHL1  H21A 1237   1.784   6.099   8.779 -0.1378  0.7658  2.6035
   17CHL1  H21B 1238   1.948   6.112   8.739 -0.4365  0.3187  1.1877
   17CHL1  H21C 1239   1.905   6.120   8.908  1.9411  1.6098 -0.4213
   17CHL1   C22 1240   1.874   5.836   8.702  0.2462  0.1125  0.1069
   17CHL1  H22A 1241   1.965   5.846   8.639  0.7002  0.2996  0.7837
   17CHL1  H22B 1242   1.872   5.727   8.724  1.2528  0.0256 -0.2209
   17CHL1   C23 1243   1.748   5.872   8.610 -0.4268 -0.4098 -0.5584
   17CHL1  H23A 1244   1.657   5.846   8.668  0.4748  1.7769  1.9367
   17CHL1  H23B 1245   1.741   5.982   8.598 -1.3384 -0.6004 -1.8713
   17CHL1   C24 1246   1.755   5.801   8.471  0.0045 -0.4260 -0.0326
   17CHL1  H24A 1247   1.857   5.797   8.428 -0.4309  0.8919 -1.2511
   17CHL1  H24B 1248   1.726   5.695   8.491  0.1682 -0.2142  1.3392
   17CHL1   C25 1249   1.652   5.857   8.377  1.1017 -0.6174  0.5017
   17CHL1   H25 1250   1.550   5.852   8.419  0.7962  1.3022  0.0403
   17CHL1   C26 1251   1.687   5.993   8.323 -0.3474 -0.6168 -0.2622
   17CHL1  H26A 1252   1.668   6.064   8.406  4.2990  0.5135  0.0151
   17CHL1  H26B 1253   1.793   6.010   8.292 -0.6468  1.0766 -0.4143
   17CHL1  H26C 1254   1.611   6.013   8.244  1.2962 -0.3462 -1.8198
   17CHL1   C27 1255   1.635   5.760   8.251  0.0069 -0.6375  0.1013
   17CHL1  H27A 1256   1.738   5.722   8.232 -0.4941 -1.8655 -0.2271
   17CHL1  H27B 1257   1.573   5.671   8.274 -1.4504  0.0380 -1.1050
   17CHL1  H27C 1258   1.594   5.816   8.164  0.4965 -3.5969 -2.1030
   18CHL1    C3 1259   0.519   4.182   9.760  0.1039  0.0737  1.4350
   18CHL1    H3 1260   0.511   4.289   9.733  0.2409 -0.1734  0.3996
   18CHL1    O3 1261   0.519   4.168   9.902  0.1580 -0.1926  0.3740
   18CHL1   H3' 1262   0.597   4.214   9.936 -0.7332  2.5902 -1.2100
   18CHL1    C4 1263   0.405   4.096   9.699  0.3227 -0.6593 -0.2768
   18CHL1   H4A 1264   0.411   3.995   9.743 -1.6505 -0.8624 -0.4214
   18CHL1   H4B 1265   0.311   4.125   9.752 -0.3321 -0.6483 -1.4188
   18CHL1    C5 1266   0.400   4.091   9.548  0.5645  0.3289 -0.0752
   18CHL1    C6 1267   0.287   4.126   9.480  0.3763 -0.2281 -0.4677
   18CHL1    H6 1268   0.201   4.154   9.544 -0.3551  3.5234 -2.9364
   18CHL1    C7 1269   0.281   4.149   9.337  0.3818  0.3094  0.7969
   18CHL1   H7A 1270   0.183   4.114   9.299  1.2277 -1.1484 -0.0991
   18CHL1   H7B 1271   0.293   4.256   9.312  1.8209 -0.2834 -1.2443
   18CHL1    C8 1272   0.392   4.074   9.261 -0.7333 -0.7135  0.1009
   18CHL1    H8 1273   0.376   3.965   9.275  1.1584 -0.8448  1.3895
   18CHL1   C14 1274   0.389   4.111   9.111  0.6732  0.2199 -0.0921
   18CHL1   H14 1275   0.416   4.219   9.115  0.0136  0.3514  1.0800
   18CHL1   C15 1276   0.262   4.122   9.031 -0.5401  0.6333  0.0705
   18CHL1  H15A 1277   0.192   4.035   9.040 -0.6729  0.7515  0.1803
   18CHL1  H15B 1278   0.199   4.209   9.057 -0.5677  0.4250  0.7299
   18CHL1   C16 1279   0.311   4.136   8.885 -0.1768  0.0937 -0.3158
   18CHL1  H16A 1280   0.270   4.054   8.822  0.6342 -0.1328 -0.5549
   18CHL1  H16B 1281   0.279   4.232   8.838  1.0601  0.6273 -0.0989
   18CHL1   C17 1282   0.463   4.130   8.885  0.0090 -0.6190 -0.3346
   18CHL1   H17 1283   0.510   4.230   8.888  0.6921 -0.9068 -1.1210
   18CHL1   C13 1284   0.504   4.063   9.020  0.0733  0.6224 -0.6825
   18CHL1   C18 1285   0.510   3.906   9.010 -1.2311 -0.6474  0.2562
   18CHL1  H18A 1286   0.590   3.869   8.943 -0.2477  1.1839  0.3921
   18CHL1  H18B 1287   0.527   3.856   9.108 -3.6102  1.8688  2.0337
   18CHL1  H18C 1288   0.410   3.870   8.978 -3.1788  4.5910  0.0241
   18CHL1   C12 1289   0.636   4.112   9.084 -1.0818 -1.0811  0.1906
   18CHL1  H12A 1290   0.729   4.073   9.038 -1.3262 -0.0600 -1.1873
   18CHL1  H12B 1291   0.647   4.222   9.072  2.2567 -1.4310 -0.3451
   18CHL1   C11 1292   0.653   4.074   9.236 -0.0789 -0.0844  0.5207
   18CHL1  H11A 1293   0.649   3.964   9.231  0.4392 -0.0372 -1.0316
   18CHL1  H11B 1294   0.753   4.107   9.272 -0.9831 -0.3495  3.4412
   18CHL1    C9 1295   0.526   4.114   9.320 -0.2309  0.2088 -0.5625
   18CHL1    H9 1296   0.544   4.223   9.324  1.4716 -0.0979  0.6477
   18CHL1   C10 1297   0.536   4.064   9.470 -0.1913  0.2317  0.8583
   18CHL1   C19 1298   0.596   3.920   9.477 -0.1797  0.2692 -0.2103
   18CHL1  H19A 1299   0.597   3.878   9.580 -0.6745 -0.9891 -0.7102
   18CHL1  H19B 1300   0.524   3.855   9.423 -1.9068  1.9245  0.0429
   18CHL1  H19C 1301   0.698   3.919   9.435 -1.0813  0.1190 -2.4884
   18CHL1    C1 1302   0.650   4.148   9.543  0.3904 -0.6575 -0.6444
   18CHL1   H1A 1303   0.753   4.133   9.505  0.8896  1.7055 -0.2999
   18CHL1   H1B 1304   0.626   4.255   9.524 -0.2379 -0.5430  0.7062
   18CHL1    C2 1305   0.657   4.129   9.700 -0.3521  0.3157  0.4052
   18CHL1   H2A 1306   0.729   4.206   9.736 -0.0546 -0.5322  1.6324
   18CHL1   H2B 1307   0.690   4.028   9.732  1.1688 -0.5526 -3.6814
   18CHL1   C20 1308   0.520   4.072   8.755  0.1775 -0.1145 -0.7122
   18CHL1   H20 1309   0.501   3.963   8.757 -0.4181  0.0018  2.0345
   18CHL1   C21 1310   0.674   4.099   8.753  0.6916  0.1112 -0.3125
   18CHL1  H21A 1311   0.706   4.206   8.763 -0.0692  0.2239  1.0037
   18CHL1  H21B 1312   0.722   4.063   8.660  0.1325 -1.7102  0.0851
   18CHL1  H21C 1313   0.718   4.038   8.835 -0.9420 -0.8999 -0.1773
   18CHL1   C22 1314   0.457   4.140   8.630 -0.0912  0.1361 -0.0756
   18CHL1  H22A 1315   0.347   4.153   8.635  0.1651  2.2209  0.8857
   18CHL1  H22B 1316   0.507   4.238   8.614 -2.4937  1.3064 -0.6157
   18CHL1   C23 1317   0.488   4.066   8.497 -0.4483  0.5671 -0.1545
   18CHL1  H23A 1318   0.475   4.134   8.410  1.8913  2.5256  0.9703
   18CHL1  H23B 1319   0.594   4.034   8.511 -0.8783  0.0429  2.1291
   18CHL1   C24 1320   0.400   3.940   8.465  0.3634  0.2123 -0.7326
   18CHL1  H24A 1321   0.396   3.888   8.563  0.4531 -1.3757 -1.5580
   18CHL1  H24B 1322   0.293   3.960   8.441 -0.0295 -0.5294  0.3439
   18CHL1   C25 1323   0.468   3.843   8.369 -0.3175  0.0803 -0.4752
   18CHL1   H25 1324   0.571   3.832   8.407  0.0937  0.8034 -1.3724
   18CHL1   C26 1325   0.411   3.700   8.375  0.3468  0.0079 -0.2425
   18CHL1  H26A 1326   0.470   3.642   8.300  0.3772 -1.9896  1.2963
   18CHL1  H26B 1327   0.428   3.646   8.470  0.9344  0.1752 -0.2462
   18CHL1  H26C 1328   0.304   3.697   8.348  0.5230 -2.3093 -0.8174
   18CHL1   C27 1329   0.470   3.890   8.221  0.0721  0.1018 -0.1001
   18CHL1  H27A 1330   0.525   3.817   8.157  2.5769  0.9745  0.9745
   18CHL1  H27B 1331   0.364   3.899   8.189  0.7004  1.7080 -1.8781
   18CHL1  H27C 1332   0.523   3.987   8.204  0.7293 -0.2680 -0.2029
   19CHL1    C3 1333   4.611   6.552   9.661  0.3118 -0.5900 -0.4136
   19CHL1    H3 1334   4.613   6.662   9.645  5.1699 -0.5257 -0.1015
   19CHL1    O3 1335   4.638   6.535   9.801 -0.3877  0.4029 -0.9117
   19CHL1   H3' 1336   4.607   6.447   9.822 -0.6541  0.4810 -0.9766
   19CHL1    C4 1337   4.470   6.498   9.623 -0.6780  0.4424  0.2222
   19CHL1   H4A 1338   4.468   6.389   9.642 -1.0831  0.2939 -0.6445
   19CHL1   H4B 1339   4.384   6.539   9.678  0.3285  2.2482  0.5082
   19CHL1    C5 1340   4.443   6.511   9.475 -0.2897  0.1508 -0.2296
   19CHL1    C6 1341   4.342   6.584   9.426 -0.5841 -0.2694  0.0304
   19CHL1    H6 1342   4.267   6.624   9.496  0.0733 -0.8332  1.0650
   19CHL1    C7 1343   4.305   6.590   9.275 -0.5620  0.0510 -0.0328
   19CHL1   H7A 1344   4.198   6.594   9.245 -0.6285  0.1326  0.2117
   19CHL1   H7B 1345   4.342   6.689   9.241 -2.6043  2.1226  3.4501
   19CHL1    C8 1346   4.384   6.489   9.194  0.4635 -0.3363 -0.3308
   19CHL1    H8 1347   4.333   6.394   9.222 -0.4861  0.3700  0.3660
   19CHL1   C14 1348   4.368   6.529   9.045 -0.4729 -0.2955 -0.3385
   19CHL1   H14 1349   4.417   6.629   9.047  2.5512 -1.7762  1.7762
   19CHL1   C15 1350   4.230   6.550   8.981  0.0509  0.1276 -0.0660
   19CHL1  H15A 1351   4.175   6.458   9.007  1.6076 -0.6994  0.3533
   19CHL1  H15B 1352   4.181   6.635   9.034  3.3410  2.1936 -0.2085
   19CHL1   C16 1353   4.270   6.559   8.833 -0.1523  0.1570  0.2323
   19CHL1  H16A 1354   4.196   6.498   8.775  1.1815 -2.1987  0.9438
   19CHL1  H16B 1355   4.255   6.665   8.803  0.6308  0.5749  1.2823
   19CHL1   C17 1356   4.416   6.515   8.812  0.2503 -0.0894 -0.4750
   19CHL1   H17 1357   4.472   6.610   8.822 -1.0746  0.6538  0.0637
   19CHL1   C13 1358   4.447   6.443   8.948  0.0538 -0.2551  0.3079
   19CHL1   C18 1359   4.389   6.300   8.967  0.0697  0.3644  0.7572
   19CHL1  H18A 1360   4.451   6.242   8.896  0.4607  1.4145  0.2311
   19CHL1  H18B 1361   4.408   6.266   9.071  0.8461  1.7006  1.0671
   19CHL1  H18C 1362   4.284   6.291   8.931  0.8254  1.8774 -1.9767
   19CHL1   C12 1363   4.586   6.441   8.994 -0.6259  0.0030  0.5091
   19CHL1  H12A 1364   4.642   6.366   8.933  0.7750 -0.9858  2.9290
   19CHL1  H12B 1365   4.628   6.542   8.976  0.7080 -0.2318  2.2215
   19CHL1   C11 1366   4.613   6.397   9.134  0.0145  0.3639  0.6526
   19CHL1  H11A 1367   4.584   6.292   9.152  0.6512  0.1564  0.4817
   19CHL1  H11B 1368   4.721   6.411   9.159 -0.3436  3.0805  0.8086
   19CHL1    C9 1369   4.533   6.486   9.236  0.1747 -0.0853 -0.3043
   19CHL1    H9 1370   4.571   6.591   9.229  3.4002 -1.2289 -0.6380
   19CHL1   C10 1371   4.552   6.457   9.386 -0.1589  0.1294  0.4397
   19CHL1   C19 1372   4.541   6.306   9.402  0.4797  0.1969 -0.5222
   19CHL1  H19A 1373   4.442   6.262   9.379 -0.4314  0.9544  1.7526
   19CHL1  H19B 1374   4.616   6.254   9.339  2.4530  2.4568 -0.1212
   19CHL1  H19C 1375   4.560   6.269   9.505 -3.0350  1.0543  0.4925
   19CHL1    C1 1376   4.692   6.501   9.426 -1.2011 -0.1254 -0.0847
   19CHL1   H1A 1377   4.767   6.447   9.364  0.8071  1.9956  0.4197
   19CHL1   H1B 1378   4.696   6.609   9.400  1.2447 -0.8948 -3.1706
   19CHL1    C2 1379   4.728   6.494   9.577  0.5161 -0.3315 -0.3350
   19CHL1   H2A 1380   4.820   6.548   9.607  0.2461  0.7210 -1.3793
   19CHL1   H2B 1381   4.735   6.385   9.597  2.3804  0.0097  1.0125
   19CHL1   C20 1382   4.457   6.460   8.669 -0.0532  0.0622 -0.8629
   19CHL1   H20 1383   4.424   6.356   8.650  0.0598  0.5262 -3.8636
   19CHL1   C21 1384   4.615   6.456   8.664 -0.4590  0.1244 -0.1077
   19CHL1  H21A 1385   4.659   6.450   8.562  1.2606  0.6032  0.5832
   19CHL1  H21B 1386   4.660   6.380   8.732  0.8968  0.6791 -0.3683
   19CHL1  H21C 1387   4.650   6.559   8.688 -0.5644 -0.0418  0.7803
   19CHL1   C22 1388   4.394   6.546   8.564 -0.4223  0.0752  0.8467
   19CHL1  H22A 1389   4.283   6.540   8.572 -0.4710  0.0066  0.1552
   19CHL1  H22B 1390   4.432   6.647   8.592  1.3831 -0.8333  1.7651
   19CHL1   C23 1391   4.440   6.507   8.416  0.2927 -0.8135  0.1471
   19CHL1  H23A 1392   4.547   6.533   8.404 -0.4261  2.0949 -0.5520
   19CHL1  H23B 1393   4.409   6.401   8.405  1.4036 -1.2072  0.7366
   19CHL1   C24 1394   4.376   6.603   8.321 -0.5434 -0.0304  0.0372
   19CHL1  H24A 1395   4.268   6.577   8.311 -0.1642 -0.2029 -4.5632
   19CHL1  H24B 1396   4.382   6.701   8.371  1.7798 -0.9798  1.7098
   19CHL1   C25 1397   4.427   6.617   8.176 -0.1106  0.0402  0.1874
   19CHL1   H25 1398   4.534   6.645   8.173 -0.0936 -0.1214 -1.1681
   19CHL1   C26 1399   4.425   6.484   8.101  0.1060 -0.7489 -0.1410
   19CHL1  H26A 1400   4.319   6.458   8.081  0.7189 -1.7505 -2.2293
   19CHL1  H26B 1401   4.478   6.489   8.004  1.3384  3.4603  0.6412
   19CHL1  H26C 1402   4.463   6.394   8.154 -0.1621 -2.5752 -2.9680
   19CHL1   C27 1403   4.362   6.724   8.089 -0.3245  0.3933  0.0415
   19CHL1  H27A 1404   4.253   6.705   8.077 -0.0368 -1.6678  0.6343
   19CHL1  H27B 1405   4.376   6.821   8.142 -0.4587  0.4345  0.0016
   19CHL1  H27C 1406   4.404   6.723   7.986 -0.8370  3.1998 -0.2410
   20CHL1    C3 1407   0.646   1.410   9.703  0.0056  0.1914 -0.3909
   20CHL1    H3 1408   0.582   1.331   9.658  0.1301  0.4156 -0.9712
   20CHL1    O3 1409   0.650   1.395   9.846 -0.5291  0.0776  0.7272
   20CHL1   H3' 1410   0.579   1.455   9.870  1.9624  2.9587  1.2711
   20CHL1    C4 1411   0.790   1.386   9.654  0.6018 -0.6456  0.2999
   20CHL1   H4A 1412   0.847   1.458   9.717 -1.5693  0.4908  1.0347
   20CHL1   H4B 1413   0.814   1.287   9.696 -1.8367 -0.9023  1.1705
   20CHL1    C5 1414   0.800   1.395   9.501  0.1458  0.2327 -0.7447
   20CHL1    C6 1415   0.843   1.288   9.431  0.0247  0.0536  0.5979
   20CHL1    H6 1416   0.866   1.198   9.491 -0.0611  0.6294  1.5046
   20CHL1    C7 1417   0.857   1.285   9.276 -0.1676  0.8033 -0.3340
   20CHL1   H7A 1418   0.939   1.214   9.256 -1.4173 -0.3865 -1.3158
   20CHL1   H7B 1419   0.767   1.235   9.234 -0.3533  2.2802 -1.7287
   20CHL1    C8 1420   0.878   1.428   9.227  0.3239  0.2193  0.0180
   20CHL1    H8 1421   0.973   1.461   9.274 -0.4325 -2.2626  3.4498
   20CHL1   C14 1422   0.866   1.423   9.078  0.3187  0.2788 -0.0327
   20CHL1   H14 1423   0.771   1.369   9.056  0.6914  0.5897 -2.5316
   20CHL1   C15 1424   0.965   1.337   8.991  0.6929  0.1640  0.1051
   20CHL1  H15A 1425   1.069   1.353   9.027 -0.0942  1.1497  2.0128
   20CHL1  H15B 1426   0.946   1.229   9.002 -1.4166  0.6653  1.7030
   20CHL1   C16 1427   0.948   1.387   8.846 -0.6960  0.7210 -0.2764
   20CHL1  H16A 1428   1.047   1.406   8.800  0.0627  0.2497  1.1313
   20CHL1  H16B 1429   0.883   1.313   8.793  0.9679 -0.1985 -1.0652
   20CHL1   C17 1430   0.851   1.511   8.862  0.0188 -0.0479 -0.1049
   20CHL1   H17 1431   0.749   1.470   8.850 -0.2417 -0.5371  3.4349
   20CHL1   C13 1432   0.857   1.555   9.007  0.4912 -0.3815  0.0107
   20CHL1   C18 1433   0.990   1.631   9.029  0.3480  0.1291 -0.0897
   20CHL1  H18A 1434   1.083   1.573   9.012  0.4211  0.1076  0.3795
   20CHL1  H18B 1435   0.979   1.726   8.971  0.3528  0.4687  0.4668
   20CHL1  H18C 1436   1.005   1.668   9.132  2.8773 -1.5746  0.1998
   20CHL1   C12 1437   0.733   1.633   9.060 -0.2318 -0.0976 -0.1337
   20CHL1  H12A 1438   0.705   1.728   9.009 -0.3159  0.6963  1.3674
   20CHL1  H12B 1439   0.648   1.565   9.035  0.1846 -0.8024  0.3431
   20CHL1   C11 1440   0.743   1.657   9.210 -0.0297 -0.0579 -0.1807
   20CHL1  H11A 1441   0.822   1.733   9.225  1.4521 -1.5193 -0.4523
   20CHL1  H11B 1442   0.644   1.687   9.251  0.4758  0.4693  0.6378
   20CHL1    C9 1443   0.765   1.522   9.281 -0.1099  0.1912 -0.2127
   20CHL1    H9 1444   0.672   1.463   9.263  0.1797 -0.2902 -0.1199
   20CHL1   C10 1445   0.759   1.525   9.440  0.1395 -0.3973  0.1085
   20CHL1   C19 1446   0.852   1.641   9.498 -1.6363  0.2352  0.6147
   20CHL1  H19A 1447   0.848   1.641   9.609  1.2004 -0.3738  0.7565
   20CHL1  H19B 1448   0.957   1.630   9.462 -1.6944  0.5526  0.3467
   20CHL1  H19C 1449   0.818   1.739   9.458 -1.4048 -0.6248 -1.8045
   20CHL1    C1 1450   0.612   1.549   9.490 -0.4856 -0.1481  0.8362
   20CHL1   H1A 1451   0.571   1.645   9.453  2.7174 -0.0816 -2.8805
   20CHL1   H1B 1452   0.545   1.469   9.451 -1.8139  1.5170 -0.3523
   20CHL1    C2 1453   0.581   1.539   9.646 -0.0430  0.2175 -0.1570
   20CHL1   H2A 1454   0.471   1.550   9.661 -0.2699  3.4728 -3.3766
   20CHL1   H2B 1455   0.637   1.618   9.700  1.7894 -2.2648  1.6663
   20CHL1   C20 1456   0.859   1.615   8.753  0.0509 -0.7328  0.8292
   20CHL1   H20 1457   0.955   1.670   8.764 -0.1133 -0.3866  0.5239
   20CHL1   C21 1458   0.751   1.728   8.767  0.4341  0.3727 -0.4384
   20CHL1  H21A 1459   0.648   1.699   8.795  0.3088 -0.1053 -1.3942
   20CHL1  H21B 1460   0.748   1.786   8.673 -0.9202  0.5803 -0.2758
   20CHL1  H21C 1461   0.781   1.809   8.838  0.1365  0.6219 -0.6000
   20CHL1   C22 1462   0.858   1.560   8.608 -0.3746 -0.0961 -1.1290
   20CHL1  H22A 1463   0.886   1.453   8.597  0.8836  0.3338 -2.3287
   20CHL1  H22B 1464   0.750   1.565   8.582  0.1271  0.3269 -3.2447
   20CHL1   C23 1465   0.940   1.641   8.504 -0.3963 -0.0767  0.0018
   20CHL1  H23A 1466   0.908   1.747   8.500 -2.4801 -0.6263  1.3215
   20CHL1  H23B 1467   1.044   1.632   8.543  0.5543 -0.8907 -2.6161
   20CHL1   C24 1468   0.945   1.576   8.367 -0.0538 -0.6968  0.0111
   20CHL1  H24A 1469   1.034   1.623   8.319 -0.1741  0.3329  0.7928
   20CHL1  H24B 1470   0.969   1.469   8.382  1.1310 -0.5119 -0.4873
   20CHL1   C25 1471   0.820   1.594   8.273  0.0732 -0.3152  0.0445
   20CHL1   H25 1472   0.735   1.559   8.334  0.2252 -1.7719 -0.5550
   20CHL1   C26 1473   0.792   1.736   8.223 -0.1056 -0.2380  0.4934
   20CHL1  H26A 1474   0.788   1.794   8.318  0.7112 -0.2100  0.5105
   20CHL1  H26B 1475   0.862   1.775   8.146  2.0347 -1.1730  1.9108
   20CHL1  H26C 1476   0.686   1.743   8.191 -0.2488 -1.0331  0.7708
   20CHL1   C27 1477   0.821   1.495   8.151 -0.4946  0.5828  0.7529
   20CHL1  H27A 1478   0.730   1.501   8.087  0.2762 -0.5163 -0.4715
   20CHL1  H27B 1479   0.901   1.525   8.080 -0.6786 -0.4433  0.1049
   20CHL1  H27C 1480   0.830   1.385   8.169 -1.5903  0.6365  1.7491
   21CHL1    C3 1481   7.194   4.029   9.718 -0.9738 -0.1409 -0.0075
   21CHL1    H3 1482   7.304   4.044   9.716 -1.0950  0.9129  0.8865
   21CHL1    O3 1483   7.158   4.037   9.853  0.0265 -0.1075 -0.0940
   21CHL1   H3' 1484   7.074   3.993   9.867 -0.2493 -0.1179 -1.6337
   21CHL1    C4 1485   7.136   4.154   9.650 -0.2633 -0.2142 -0.4113
   21CHL1   H4A 1486   7.026   4.146   9.667  0.0856 -1.5007  1.4825
   21CHL1   H4B 1487   7.164   4.252   9.694  3.1213 -0.5888 -1.6062
   21CHL1    C5 1488   7.151   4.151   9.505  0.7167  0.1514  0.0922
   21CHL1    C6 1489   7.199   4.254   9.435 -0.1791  0.5419 -0.5467
   21CHL1    H6 1490   7.224   4.346   9.491 -0.9599 -0.4465  1.4607
   21CHL1    C7 1491   7.210   4.259   9.290 -0.1965  1.2545  0.6758
   21CHL1   H7A 1492   7.181   4.354   9.240  1.6222  1.1413 -0.6172
   21CHL1   H7B 1493   7.318   4.256   9.264 -0.1378 -0.3430  1.0659
   21CHL1    C8 1494   7.137   4.147   9.213 -0.3213  1.1637  0.1390
   21CHL1    H8 1495   7.027   4.163   9.213 -0.4801  0.1921 -1.2680
   21CHL1   C14 1496   7.192   4.131   9.074  0.7957  0.0508 -0.5531
   21CHL1   H14 1497   7.299   4.104   9.088  0.1348 -1.9773  0.7098
   21CHL1   C15 1498   7.186   4.262   8.987  1.0812 -0.0381 -0.8367
   21CHL1  H15A 1499   7.087   4.312   8.994 -0.1592 -2.7480  1.5844
   21CHL1  H15B 1500   7.262   4.339   9.012  1.5095 -0.4837 -0.7737
   21CHL1   C16 1501   7.210   4.204   8.846  0.0422  0.1446  0.0020
   21CHL1  H16A 1502   7.147   4.251   8.767  0.9999 -0.5893 -1.2210
   21CHL1  H16B 1503   7.312   4.214   8.804 -0.6928  2.2564 -1.3524
   21CHL1   C17 1504   7.202   4.043   8.861 -0.4140 -0.0496  0.1450
   21CHL1   H17 1505   7.303   4.017   8.900  0.1888  0.7242 -0.8661
   21CHL1   C13 1506   7.116   4.025   8.993  0.3563  0.0030 -0.5585
   21CHL1   C18 1507   6.968   4.059   8.961  0.0787 -0.5810 -0.3010
   21CHL1  H18A 1508   6.905   4.056   9.053 -1.1101 -2.2836 -1.1494
   21CHL1  H18B 1509   6.957   4.158   8.911 -2.6049 -0.9926 -0.6070
   21CHL1  H18C 1510   6.928   3.988   8.886  0.9171  1.3078 -2.6377
   21CHL1   C12 1511   7.133   3.891   9.063 -0.2324 -0.4909 -0.1277
   21CHL1  H12A 1512   7.073   3.813   9.011 -0.6534 -1.5519  1.8828
   21CHL1  H12B 1513   7.243   3.875   9.065 -0.5518 -2.7896  2.6687
   21CHL1   C11 1514   7.077   3.898   9.202 -0.1288  0.3117  0.0000
   21CHL1  H11A 1515   6.967   3.910   9.205 -0.2935 -1.3534  1.0016
   21CHL1  H11B 1516   7.089   3.796   9.244 -1.1468 -0.8696 -2.4566
   21CHL1    C9 1517   7.149   4.017   9.282 -0.1333  0.1790  0.2814
   21CHL1    H9 1518   7.256   3.989   9.281  0.1542  1.2031 -2.4889
   21CHL1   C10 1519   7.105   4.021   9.436  0.2550  0.3929 -0.0888
   21CHL1   C19 1520   6.951   3.996   9.442  0.9908 -0.0370  0.2222
   21CHL1  H19A 1521   6.907   4.018   9.542 -0.9006 -2.4708 -0.0517
   21CHL1  H19B 1522   6.899   4.059   9.367 -0.9417 -2.4855 -0.5363
   21CHL1  H19C 1523   6.925   3.890   9.425 -1.8773  1.0659 -2.6183
   21CHL1    C1 1524   7.181   3.901   9.506 -1.0032 -0.0061  0.5184
   21CHL1   H1A 1525   7.168   3.804   9.454  0.2798 -0.0262  0.2170
   21CHL1   H1B 1526   7.290   3.913   9.492 -0.4101  0.9402  5.0686
   21CHL1    C2 1527   7.148   3.894   9.659  0.2541  0.8999  0.0139
   21CHL1   H2A 1528   7.199   3.809   9.709 -1.3402 -1.0812 -1.6389
   21CHL1   H2B 1529   7.041   3.867   9.669  0.7397 -0.7053  0.8868
   21CHL1   C20 1530   7.162   3.964   8.736  0.1450  0.0653  0.3872
   21CHL1   H20 1531   7.054   3.984   8.718 -0.7836 -2.6577  2.5009
   21CHL1   C21 1532   7.169   3.811   8.754 -0.3028  0.2530  0.4688
   21CHL1  H21A 1533   7.254   3.768   8.811  0.6009  1.6249  0.1827
   21CHL1  H21B 1534   7.159   3.752   8.661  1.6903  0.6290 -0.0103
   21CHL1  H21C 1535   7.079   3.777   8.810 -1.0104  0.5276 -0.5066
   21CHL1   C22 1536   7.245   4.005   8.609 -0.2585 -0.2701 -0.6643
   21CHL1  H22A 1537   7.268   4.114   8.607 -0.8386 -0.1397 -0.1737
   21CHL1  H22B 1538   7.342   3.953   8.622 -0.7229 -0.8965  0.3467
   21CHL1   C23 1539   7.191   3.965   8.470 -0.0664  0.2769 -0.3380
   21CHL1  H23A 1540   7.160   3.860   8.492  0.8756 -0.1182 -0.8905
   21CHL1  H23B 1541   7.108   4.033   8.440  1.0113  1.4165 -0.7853
   21CHL1   C24 1542   7.296   3.959   8.358  0.5913  0.9066  0.3152
   21CHL1  H24A 1543   7.346   4.058   8.357 -1.4239  1.9368 -0.1297
   21CHL1  H24B 1544   7.369   3.882   8.389  0.5332  0.7681  0.1115
   21CHL1   C25 1545   7.235   3.906   8.228 -0.1344  0.1796 -0.5520
   21CHL1   H25 1546   7.182   3.811   8.251  1.1347 -0.1835  0.9966
   21CHL1   C26 1547   7.134   4.009   8.160 -0.1791 -0.0794  0.4754
   21CHL1  H26A 1548   7.181   4.105   8.130 -3.2730  1.8398  1.5655
   21CHL1  H26B 1549   7.092   3.959   8.070 -0.5212 -1.9785  1.6615
   21CHL1  H26C 1550   7.059   4.036   8.238 -1.0644  0.5740 -0.5871
   21CHL1   C27 1551   7.343   3.871   8.130 -0.4331  0.1823  0.0949
   21CHL1  H27A 1552   7.303   3.794   8.061  0.9839 -1.1055  0.6811
   21CHL1  H27B 1553   7.366   3.963   8.070 -1.2813 -0.0047 -0.5294
   21CHL1  H27C 1554   7.432   3.838   8.187 -1.3407  2.0556  2.7106
   22CHL1    C3 1555   6.888   4.476   9.738 -0.2724  0.1615  0.6469
   22CHL1    H3 1556   6.970   4.401   9.736 -0.3858 -0.0874  3.3051
   22CHL1    O3 1557   6.867   4.503   9.873 -0.3582 -0.2444  0.2441
   22CHL1   H3' 1558   6.791   4.562   9.878  1.3486  2.0824 -0.4080
   22CHL1    C4 1559   6.918   4.606   9.671  0.0831  0.0464 -0.6876
   22CHL1   H4A 1560   6.859   4.694   9.704 -1.2438 -0.9567 -0.3152
   22CHL1   H4B 1561   7.015   4.638   9.716 -0.5417 -0.6611  1.2138
   22CHL1    C5 1562   6.926   4.604   9.522 -0.0396 -0.1658 -0.0510
   22CHL1    C6 1563   7.034   4.647   9.459 -0.1553  0.2877 -0.0282
   22CHL1    H6 1564   7.117   4.692   9.515  1.0596 -1.2263 -0.5917
   22CHL1    C7 1565   7.040   4.656   9.305 -0.2619 -0.4032 -0.1883
   22CHL1   H7A 1566   7.073   4.759   9.279  1.9941 -0.9997  0.1963
   22CHL1   H7B 1567   7.111   4.588   9.253 -0.0805 -0.3801  0.0223
   22CHL1    C8 1568   6.904   4.633   9.232 -0.0355  0.4606 -0.5547
   22CHL1    H8 1569   6.836   4.720   9.231  0.6733  1.0490  1.2895
   22CHL1   C14 1570   6.931   4.591   9.087 -0.3649 -0.2991  0.0371
   22CHL1   H14 1571   6.991   4.497   9.087  0.6349  0.2686 -3.3510
   22CHL1   C15 1572   7.015   4.681   8.995 -0.7422 -0.0492  0.7362
   22CHL1  H15A 1573   6.992   4.790   8.999  0.3532  0.1753  1.1098
   22CHL1  H15B 1574   7.121   4.653   9.012 -0.2271 -0.2467 -2.3698
   22CHL1   C16 1575   6.975   4.635   8.853  0.3596  0.7390  0.0628
   22CHL1  H16A 1576   6.937   4.722   8.795 -0.5401  1.1464  1.2410
   22CHL1  H16B 1577   7.069   4.597   8.808  0.5655  0.7290  0.4990
   22CHL1   C17 1578   6.865   4.530   8.869  0.1285  0.7643 -0.3692
   22CHL1   H17 1579   6.910   4.428   8.873 -0.9772  0.2892  0.0787
   22CHL1   C13 1580   6.804   4.550   9.013  0.1511 -0.4817 -0.1250
   22CHL1   C18 1581   6.710   4.675   9.002  0.2339  0.2306 -0.2725
   22CHL1  H18A 1582   6.765   4.767   8.971 -2.3926  1.2521 -2.0465
   22CHL1  H18B 1583   6.622   4.653   8.938  1.6862 -2.8990 -1.2747
   22CHL1  H18C 1584   6.677   4.705   9.103 -0.0917 -0.5499 -0.1477
   22CHL1   C12 1585   6.734   4.437   9.082 -0.7099 -0.1512  0.3674
   22CHL1  H12A 1586   6.634   4.424   9.036 -0.8867  2.2560  0.0085
   22CHL1  H12B 1587   6.793   4.343   9.082  0.7176  0.7222  0.3688
   22CHL1   C11 1588   6.703   4.466   9.224  0.8696 -0.0833 -0.9586
   22CHL1  H11A 1589   6.626   4.545   9.232 -0.2079 -0.9986 -2.0230
   22CHL1  H11B 1590   6.663   4.375   9.275 -1.2687  1.2944 -0.1162
   22CHL1    C9 1591   6.829   4.522   9.308 -0.1983 -0.3032  0.4729
   22CHL1    H9 1592   6.895   4.432   9.305 -1.5043 -1.2966  0.8170
   22CHL1   C10 1593   6.810   4.544   9.453  0.2320 -0.0137 -0.3198
   22CHL1   C19 1594   6.689   4.631   9.464  0.1343 -0.7114  0.2747
   22CHL1  H19A 1595   6.599   4.577   9.428  0.6973  0.2330 -2.6567
   22CHL1  H19B 1596   6.664   4.649   9.571 -1.3276  1.6801 -0.4299
   22CHL1  H19C 1597   6.697   4.729   9.414 -2.1549  1.0670  3.1541
   22CHL1    C1 1598   6.778   4.404   9.526  0.0549  0.4926  0.2843
   22CHL1   H1A 1599   6.685   4.372   9.473  0.7188  0.2855 -0.7733
   22CHL1   H1B 1600   6.861   4.341   9.488 -0.1687 -1.0553  2.3267
   22CHL1    C2 1601   6.766   4.410   9.680  0.2815 -0.6395 -0.4393
   22CHL1   H2A 1602   6.738   4.313   9.726 -3.5570  0.4594 -0.2803
   22CHL1   H2B 1603   6.681   4.476   9.708  0.8625  1.2824 -2.9996
   22CHL1   C20 1604   6.773   4.532   8.749  0.1252  0.4247 -0.0233
   22CHL1   H20 1605   6.724   4.632   8.748  0.9322  0.8208 -0.8546
   22CHL1   C21 1606   6.650   4.428   8.765 -0.4944  0.3902  0.0397
   22CHL1  H21A 1607   6.692   4.328   8.789 -1.9622 -0.3119 -0.3001
   22CHL1  H21B 1608   6.599   4.434   8.667 -3.0680 -0.9880  1.2605
   22CHL1  H21C 1609   6.574   4.453   8.842  0.2396 -0.7323  1.1521
   22CHL1   C22 1610   6.840   4.506   8.612 -0.1005 -0.5231  0.4016
   22CHL1  H22A 1611   6.757   4.518   8.538 -0.5000  1.2072  1.1143
   22CHL1  H22B 1612   6.910   4.589   8.588  0.4820 -1.0378  0.3183
   22CHL1   C23 1613   6.917   4.369   8.607 -0.8670 -0.0591 -0.7971
   22CHL1  H23A 1614   7.009   4.381   8.668 -1.9449  1.9298  0.5227
   22CHL1  H23B 1615   6.854   4.287   8.647 -0.2521  0.1577  0.6276
   22CHL1   C24 1616   6.949   4.329   8.459 -0.3449 -0.3500 -0.2273
   22CHL1  H24A 1617   6.990   4.226   8.465 -0.8086 -0.3609  3.5545
   22CHL1  H24B 1618   6.853   4.309   8.406 -1.2600  1.8151  0.5411
   22CHL1   C25 1619   7.039   4.417   8.379 -0.1224  0.2355  0.3813
   22CHL1   H25 1620   6.996   4.520   8.376 -1.3955 -0.3151 -1.1391
   22CHL1   C26 1621   7.180   4.425   8.437  0.1697  0.0022 -0.3542
   22CHL1  H26A 1622   7.227   4.324   8.443 -0.2077 -0.0994  0.8134
   22CHL1  H26B 1623   7.239   4.495   8.374 -1.4062  1.4888 -0.2058
   22CHL1  H26C 1624   7.176   4.467   8.539 -0.0902  0.7623 -0.6770
   22CHL1   C27 1625   7.049   4.358   8.242 -0.9467  0.7509  0.0611
   22CHL1  H27A 1626   7.090   4.256   8.257 -2.1344 -0.0177 -1.7469
   22CHL1  H27B 1627   6.953   4.359   8.186  0.8019 -1.9593 -3.1514
   22CHL1  H27C 1628   7.123   4.418   8.185 -0.6535  0.7946  0.4811
   23CHL1    C3 1629   3.324   6.914   9.803 -0.1469 -0.2015 -0.3574
   23CHL1    H3 1630   3.350   6.817   9.755  0.2114 -0.2875  0.0152
   23CHL1    O3 1631   3.260   6.887   9.924 -0.1020  0.2099  0.3064
   23CHL1   H3' 1632   3.259   6.972   9.968 -0.9556 -0.8234  2.3781
   23CHL1    C4 1633   3.445   7.001   9.824 -0.2932 -0.4837  0.0893
   23CHL1   H4A 1634   3.424   7.089   9.888 -0.6943 -0.0798 -0.6022
   23CHL1   H4B 1635   3.522   6.942   9.880  1.8149  1.6173 -0.5129
   23CHL1    C5 1636   3.509   7.039   9.685 -0.5918  0.0601 -0.2046
   23CHL1    C6 1637   3.639   7.009   9.654 -0.3567  0.5579 -0.0287
   23CHL1    H6 1638   3.695   6.952   9.730 -2.6133 -2.9407 -0.8995
   23CHL1    C7 1639   3.702   7.038   9.526  0.6934  0.7303  0.2915
   23CHL1   H7A 1640   3.808   7.064   9.551  0.5635  1.0599  0.5043
   23CHL1   H7B 1641   3.703   6.945   9.466  1.3052  0.2024  1.1099
   23CHL1    C8 1642   3.624   7.138   9.434 -0.3903  0.0839  0.5104
   23CHL1    H8 1643   3.655   7.238   9.471 -0.7345  0.6790 -0.7913
   23CHL1   C14 1644   3.671   7.118   9.287 -0.1013  0.5823  0.0388
   23CHL1   H14 1645   3.634   7.019   9.253 -4.3265  2.7129 -1.9521
   23CHL1   C15 1646   3.818   7.118   9.256 -0.4205 -1.0328  0.2767
   23CHL1  H15A 1647   3.871   7.195   9.316 -2.9298  1.9103 -1.1596
   23CHL1  H15B 1648   3.863   7.020   9.283  0.4057 -0.5065  0.8181
   23CHL1   C16 1649   3.825   7.166   9.110  0.3241  0.2574 -0.0887
   23CHL1  H16A 1650   3.881   7.262   9.112  0.1365  0.3538  0.8094
   23CHL1  H16B 1651   3.884   7.088   9.057  2.9459 -0.3746  3.5697
   23CHL1   C17 1652   3.679   7.180   9.063 -0.2789  0.0811 -0.4710
   23CHL1   H17 1653   3.645   7.079   9.032 -0.7887 -0.4772  1.8074
   23CHL1   C13 1654   3.607   7.214   9.195 -0.3825  0.1872  0.2069
   23CHL1   C18 1655   3.622   7.361   9.223  0.0561 -0.4171 -0.2879
   23CHL1  H18A 1656   3.584   7.430   9.145 -1.3938 -2.2028 -1.1952
   23CHL1  H18B 1657   3.582   7.396   9.320  3.9345 -0.1884  1.3459
   23CHL1  H18C 1658   3.732   7.379   9.228  0.1612 -0.1874 -2.6675
   23CHL1   C12 1659   3.452   7.180   9.191 -0.3135  0.0452  0.1345
   23CHL1  H12A 1660   3.401   7.257   9.129 -0.9104 -0.9156 -0.5903
   23CHL1  H12B 1661   3.431   7.083   9.142 -2.6796  0.4757  0.2376
   23CHL1   C11 1662   3.384   7.186   9.330  0.9026 -0.3308  0.4780
   23CHL1  H11A 1663   3.372   7.294   9.354  2.3846  0.0660 -0.5287
   23CHL1  H11B 1664   3.281   7.147   9.314  1.0721 -0.6878  0.2495
   23CHL1    C9 1665   3.470   7.112   9.439 -0.1744  0.1869 -0.1318
   23CHL1    H9 1666   3.473   7.004   9.414 -3.0374  0.3647 -1.3856
   23CHL1   C10 1667   3.413   7.107   9.582  0.7392 -0.5402 -0.3789
   23CHL1   C19 1668   3.390   7.257   9.626 -0.1881  0.2825  0.0994
   23CHL1  H19A 1669   3.339   7.251   9.725 -0.3119 -0.6125 -0.0183
   23CHL1  H19B 1670   3.487   7.309   9.641  0.9963 -1.4216 -1.5599
   23CHL1  H19C 1671   3.321   7.314   9.560 -0.3346  1.4848  1.2523
   23CHL1    C1 1672   3.277   7.035   9.583 -0.2124  0.0989 -0.6763
   23CHL1   H1A 1673   3.201   7.090   9.523 -0.7333 -0.1327 -0.2363
   23CHL1   H1B 1674   3.291   6.942   9.524 -0.5501 -1.3572  1.4764
   23CHL1    C2 1675   3.222   6.987   9.714 -0.1838 -0.8157 -0.2843
   23CHL1   H2A 1676   3.136   6.920   9.695 -2.0813  1.9539 -1.9030
   23CHL1   H2B 1677   3.188   7.076   9.772  2.8924 -0.4105  0.9651
   23CHL1   C20 1678   3.670   7.281   8.944 -0.2644 -0.7875  0.0532
   23CHL1   H20 1679   3.720   7.379   8.963 -1.1683 -0.2178 -0.4732
   23CHL1   C21 1680   3.520   7.310   8.903  0.1772 -0.5628 -0.3647
   23CHL1  H21A 1681   3.515   7.355   8.801  0.3737  0.7565  0.2098
   23CHL1  H21B 1682   3.471   7.386   8.966  0.0295 -2.2213  1.5833
   23CHL1  H21C 1683   3.459   7.217   8.895 -0.2344 -0.1481 -2.3420
   23CHL1   C22 1684   3.737   7.213   8.820 -0.6482 -0.1260  0.5269
   23CHL1  H22A 1685   3.840   7.182   8.845 -0.9732 -1.5668  0.1120
   23CHL1  H22B 1686   3.684   7.119   8.794 -2.0124  1.0793 -1.1902
   23CHL1   C23 1687   3.735   7.285   8.686 -0.6031  0.0839 -0.0884
   23CHL1  H23A 1688   3.644   7.255   8.630 -0.3541 -1.6587  0.4014
   23CHL1  H23B 1689   3.733   7.393   8.709 -0.0284  0.0667  0.0434
   23CHL1   C24 1690   3.870   7.255   8.606  0.1922 -0.0590  0.4317
   23CHL1  H24A 1691   3.949   7.323   8.644 -0.3951  2.4637 -2.6230
   23CHL1  H24B 1692   3.893   7.150   8.636 -2.5331 -0.9149 -0.3820
   23CHL1   C25 1693   3.860   7.275   8.456 -0.5349  0.2153 -0.3293
   23CHL1   H25 1694   3.770   7.219   8.423 -0.9124 -0.3643  1.6412
   23CHL1   C26 1695   3.829   7.426   8.412  0.1722  0.8349 -0.3992
   23CHL1  H26A 1696   3.910   7.494   8.447  0.2649 -0.4229  1.9281
   23CHL1  H26B 1697   3.825   7.435   8.301 -0.6286  0.6239 -0.3849
   23CHL1  H26C 1698   3.732   7.460   8.454  0.9462 -0.1003  2.1973
   23CHL1   C27 1699   3.993   7.224   8.385 -0.4869  0.4328  0.2097
   23CHL1  H27A 1700   4.040   7.136   8.434  0.8956  2.7800  3.2810
   23CHL1  H27B 1701   3.967   7.208   8.279 -2.2574  1.5882  0.4434
   23CHL1  H27C 1702   4.072   7.302   8.388 -0.5478  0.5393 -0.8483
   24CHL1    C3 1703   4.235   6.867   9.684 -0.0678 -0.1559 -1.0417
   24CHL1    H3 1704   4.276   6.766   9.665  3.4779  1.1444 -0.6152
   24CHL1    O3 1705   4.191   6.872   9.821 -0.5207 -0.2221  0.7577
   24CHL1   H3' 1706   4.126   6.943   9.825 -0.2529  0.0691  0.1446
   24CHL1    C4 1707   4.351   6.965   9.650 -0.3208  0.1935 -0.0917
   24CHL1   H4A 1708   4.336   7.064   9.698  0.6972  0.8685 -1.1747
   24CHL1   H4B 1709   4.442   6.916   9.691 -0.6285  0.6518  1.1651
   24CHL1    C5 1710   4.375   6.974   9.495 -0.5095  0.4344 -0.2646
   24CHL1    C6 1711   4.488   6.940   9.442 -0.0461 -0.8010  0.3503
   24CHL1    H6 1712   4.569   6.908   9.509 -0.9656 -1.5071  1.1546
   24CHL1    C7 1713   4.519   6.941   9.295  0.5595  0.3704  0.3684
   24CHL1   H7A 1714   4.622   6.969   9.264 -0.2878 -1.0533 -4.1557
   24CHL1   H7B 1715   4.505   6.836   9.262  1.3973  0.0243  1.0992
   24CHL1    C8 1716   4.413   7.013   9.215 -0.3394 -0.0600  0.8555
   24CHL1    H8 1717   4.439   7.119   9.236 -2.8963  0.5351  1.1459
   24CHL1   C14 1718   4.424   6.981   9.065 -0.0157 -0.1006  0.2463
   24CHL1   H14 1719   4.380   6.880   9.057  1.7032 -0.7530 -1.1871
   24CHL1   C15 1720   4.568   6.984   9.004  0.7007  0.2962 -0.0889
   24CHL1  H15A 1721   4.605   7.083   9.037  1.6944  0.3625 -1.3386
   24CHL1  H15B 1722   4.614   6.890   9.042  2.4149 -0.2165 -3.2632
   24CHL1   C16 1723   4.548   6.994   8.855  0.1524 -0.7688 -0.4362
   24CHL1  H16A 1724   4.612   7.079   8.822 -0.4683  0.6993  2.0119
   24CHL1  H16B 1725   4.589   6.905   8.803 -0.0286 -0.7991 -0.5257
   24CHL1   C17 1726   4.397   7.013   8.839 -0.0806 -0.4141  0.0722
   24CHL1   H17 1727   4.351   6.912   8.826 -3.7999  0.8830  2.4426
   24CHL1   C13 1728   4.341   7.065   8.976  0.0974 -0.1546  0.5162
   24CHL1   C18 1729   4.374   7.220   8.981  0.3148  0.4407  0.0388
   24CHL1  H18A 1730   4.391   7.256   9.084 -1.5190 -2.6468  1.4777
   24CHL1  H18B 1731   4.450   7.261   8.911  0.2924  0.8548  0.2595
   24CHL1  H18C 1732   4.278   7.264   8.946 -0.6275 -1.2611  0.4253
   24CHL1   C12 1733   4.191   7.042   9.018  0.1102 -0.7896 -0.2288
   24CHL1  H12A 1734   4.123   7.110   8.962  0.7206  0.1028  0.0975
   24CHL1  H12B 1735   4.159   6.938   8.998  0.2439 -0.3319 -3.0387
   24CHL1   C11 1736   4.170   7.069   9.170 -0.3300  0.6094  0.0333
   24CHL1  H11A 1737   4.196   7.174   9.194 -1.1956  0.8032  0.1414
   24CHL1  H11B 1738   4.067   7.034   9.194  0.4983 -1.0811  1.2224
   24CHL1    C9 1739   4.270   6.990   9.256 -0.9513 -0.4580  0.4579
   24CHL1    H9 1740   4.244   6.885   9.230 -1.1440 -0.6527  1.4326
   24CHL1   C10 1741   4.251   7.009   9.409 -0.4389 -0.2669 -1.2285
   24CHL1   C19 1742   4.215   7.153   9.446 -0.2022 -0.2376 -0.3828
   24CHL1  H19A 1743   4.113   7.176   9.409 -0.6735  0.0803  1.0535
   24CHL1  H19B 1744   4.214   7.173   9.556  2.1065  2.0482 -0.7254
   24CHL1  H19C 1745   4.285   7.222   9.395  0.4938 -1.8104 -1.6089
   24CHL1    C1 1746   4.129   6.921   9.454 -0.3678 -0.1071 -0.4083
   24CHL1   H1A 1747   4.042   6.976   9.412 -0.0989  1.3261  0.8673
   24CHL1   H1B 1748   4.136   6.816   9.421 -0.6126 -0.4925  0.7328
   24CHL1    C2 1749   4.107   6.910   9.608 -0.2934  0.0117 -0.1761
   24CHL1   H2A 1750   4.019   6.849   9.637 -1.4452  1.4286 -0.6239
   24CHL1   H2B 1751   4.067   7.009   9.639  0.2593 -0.0225  0.6491
   24CHL1   C20 1752   4.369   7.089   8.707 -0.3725  0.3226  0.0676
   24CHL1   H20 1753   4.432   7.181   8.707  0.7543 -0.4293 -0.7031
   24CHL1   C21 1754   4.222   7.109   8.695 -0.1456  0.7084  0.4167
   24CHL1  H21A 1755   4.164   7.015   8.702  0.0875  0.2373 -2.9567
   24CHL1  H21B 1756   4.208   7.159   8.597 -1.5388 -1.3967 -0.4831
   24CHL1  H21C 1757   4.171   7.186   8.756  0.2322 -1.2781  3.3804
   24CHL1   C22 1758   4.413   7.009   8.578  0.2871 -0.4778  0.1826
   24CHL1  H22A 1759   4.505   6.953   8.605  0.0158  0.1107  2.4341
   24CHL1  H22B 1760   4.332   6.937   8.552 -1.4072  0.3230  3.0393
   24CHL1   C23 1761   4.445   7.105   8.467 -0.3681 -1.0936 -0.4488
   24CHL1  H23A 1762   4.369   7.185   8.459  0.5181 -0.0874  1.0385
   24CHL1  H23B 1763   4.538   7.153   8.505 -0.2655 -3.0989  1.9473
   24CHL1   C24 1764   4.477   7.040   8.332 -0.3861 -0.5301  0.8258
   24CHL1  H24A 1765   4.567   6.981   8.357 -0.1951  0.0342  1.4593
   24CHL1  H24B 1766   4.390   6.974   8.307  0.5835 -1.4015 -0.3245
   24CHL1   C25 1767   4.501   7.136   8.216  0.2928 -0.5238  0.4973
   24CHL1   H25 1768   4.413   7.203   8.206 -0.7992 -1.9689  0.2145
   24CHL1   C26 1769   4.634   7.214   8.232 -0.4338 -0.1420  0.0189
   24CHL1  H26A 1770   4.640   7.249   8.337 -0.3865 -0.2434  0.0493
   24CHL1  H26B 1771   4.729   7.162   8.204  1.5371  1.8704  2.6267
   24CHL1  H26C 1772   4.630   7.302   8.165 -0.4343  0.0014  0.2058
   24CHL1   C27 1773   4.492   7.055   8.084  0.0597  0.3711 -0.5036
   24CHL1  H27A 1774   4.505   7.119   7.995  1.6050 -0.7244 -1.0913
   24CHL1  H27B 1775   4.565   6.971   8.072  0.8047  0.7647  1.1890
   24CHL1  H27C 1776   4.386   7.022   8.079 -0.1143  0.8994 -0.2582
   25CHL1    C3 1777   4.630   0.162   9.654 -0.2669 -0.3468 -0.0454
   25CHL1    H3 1778   4.732   0.122   9.677 -1.2803 -2.1408  1.4735
   25CHL1    O3 1779   4.566   0.191   9.780  0.3714 -0.4263  0.1156
   25CHL1   H3' 1780   4.490   0.244   9.755  0.0888 -1.5107 -1.3669
   25CHL1    C4 1781   4.646   0.295   9.578 -0.1861 -0.1755  0.3927
   25CHL1   H4A 1782   4.545   0.341   9.573 -0.2701 -0.4117 -0.0710
   25CHL1   H4B 1783   4.708   0.357   9.646 -0.5061  1.0687 -0.4294
   25CHL1    C5 1784   4.713   0.274   9.445  0.4670 -0.4011  0.0992
   25CHL1    C6 1785   4.825   0.338   9.418  0.6549 -0.5424 -0.4619
   25CHL1    H6 1786   4.863   0.402   9.499 -0.8360 -0.0103 -0.1713
   25CHL1    C7 1787   4.911   0.330   9.290  0.4780  0.1475 -0.0662
   25CHL1   H7A 1788   4.946   0.429   9.256  0.2260  0.3670  0.3148
   25CHL1   H7B 1789   4.992   0.254   9.300  0.1576  0.0053  1.6381
   25CHL1    C8 1790   4.821   0.258   9.175  0.1484 -0.6373  0.3957
   25CHL1    H8 1791   4.749   0.339   9.150 -0.9989 -1.5292  0.7520
   25CHL1   C14 1792   4.903   0.215   9.059 -0.9270  0.0189  0.0753
   25CHL1   H14 1793   4.965   0.131   9.096 -1.2781  0.6569  2.1663
   25CHL1   C15 1794   5.008   0.318   9.007  0.8671  0.2549  1.2006
   25CHL1  H15A 1795   4.967   0.421   9.013 -1.0898 -0.4337  0.0562
   25CHL1  H15B 1796   5.096   0.325   9.074  0.7437 -0.0449  1.3949
   25CHL1   C16 1797   5.031   0.264   8.864 -0.2356  0.0907  0.5779
   25CHL1  H16A 1798   5.017   0.334   8.779 -2.7288  0.2408  1.0767
   25CHL1  H16B 1799   5.137   0.240   8.842 -1.3217 -2.6295 -2.0512
   25CHL1   C17 1800   4.948   0.131   8.850  0.8641 -0.1041 -0.4661
   25CHL1   H17 1801   5.013   0.056   8.899 -0.6650 -0.1650  1.5406
   25CHL1   C13 1802   4.826   0.153   8.944 -0.3002  0.5169  0.1957
   25CHL1   C18 1803   4.713   0.247   8.884  0.5634  0.3777 -0.2067
   25CHL1  H18A 1804   4.774   0.321   8.827 -0.2708  1.0300 -0.2549
   25CHL1  H18B 1805   4.638   0.187   8.828 -2.1763  1.4143  2.2593
   25CHL1  H18C 1806   4.662   0.293   8.971 -0.4475 -1.2276  0.0665
   25CHL1   C12 1807   4.770   0.023   8.998  0.8967  0.8324  0.0819
   25CHL1  H12A 1808   4.725  -0.053   8.932 -0.1130  1.0551  0.5072
   25CHL1  H12B 1809   4.859  -0.029   9.040  0.3752  0.1062  0.2868
   25CHL1   C11 1810   4.677   0.056   9.119 -0.3618  0.5487  0.2233
   25CHL1  H11A 1811   4.586   0.106   9.080  1.5438  2.6708 -1.6797
   25CHL1  H11B 1812   4.644  -0.041   9.162 -0.4429 -1.1415 -3.4581
   25CHL1    C9 1813   4.744   0.133   9.234 -0.6244 -0.8605  0.3944
   25CHL1    H9 1814   4.828   0.065   9.262 -0.0512  0.1245  1.1243
   25CHL1   C10 1815   4.660   0.166   9.355  0.4136  0.4458  0.5397
   25CHL1   C19 1816   4.524   0.225   9.313  0.6300  0.2964  0.2536
   25CHL1  H19A 1817   4.466   0.164   9.241  0.5305 -1.2255  1.5993
   25CHL1  H19B 1818   4.455   0.227   9.401 -0.6561  0.1183 -0.7319
   25CHL1  H19C 1819   4.536   0.329   9.274 -0.1896 -0.6240 -2.5789
   25CHL1    C1 1820   4.632   0.036   9.430 -0.9408  0.6598  0.3356
   25CHL1   H1A 1821   4.572  -0.027   9.361  1.2092  0.2307 -1.2054
   25CHL1   H1B 1822   4.728  -0.018   9.440 -0.2773  1.0999 -2.9603
   25CHL1    C2 1823   4.565   0.050   9.568  0.0803 -0.3228  0.3198
   25CHL1   H2A 1824   4.555  -0.051   9.613 -1.6692 -1.4546 -2.5083
   25CHL1   H2B 1825   4.460   0.084   9.558  0.9338  2.1590 -0.6407
   25CHL1   C20 1826   4.914   0.087   8.704 -0.3618 -0.3501  0.6086
   25CHL1   H20 1827   4.844   0.162   8.660 -0.4038 -0.4605  0.4861
   25CHL1   C21 1828   4.842  -0.044   8.699 -0.2530 -0.0674  0.3290
   25CHL1  H21A 1829   4.733  -0.042   8.723 -0.7161 -0.7972 -1.5860
   25CHL1  H21B 1830   4.895  -0.118   8.763  1.6647 -0.5387 -1.7594
   25CHL1  H21C 1831   4.843  -0.089   8.598 -1.6361 -1.3100  0.8449
   25CHL1   C22 1832   5.037   0.079   8.613 -0.4525 -0.2430  0.5209
   25CHL1  H22A 1833   5.110   0.161   8.631 -1.0184  1.4333 -4.1601
   25CHL1  H22B 1834   5.095  -0.011   8.645  1.8422  0.5498 -1.2691
   25CHL1   C23 1835   5.000   0.088   8.464  0.8493 -0.8793  0.5755
   25CHL1  H23A 1836   5.098   0.085   8.412  0.5351 -1.8133  0.0247
   25CHL1  H23B 1837   4.924   0.011   8.438 -1.4622  1.0745  1.4722
   25CHL1   C24 1838   4.946   0.229   8.425 -0.0718  0.1925 -0.7340
   25CHL1  H24A 1839   4.837   0.224   8.447  0.6820 -2.0184  2.9514
   25CHL1  H24B 1840   5.014   0.297   8.481 -1.2091  1.0291 -0.3649
   25CHL1   C25 1841   4.952   0.265   8.271  0.6623 -0.3347 -0.2389
   25CHL1   H25 1842   4.900   0.362   8.262 -2.4484 -1.8858  0.1838
   25CHL1   C26 1843   5.088   0.276   8.223  0.1734  0.1942 -0.4225
   25CHL1  H26A 1844   5.124   0.173   8.204  1.6626  1.0992 -2.8080
   25CHL1  H26B 1845   5.088   0.337   8.129 -2.6791 -0.8266 -1.1449
   25CHL1  H26C 1846   5.154   0.327   8.297 -0.6227  0.4733  0.1004
   25CHL1   C27 1847   4.869   0.159   8.198 -0.8456  0.3981  0.4147
   25CHL1  H27A 1848   4.866   0.192   8.092  3.0498 -0.1606  0.0611
   25CHL1  H27B 1849   4.919   0.060   8.210 -1.3172  0.1689  0.5153
   25CHL1  H27C 1850   4.765   0.171   8.237 -2.0161 -0.4492 -2.3024
   26CHL1    C3 1851   0.319   4.572   9.690  0.1739  0.2799  0.0462
   26CHL1    H3 1852   0.310   4.462   9.674  0.6869  0.6624 -3.2803
   26CHL1    O3 1853   0.345   4.591   9.827  0.2245 -0.1684  0.2458
   26CHL1   H3' 1854   0.353   4.686   9.833  1.7008 -0.1853 -1.2592
   26CHL1    C4 1855   0.451   4.605   9.615  0.1437  0.3423  0.1607
   26CHL1   H4A 1856   0.490   4.708   9.630 -1.3074  0.9250  0.0437
   26CHL1   H4B 1857   0.530   4.551   9.671 -0.3420 -0.6769 -0.1401
   26CHL1    C5 1858   0.443   4.581   9.466  0.5517  0.5535  0.1969
   26CHL1    C6 1859   0.531   4.510   9.396  0.1696 -0.5654 -0.4219
   26CHL1    H6 1860   0.620   4.465   9.442  2.6655  1.9483 -2.5309
   26CHL1    C7 1861   0.528   4.493   9.249 -0.4390  0.1947  0.3087
   26CHL1   H7A 1862   0.627   4.516   9.205 -0.0140 -1.5904  0.2918
   26CHL1   H7B 1863   0.504   4.386   9.230 -1.0870  0.5671 -1.0159
   26CHL1    C8 1864   0.426   4.583   9.177  0.2866  0.5473 -0.8274
   26CHL1    H8 1865   0.462   4.688   9.180 -2.6468  1.6379 -1.6337
   26CHL1   C14 1866   0.409   4.549   9.026 -0.0633 -0.2668 -0.6573
   26CHL1   H14 1867   0.377   4.442   9.026  2.7296 -1.2232  2.8528
   26CHL1   C15 1868   0.533   4.560   8.932  0.0486  0.0932 -0.8860
   26CHL1  H15A 1869   0.578   4.660   8.946 -0.0771  0.4403 -2.8086
   26CHL1  H15B 1870   0.608   4.479   8.946  2.8794  2.5663 -1.2331
   26CHL1   C16 1871   0.476   4.559   8.790 -0.0789  0.1573  0.5739
   26CHL1  H16A 1872   0.521   4.641   8.732 -0.2912 -0.0168  0.1687
   26CHL1  H16B 1873   0.502   4.462   8.742 -1.6839  0.1086 -0.2118
   26CHL1   C17 1874   0.320   4.566   8.815  0.1162  0.7674  0.0701
   26CHL1   H17 1875   0.287   4.460   8.818 -1.7555  1.3572  3.6398
   26CHL1   C13 1876   0.295   4.624   8.953 -0.1013  0.4112 -1.0106
   26CHL1   C18 1877   0.325   4.777   8.956  0.0928  0.0457  0.3597
   26CHL1  H18A 1878   0.430   4.793   8.923 -0.2719  2.9852  0.5683
   26CHL1  H18B 1879   0.246   4.831   8.900 -0.7513  0.3107  1.7742
   26CHL1  H18C 1880   0.325   4.809   9.062  2.2632 -4.7466  1.9797
   26CHL1   C12 1881   0.169   4.584   9.031 -0.0303 -0.0264 -0.8257
   26CHL1  H12A 1882   0.081   4.639   8.993 -1.2786 -1.1524  0.3957
   26CHL1  H12B 1883   0.149   4.476   9.014 -1.7290  0.0343  0.6373
   26CHL1   C11 1884   0.173   4.624   9.176  0.0471 -0.6970  0.6076
   26CHL1  H11A 1885   0.159   4.734   9.181 -0.4687 -0.7848  1.3135
   26CHL1  H11B 1886   0.073   4.598   9.218  0.4887  0.0216  2.1293
   26CHL1    C9 1887   0.299   4.567   9.253  0.7924  0.2138 -1.0692
   26CHL1    H9 1888   0.278   4.458   9.263 -0.6809  0.6064  0.5602
   26CHL1   C10 1889   0.313   4.629   9.398 -0.1677  0.0138  0.7953
   26CHL1   C19 1890   0.336   4.785   9.387  0.4812 -0.8614  0.7660
   26CHL1  H19A 1891   0.430   4.808   9.331 -0.8856 -1.2514 -1.7333
   26CHL1  H19B 1892   0.258   4.841   9.332  0.2813 -3.2072 -1.4275
   26CHL1  H19C 1893   0.345   4.836   9.485  2.0182  0.7026 -0.1486
   26CHL1    C1 1894   0.186   4.599   9.478 -0.2049 -0.6423  0.6808
   26CHL1   H1A 1895   0.097   4.652   9.439  0.6542  0.4952  0.2166
   26CHL1   H1B 1896   0.163   4.491   9.480  0.3326 -0.8496 -1.8239
   26CHL1    C2 1897   0.198   4.638   9.634  0.0703  0.0704  0.3287
   26CHL1   H2A 1898   0.097   4.619   9.677  0.8284 -0.4479  1.9180
   26CHL1   H2B 1899   0.210   4.748   9.637  0.1384  0.0251  2.0858
   26CHL1   C20 1900   0.244   4.627   8.693  0.3071  0.3558  1.0391
   26CHL1   H20 1901   0.283   4.730   8.684 -1.0579  0.9035  1.4053
   26CHL1   C21 1902   0.090   4.628   8.712 -0.2085 -0.2706  0.7477
   26CHL1  H21A 1903   0.063   4.526   8.745  0.8585 -0.7601  0.1538
   26CHL1  H21B 1904   0.036   4.655   8.618  3.0187 -0.5775 -1.2933
   26CHL1  H21C 1905   0.069   4.708   8.786  1.8803  0.6275  0.4262
   26CHL1   C22 1906   0.274   4.555   8.563 -0.3225  0.1697  0.3733
   26CHL1  H22A 1907   0.383   4.541   8.549 -0.2017  1.0762  0.4399
   26CHL1  H22B 1908   0.231   4.452   8.558 -2.5599  1.0224  1.5274
   26CHL1   C23 1909   0.233   4.625   8.430 -0.0227 -0.5394  0.0686
   26CHL1  H23A 1910   0.125   4.608   8.415  0.2741 -1.0479 -1.5834
   26CHL1  H23B 1911   0.248   4.734   8.441  1.8465 -0.6968 -0.6198
   26CHL1   C24 1912   0.313   4.580   8.297  0.3603  0.2249  0.7003
   26CHL1  H24A 1913   0.419   4.614   8.299  0.5674 -0.4424  1.3292
   26CHL1  H24B 1914   0.305   4.470   8.284  1.4905  0.3040 -0.7735
   26CHL1   C25 1915   0.244   4.650   8.172 -0.5764  0.0874  0.6575
   26CHL1   H25 1916   0.147   4.598   8.156 -0.4423  0.0407 -0.0234
   26CHL1   C26 1917   0.221   4.796   8.191 -0.3893 -0.1942  0.1121
   26CHL1  H26A 1918   0.316   4.841   8.226 -2.2286  2.2657  2.1109
   26CHL1  H26B 1919   0.195   4.847   8.095 -0.3528 -2.9247 -1.3892
   26CHL1  H26C 1920   0.150   4.815   8.274 -1.2312 -0.5544 -0.5238
   26CHL1   C27 1921   0.335   4.615   8.048  0.8173 -0.5775 -0.1000
   26CHL1  H27A 1922   0.276   4.628   7.955 -0.3414  0.8219  0.8120
   26CHL1  H27B 1923   0.434   4.664   8.053 -0.0401  1.1074  0.9598
   26CHL1  H27C 1924   0.356   4.506   8.038 -0.3457 -0.7180 -1.0621
   27CHL1    C3 1925   0.017   1.444   9.734 -0.3111 -0.2170  0.0329
   27CHL1    H3 1926  -0.008   1.336   9.732  2.8969 -1.0970  2.2289
   27CHL1    O3 1927  -0.018   1.498   9.858 -0.0682 -0.2327 -0.7834
   27CHL1   H3' 1928   0.020   1.586   9.862 -0.8047  0.0371  1.4611
   27CHL1    C4 1929   0.172   1.461   9.709  0.2541 -0.3615  0.5280
   27CHL1   H4A 1930   0.210   1.564   9.728  0.3175  0.2017 -2.4796
   27CHL1   H4B 1931   0.215   1.387   9.780 -1.3581  0.0405  1.9616
   27CHL1    C5 1932   0.211   1.416   9.571 -0.1879 -0.4412  0.3905
   27CHL1    C6 1933   0.300   1.316   9.553  0.1382 -0.7658 -0.1873
   27CHL1    H6 1934   0.337   1.255   9.637 -1.0886  1.1744  1.8102
   27CHL1    C7 1935   0.346   1.264   9.419 -0.0227  0.0182 -0.6318
   27CHL1   H7A 1936   0.457   1.260   9.415  0.0156  1.1378 -0.6938
   27CHL1   H7B 1937   0.299   1.165   9.396  1.4919 -0.5571 -1.3154
   27CHL1    C8 1938   0.305   1.347   9.294  0.3140  0.0345  0.0121
   27CHL1    H8 1939   0.379   1.429   9.295  1.1925 -0.7753  1.4164
   27CHL1   C14 1940   0.316   1.270   9.166  0.3339 -0.3923 -0.6548
   27CHL1   H14 1941   0.236   1.192   9.165 -0.2425  0.1703  0.7930
   27CHL1   C15 1942   0.448   1.201   9.135 -0.3373  0.3929  1.1281
   27CHL1  H15A 1943   0.532   1.267   9.165  2.8995 -2.8269 -0.5304
   27CHL1  H15B 1944   0.459   1.107   9.192 -3.2013 -0.8057 -0.2029
   27CHL1   C16 1945   0.452   1.184   8.981  0.3758  0.2528 -0.1765
   27CHL1  H16A 1946   0.544   1.228   8.938  0.6026  0.0620  0.1153
   27CHL1  H16B 1947   0.444   1.076   8.956 -0.3317  0.4255 -0.7063
   27CHL1   C17 1948   0.321   1.250   8.930 -0.7253 -0.0718  0.3020
   27CHL1   H17 1949   0.240   1.175   8.943 -1.7363  0.2968 -3.4382
   27CHL1   C13 1950   0.286   1.355   9.042  0.7573 -0.4174 -0.2660
   27CHL1   C18 1951   0.382   1.477   9.025  0.1028 -0.8831 -0.1909
   27CHL1  H18A 1952   0.346   1.537   8.939  1.0272 -1.0975 -0.7296
   27CHL1  H18B 1953   0.397   1.544   9.113 -3.9990 -0.5676  0.3963
   27CHL1  H18C 1954   0.486   1.448   9.000  0.6627 -0.8420  2.0043
   27CHL1   C12 1955   0.138   1.398   9.058 -0.3101  0.0052  0.5039
   27CHL1  H12A 1956   0.114   1.466   8.974 -0.4031  0.5470  0.9677
   27CHL1  H12B 1957   0.066   1.313   9.056 -1.9906  1.4320 -2.5644
   27CHL1   C11 1958   0.121   1.483   9.191 -0.6484 -0.4665 -0.0752
   27CHL1  H11A 1959   0.188   1.571   9.183  1.4671 -1.8739  1.5494
   27CHL1  H11B 1960   0.017   1.520   9.196 -0.7517 -0.5479 -1.3992
   27CHL1    C9 1961   0.165   1.408   9.314  1.5276 -0.5256  1.0473
   27CHL1    H9 1962   0.093   1.324   9.319 -2.1309  2.4234 -0.0321
   27CHL1   C10 1963   0.132   1.483   9.455  0.6618  0.2012 -0.0015
   27CHL1   C19 1964   0.171   1.630   9.450  0.1830 -0.1044  0.4727
   27CHL1  H19A 1965   0.278   1.641   9.423 -0.2993  0.9632 -1.0811
   27CHL1  H19B 1966   0.111   1.681   9.372  0.1344  1.9244  1.8192
   27CHL1  H19C 1967   0.160   1.677   9.550 -1.7913 -1.2042  0.7954
   27CHL1    C1 1968  -0.022   1.471   9.492 -0.8287 -1.2130  0.3314
   27CHL1   H1A 1969  -0.072   1.530   9.412 -1.4715  0.6415  2.0767
   27CHL1   H1B 1970  -0.055   1.367   9.472  0.2276 -1.3172 -0.9515
   27CHL1    C2 1971  -0.058   1.519   9.629  0.5690 -0.7449  0.2959
   27CHL1   H2A 1972  -0.166   1.497   9.645  0.2931 -1.3528 -2.1904
   27CHL1   H2B 1973  -0.042   1.629   9.630 -1.4500 -0.4180 -0.6027
   27CHL1   C20 1974   0.319   1.307   8.780  0.0890 -0.2600  0.0499
   27CHL1   H20 1975   0.332   1.418   8.783 -3.4068  0.2409 -0.8481
   27CHL1   C21 1976   0.175   1.283   8.728  0.1710 -0.0791  0.0725
   27CHL1  H21A 1977   0.098   1.309   8.804  0.2233  0.3346 -0.0178
   27CHL1  H21B 1978   0.159   1.176   8.704  0.8627 -0.3000  0.5831
   27CHL1  H21C 1979   0.143   1.339   8.637  2.5243 -0.0130 -0.7418
   27CHL1   C22 1980   0.426   1.235   8.693  0.2815 -0.3748 -0.5659
   27CHL1  H22A 1981   0.531   1.267   8.707  0.0371  0.4862 -0.6622
   27CHL1  H22B 1982   0.416   1.128   8.721  2.9738 -0.1270  1.5238
   27CHL1   C23 1983   0.393   1.246   8.542 -0.0158  0.0311 -0.3117
   27CHL1  H23A 1984   0.290   1.216   8.513  0.3269 -1.1441 -0.3110
   27CHL1  H23B 1985   0.392   1.351   8.506 -3.6162  0.0605 -0.3491
   27CHL1   C24 1986   0.476   1.140   8.465  0.5337  0.3976  0.2096
   27CHL1  H24A 1987   0.584   1.168   8.465  0.8814 -0.8689 -0.4769
   27CHL1  H24B 1988   0.470   1.040   8.513  0.5071  0.9439  1.3505
   27CHL1   C25 1989   0.447   1.132   8.316 -0.4134 -0.2779  0.3266
   27CHL1   H25 1990   0.351   1.077   8.316  0.8989 -2.7119  2.3822
   27CHL1   C26 1991   0.437   1.268   8.249 -0.0689  0.5868 -0.3027
   27CHL1  H26A 1992   0.451   1.258   8.139 -2.4106 -2.7517 -0.3693
   27CHL1  H26B 1993   0.340   1.318   8.267 -0.0403  0.5197  0.0368
   27CHL1  H26C 1994   0.513   1.338   8.290  1.8384 -0.4155 -2.0244
   27CHL1   C27 1995   0.563   1.053   8.246 -1.3786  0.0212 -0.0184
   27CHL1  H27A 1996   0.543   0.944   8.255 -0.1387 -0.0326  2.5812
   27CHL1  H27B 1997   0.580   1.091   8.143 -0.2066 -2.4748 -0.7860
   27CHL1  H27C 1998   0.660   1.077   8.295 -0.4505  2.0015 -2.6532
   28CHL1    C3 1999   6.025   6.890   9.581  0.7011 -0.3815 -0.5456
   28CHL1    H3 2000   5.914   6.902   9.586  0.4435 -2.7200 -0.0542
   28CHL1    O3 2001   6.070   6.884   9.720 -0.2946 -0.9391  0.4552
   28CHL1   H3' 2002   6.165   6.896   9.712 -0.6227  0.3631 -2.4268
   28CHL1    C4 2003   6.047   6.766   9.503  0.4405  0.8104  0.8026
   28CHL1   H4A 2004   6.154   6.740   9.515 -0.2039 -2.3079  0.4661
   28CHL1   H4B 2005   5.992   6.680   9.549  0.3821 -0.0106 -0.7693
   28CHL1    C5 2006   6.014   6.772   9.353  0.3226 -0.5579  1.0420
   28CHL1    C6 2007   5.926   6.686   9.302  0.2542 -0.8528 -0.0343
   28CHL1    H6 2008   5.898   6.597   9.360 -0.2991 -2.0668 -2.1187
   28CHL1    C7 2009   5.896   6.678   9.153  0.3205 -0.4615 -1.0063
   28CHL1   H7A 2010   5.898   6.567   9.145  1.0999 -0.8982  3.7481
   28CHL1   H7B 2011   5.792   6.711   9.134 -0.3301  0.2790  3.3506
   28CHL1    C8 2012   5.989   6.758   9.066 -0.5919 -0.8440  0.8251
   28CHL1    H8 2013   6.083   6.702   9.053 -0.9710 -1.3656  0.3011
   28CHL1   C14 2014   5.940   6.764   8.911  0.0517 -0.4894 -0.1231
   28CHL1   H14 2015   5.837   6.803   8.922  0.4003  0.0957  1.1771
   28CHL1   C15 2016   5.929   6.637   8.829 -0.0487 -0.8565  0.4964
   28CHL1  H15A 2017   6.022   6.575   8.825  0.2259 -0.3833 -0.8139
   28CHL1  H15B 2018   5.852   6.564   8.862  0.5065 -0.2867  3.1701
   28CHL1   C16 2019   5.894   6.693   8.688 -0.0482  0.2220 -0.6297
   28CHL1  H16A 2020   5.965   6.648   8.615  0.9557 -0.2800  0.6317
   28CHL1  H16B 2021   5.792   6.662   8.657 -0.0698  1.5763 -1.9714
   28CHL1   C17 2022   5.925   6.846   8.697  0.1632 -0.7043  0.2872
   28CHL1   H17 2023   5.824   6.888   8.718 -0.5711 -2.0881 -0.4192
   28CHL1   C13 2024   6.011   6.868   8.822 -0.2689  0.6282  0.2626
   28CHL1   C18 2025   6.155   6.823   8.791 -0.3180  0.8194 -0.5906
   28CHL1  H18A 2026   6.163   6.734   8.724  1.7347  0.1728  0.4694
   28CHL1  H18B 2027   6.205   6.899   8.727 -0.5241 -0.1721 -1.9558
   28CHL1  H18C 2028   6.230   6.811   8.872 -0.0448  0.9174 -0.8311
   28CHL1   C12 2029   6.018   7.008   8.896  0.5149  0.9416 -0.2348
   28CHL1  H12A 2030   6.063   7.091   8.838  0.1665  1.0753 -0.3125
   28CHL1  H12B 2031   5.913   7.043   8.910 -0.6506 -2.0554 -1.0802
   28CHL1   C11 2032   6.081   7.000   9.032  0.4039 -0.2861  0.1379
   28CHL1  H11A 2033   6.187   6.971   9.013  0.0795 -1.0450 -0.5635
   28CHL1  H11B 2034   6.071   7.106   9.063  3.5625  0.2132 -0.3326
   28CHL1    C9 2035   6.014   6.897   9.126 -0.0978 -0.1718 -0.5559
   28CHL1    H9 2036   5.916   6.948   9.138  0.4999  0.9828 -0.5326
   28CHL1   C10 2037   6.079   6.892   9.271  0.4196  0.0176  0.1938
   28CHL1   C19 2038   6.229   6.863   9.260  0.1339  0.7036 -0.1635
   28CHL1  H19A 2039   6.283   6.870   9.356  0.3829 -2.6214  0.0192
   28CHL1  H19B 2040   6.236   6.764   9.210  2.0002  0.9699 -0.4441
   28CHL1  H19C 2041   6.275   6.936   9.190  0.9912 -0.6349 -1.0251
   28CHL1    C1 2042   6.044   7.015   9.361  0.2160 -0.5983 -0.7511
   28CHL1   H1A 2043   6.092   7.097   9.303  0.0860  0.9208  1.2478
   28CHL1   H1B 2044   5.936   7.039   9.359  0.4248  0.6373  1.3862
   28CHL1    C2 2045   6.087   7.011   9.507 -0.9033  0.2112 -0.1722
   28CHL1   H2A 2046   6.052   7.106   9.551  0.1282 -0.6305  2.5322
   28CHL1   H2B 2047   6.196   7.000   9.525 -0.8732  1.1824  0.2396
   28CHL1   C20 2048   5.965   6.906   8.569 -0.3196  0.1052 -0.0021
   28CHL1   H20 2049   6.062   6.875   8.527 -0.1298  2.8724 -1.7562
   28CHL1   C21 2050   5.959   7.058   8.591  0.2723 -0.1280  0.0915
   28CHL1  H21A 2051   6.048   7.086   8.653  0.1975 -0.6983  0.4578
   28CHL1  H21B 2052   5.860   7.096   8.624 -0.4418 -1.6552 -0.2851
   28CHL1  H21C 2053   5.985   7.112   8.497 -2.4037 -0.9020 -1.1412
   28CHL1   C22 2054   5.853   6.872   8.468  0.1755 -0.1722 -0.6171
   28CHL1  H22A 2055   5.855   6.761   8.458 -0.8605 -0.3083  0.5358
   28CHL1  H22B 2056   5.754   6.900   8.508 -0.0563  2.6395 -3.0188
   28CHL1   C23 2057   5.873   6.936   8.327 -0.9164 -0.1304  0.3012
   28CHL1  H23A 2058   5.868   7.046   8.337 -2.5447 -0.1084 -0.6702
   28CHL1  H23B 2059   5.972   6.895   8.300 -1.6605 -3.3034  2.0789
   28CHL1   C24 2060   5.768   6.886   8.231  0.2232  0.3296 -0.5353
   28CHL1  H24A 2061   5.768   6.775   8.225  1.0760  0.3893 -2.0109
   28CHL1  H24B 2062   5.667   6.924   8.256  0.8646  0.2158  2.4126
   28CHL1   C25 2063   5.797   6.941   8.085 -0.0917  0.5132 -0.2560
   28CHL1   H25 2064   5.791   7.051   8.088  0.0314  0.4897  0.7874
   28CHL1   C26 2065   5.948   6.912   8.036 -0.0360  0.3724 -0.0824
   28CHL1  H26A 2066   6.020   6.978   8.090  0.9135  1.3868 -2.5381
   28CHL1  H26B 2067   5.970   6.804   8.044 -2.4800 -0.1505  0.0960
   28CHL1  H26C 2068   5.947   6.937   7.928 -0.6944  1.4889  0.1709
   28CHL1   C27 2069   5.705   6.885   7.982 -0.2782  0.6362  0.5134
   28CHL1  H27A 2070   5.730   6.779   7.956  0.8472  1.3632 -1.4554
   28CHL1  H27B 2071   5.600   6.893   8.015 -0.0501  1.2964  1.0877
   28CHL1  H27C 2072   5.702   6.947   7.890 -0.8788  2.9241  2.0596
   29CHL1    C3 2073   4.356   5.270   6.234  0.3120 -0.2378  0.2568
   29CHL1    H3 2074   4.413   5.182   6.271  0.2293  0.3358  1.8026
   29CHL1    O3 2075   4.345   5.271   6.094  0.2022 -0.0138  0.1185
   29CHL1   H3' 2076   4.407   5.201   6.074  1.4538  1.5817 -1.7043
   29CHL1    C4 2077   4.216   5.270   6.297 -0.4664 -0.8691  0.3599
   29CHL1   H4A 2078   4.148   5.348   6.257 -0.2113 -0.8674 -0.0775
   29CHL1   H4B 2079   4.166   5.173   6.276  0.4005 -0.6807 -2.7184
   29CHL1    C5 2080   4.210   5.287   6.454 -0.3118  0.1315  0.7211
   29CHL1    C6 2081   4.150   5.199   6.539  0.3390 -0.0397  0.3834
   29CHL1    H6 2082   4.097   5.111   6.501  0.6469  0.0795 -0.3346
   29CHL1    C7 2083   4.155   5.211   6.687  0.1903 -0.4563  0.0017
   29CHL1   H7A 2084   4.054   5.192   6.729 -0.6655  1.7418 -1.0061
   29CHL1   H7B 2085   4.233   5.141   6.725 -0.0990 -0.6278  0.2795
   29CHL1    C8 2086   4.197   5.357   6.735 -0.4392  0.3484 -0.0658
   29CHL1    H8 2087   4.111   5.425   6.715 -1.5067 -1.3285 -1.2981
   29CHL1   C14 2088   4.231   5.363   6.882 -0.8201 -0.2442 -0.0848
   29CHL1   H14 2089   4.315   5.296   6.909 -1.4315 -0.5891  1.0178
   29CHL1   C15 2090   4.118   5.322   6.973  0.2279 -0.7288 -0.8357
   29CHL1  H15A 2091   4.023   5.355   6.924  0.4841 -0.0588 -0.8874
   29CHL1  H15B 2092   4.119   5.212   6.986  1.1542 -1.0109 -2.9611
   29CHL1   C16 2093   4.139   5.390   7.110 -0.4563  0.1886 -0.2374
   29CHL1  H16A 2094   4.053   5.446   7.152 -1.2394 -1.7439  0.8141
   29CHL1  H16B 2095   4.142   5.314   7.191 -1.8135  0.0101 -0.3332
   29CHL1   C17 2096   4.270   5.477   7.084 -0.0577 -0.4952  0.3318
   29CHL1   H17 2097   4.352   5.404   7.100  1.0623  1.1695  2.4478
   29CHL1   C13 2098   4.277   5.499   6.934 -1.0355 -0.2745 -0.0290
   29CHL1   C18 2099   4.179   5.617   6.899 -0.1156  0.0581  0.1112
   29CHL1  H18A 2100   4.175   5.630   6.789  3.7854  3.0229  0.2146
   29CHL1  H18B 2101   4.080   5.598   6.945  0.3304 -0.1180  1.0065
   29CHL1  H18C 2102   4.226   5.709   6.941  1.0842 -1.3462  1.9510
   29CHL1   C12 2103   4.409   5.532   6.867 -0.5379  0.2902 -0.2322
   29CHL1  H12A 2104   4.460   5.627   6.893  1.6765 -0.8234 -0.3772
   29CHL1  H12B 2105   4.484   5.451   6.881 -0.8982  0.1550  0.9846
   29CHL1   C11 2106   4.405   5.523   6.717  0.4217  0.3867  0.5097
   29CHL1  H11A 2107   4.348   5.611   6.680  1.1543  0.2181 -1.0912
   29CHL1  H11B 2108   4.511   5.533   6.686  0.8847 -3.2705  0.6429
   29CHL1    C9 2109   4.328   5.392   6.659  0.3550 -0.3016  0.7158
   29CHL1    H9 2110   4.396   5.304   6.667 -0.0736 -0.5446  1.7051
   29CHL1   C10 2111   4.301   5.406   6.505 -0.2592  0.8386 -0.7356
   29CHL1   C19 2112   4.225   5.550   6.474  0.5504 -0.1271  0.1063
   29CHL1  H19A 2113   4.131   5.546   6.532  0.1156 -0.7226 -0.6295
   29CHL1  H19B 2114   4.290   5.636   6.500 -0.5737  0.4737  0.9915
   29CHL1  H19C 2115   4.200   5.545   6.366  0.7572 -1.8108  0.1253
   29CHL1    C1 2116   4.438   5.405   6.427  0.0062  0.1574  0.8841
   29CHL1   H1A 2117   4.491   5.501   6.449  0.2980  0.4832 -1.1817
   29CHL1   H1B 2118   4.504   5.321   6.458  0.8646 -0.3201 -2.0786
   29CHL1    C2 2119   4.426   5.395   6.273  0.0156 -0.2235  0.3347
   29CHL1   H2A 2120   4.531   5.392   6.237 -0.4748 -0.4810 -1.1130
   29CHL1   H2B 2121   4.388   5.489   6.226 -2.2621 -2.6868 -2.9932
   29CHL1   C20 2122   4.285   5.595   7.173 -0.1061 -0.2872 -0.8808
   29CHL1   H20 2123   4.227   5.682   7.135 -0.5414 -1.2003 -2.3561
   29CHL1   C21 2124   4.434   5.637   7.173  0.6011 -0.2103  0.1159
   29CHL1  H21A 2125   4.463   5.695   7.263 -0.2898 -2.0427  1.6234
   29CHL1  H21B 2126   4.456   5.694   7.080 -0.7314  0.8684  0.4531
   29CHL1  H21C 2127   4.497   5.545   7.176 -1.6183 -1.7382  0.5529
   29CHL1   C22 2128   4.235   5.572   7.317 -0.4417 -0.0545  0.4976
   29CHL1  H22A 2129   4.128   5.540   7.317  0.3267 -2.7607  0.4409
   29CHL1  H22B 2130   4.294   5.485   7.351  1.0084  0.6615 -0.1228
   29CHL1   C23 2131   4.243   5.686   7.417 -0.6822  0.0315  0.3100
   29CHL1  H23A 2132   4.346   5.724   7.432 -0.8544  1.1988 -1.3156
   29CHL1  H23B 2133   4.194   5.774   7.370 -1.3769  0.6291  2.0976
   29CHL1   C24 2134   4.175   5.650   7.551  0.5866 -0.3001 -0.0857
   29CHL1  H24A 2135   4.065   5.637   7.537  0.7557 -2.2982  0.3129
   29CHL1  H24B 2136   4.209   5.547   7.577 -2.5687 -0.6854  2.8977
   29CHL1   C25 2137   4.203   5.748   7.664 -0.1339  0.1317 -0.4941
   29CHL1   H25 2138   4.310   5.744   7.694 -0.5267  3.2034  1.5085
   29CHL1   C26 2139   4.180   5.890   7.609  0.3244  0.3821 -0.2674
   29CHL1  H26A 2140   4.249   5.918   7.526  1.7781  0.1040  0.8253
   29CHL1  H26B 2141   4.075   5.903   7.576  0.4017  2.5289  0.2308
   29CHL1  H26C 2142   4.200   5.970   7.684 -1.6013  1.2819 -0.6900
   29CHL1   C27 2143   4.113   5.735   7.784 -0.2045  0.2433 -0.2878
   29CHL1  H27A 2144   4.011   5.702   7.756  0.8957 -2.2701 -1.4623
   29CHL1  H27B 2145   4.151   5.664   7.861 -0.3893  0.4217 -0.0318
   29CHL1  H27C 2146   4.094   5.827   7.843 -2.0739  0.2445 -0.8465
   30CHL1    C3 2147   2.576   2.145   6.229  0.0160  0.3280  0.0736
   30CHL1    H3 2148   2.567   2.228   6.156 -1.3908 -1.4943 -1.9021
   30CHL1    O3 2149   2.591   2.035   6.144  0.5902 -0.7988 -0.1650
   30CHL1   H3' 2150   2.573   1.959   6.200  0.2968  1.8785  3.5505
   30CHL1    C4 2151   2.703   2.140   6.307 -0.4409  0.1602  0.7170
   30CHL1   H4A 2152   2.716   2.042   6.358  1.5159 -0.1026 -0.2311
   30CHL1   H4B 2153   2.792   2.140   6.241 -0.7201 -0.5690  0.3381
   30CHL1    C5 2154   2.713   2.242   6.409 -0.7930  0.1117 -0.1833
   30CHL1    C6 2155   2.822   2.326   6.422 -0.0446  0.0576 -0.1425
   30CHL1    H6 2156   2.903   2.322   6.348  1.4542 -1.1032  1.5276
   30CHL1    C7 2157   2.825   2.428   6.539  0.1507 -0.0869 -0.4489
   30CHL1   H7A 2158   2.929   2.443   6.575 -0.3714  2.9288 -0.0555
   30CHL1   H7B 2159   2.815   2.529   6.493  2.4225 -0.0371 -0.9187
   30CHL1    C8 2160   2.734   2.391   6.660  0.4569  0.6121  0.2740
   30CHL1    H8 2161   2.769   2.294   6.702  2.5991  1.3367  0.2228
   30CHL1   C14 2162   2.722   2.502   6.764  0.2151  0.8118 -0.6727
   30CHL1   H14 2163   2.701   2.597   6.711 -0.4177  1.4591  0.6988
   30CHL1   C15 2164   2.853   2.533   6.831  0.1189  0.2625  0.4200
   30CHL1  H15A 2165   2.903   2.437   6.855 -0.8960 -0.0975  1.1069
   30CHL1  H15B 2166   2.917   2.591   6.761 -1.1553 -0.0492 -1.0146
   30CHL1   C16 2167   2.823   2.602   6.964 -0.2147 -0.5593 -0.2343
   30CHL1  H16A 2168   2.864   2.550   7.053 -1.6922 -1.0381  0.1666
   30CHL1  H16B 2169   2.856   2.708   6.975 -0.9622 -0.3616  0.1254
   30CHL1   C17 2170   2.665   2.603   6.970  0.3487  0.1939 -0.1975
   30CHL1   H17 2171   2.630   2.701   6.931 -1.6960 -0.0793  0.9115
   30CHL1   C13 2172   2.618   2.485   6.882  0.4794  1.2035  0.4572
   30CHL1   C18 2173   2.641   2.356   6.958  0.0050  0.1907 -0.7289
   30CHL1  H18A 2174   2.570   2.334   7.040  1.3643  2.8341  1.2549
   30CHL1  H18B 2175   2.625   2.277   6.882  0.4099  1.6470 -2.3706
   30CHL1  H18C 2176   2.740   2.353   7.008 -1.8522 -2.2856  3.0341
   30CHL1   C12 2177   2.483   2.488   6.818 -0.8216  0.0054  0.0099
   30CHL1  H12A 2178   2.402   2.483   6.893  1.4397  0.8763  2.5810
   30CHL1  H12B 2179   2.475   2.580   6.757 -0.5675 -1.2438 -1.9547
   30CHL1   C11 2180   2.470   2.371   6.709 -0.8414 -0.0542 -0.3137
   30CHL1  H11A 2181   2.455   2.277   6.765 -4.8917  1.4020  1.2076
   30CHL1  H11B 2182   2.374   2.393   6.658 -0.7032  0.5240 -0.3359
   30CHL1    C9 2183   2.590   2.373   6.605  0.0167  0.3709  0.9996
   30CHL1    H9 2184   2.584   2.467   6.546  0.0893  1.1201  2.1606
   30CHL1   C10 2185   2.584   2.246   6.504 -0.0567 -0.5759 -0.3697
   30CHL1   C19 2186   2.592   2.116   6.589 -0.3722 -0.3312  0.8728
   30CHL1  H19A 2187   2.502   2.099   6.652 -2.2477  3.2227 -0.6918
   30CHL1  H19B 2188   2.583   2.028   6.522  0.9028  1.0434 -1.1498
   30CHL1  H19C 2189   2.673   2.111   6.665 -0.5643 -0.5449  1.0663
   30CHL1    C1 2190   2.452   2.243   6.419 -0.2871 -0.0800 -0.3466
   30CHL1   H1A 2191   2.373   2.217   6.493  0.5238  1.8771  1.2563
   30CHL1   H1B 2192   2.449   2.346   6.379  2.5762  0.9735  1.9933
   30CHL1    C2 2193   2.448   2.130   6.308  1.3283 -0.1809 -0.3122
   30CHL1   H2A 2194   2.373   2.143   6.227  0.1312  0.9462  0.9482
   30CHL1   H2B 2195   2.430   2.026   6.342 -0.9620 -0.0060 -0.9271
   30CHL1   C20 2196   2.602   2.595   7.111  0.6016  0.6284  0.3347
   30CHL1   H20 2197   2.494   2.580   7.091  0.5726  3.8055 -2.3713
   30CHL1   C21 2198   2.596   2.741   7.172 -0.4021  0.2703 -0.3955
   30CHL1  H21A 2199   2.698   2.785   7.161  0.2036 -0.6812  1.3046
   30CHL1  H21B 2200   2.562   2.749   7.277  0.9328  2.3756 -0.0826
   30CHL1  H21C 2201   2.533   2.805   7.107  1.3717  0.5573 -1.8995
   30CHL1   C22 2202   2.659   2.508   7.223 -0.6716  0.2002  0.8212
   30CHL1  H22A 2203   2.720   2.423   7.184  0.8719  1.2914  0.8218
   30CHL1  H22B 2204   2.728   2.571   7.283 -0.6412  0.1433  0.8457
   30CHL1   C23 2205   2.549   2.437   7.305 -0.1221  0.0828  0.0605
   30CHL1  H23A 2206   2.467   2.408   7.236  1.1161 -2.7464 -0.2869
   30CHL1  H23B 2207   2.591   2.350   7.359 -0.0144 -0.3045 -0.6330
   30CHL1   C24 2208   2.482   2.516   7.417 -0.1078 -0.4740  0.4898
   30CHL1  H24A 2209   2.565   2.554   7.481  1.3997 -2.1971 -0.4080
   30CHL1  H24B 2210   2.438   2.613   7.384  2.6720  0.0101 -2.0595
   30CHL1   C25 2211   2.388   2.426   7.498 -0.2422 -0.0748  0.5195
   30CHL1   H25 2212   2.299   2.388   7.444  0.6058 -1.1908 -0.1103
   30CHL1   C26 2213   2.464   2.306   7.570 -0.8812  0.2917 -0.2507
   30CHL1  H26A 2214   2.543   2.361   7.626 -1.6277 -1.5228  2.6702
   30CHL1  H26B 2215   2.389   2.265   7.640  1.1704  0.9972  2.4174
   30CHL1  H26C 2216   2.510   2.232   7.501 -0.9636  0.2149 -0.2241
   30CHL1   C27 2217   2.308   2.518   7.591 -0.1570 -0.3113  0.3915
   30CHL1  H27A 2218   2.240   2.578   7.526  0.7503 -1.6169 -1.8063
   30CHL1  H27B 2219   2.252   2.459   7.667 -1.9179 -1.4300 -1.7304
   30CHL1  H27C 2220   2.370   2.587   7.652 -1.7098  2.4194 -1.0038
   31CHL1    C3 2221   2.934   4.852   6.254  0.4092 -0.0849  0.8603
   31CHL1    H3 2222   2.945   4.743   6.238  0.3990  0.1923 -1.2330
   31CHL1    O3 2223   2.963   4.920   6.128  0.1888  0.3497 -0.4997
   31CHL1   H3' 2224   2.991   5.008   6.156  1.5156 -1.1264  3.0404
   31CHL1    C4 2225   2.779   4.861   6.290 -0.6226  0.0411 -0.3446
   31CHL1   H4A 2226   2.751   4.968   6.289 -0.8290 -0.0134 -0.6189
   31CHL1   H4B 2227   2.723   4.802   6.214 -2.9487 -2.8627  3.4264
   31CHL1    C5 2228   2.763   4.804   6.428 -0.5132  0.1197  0.4769
   31CHL1    C6 2229   2.673   4.710   6.454  0.4432  0.3461  0.3564
   31CHL1    H6 2230   2.618   4.662   6.372  1.8479  1.5851 -1.3483
   31CHL1    C7 2231   2.632   4.662   6.591 -0.3139 -0.2625  0.2975
   31CHL1   H7A 2232   2.521   4.661   6.598 -0.3723 -0.6887 -0.6631
   31CHL1   H7B 2233   2.683   4.571   6.629  3.0978  2.8505  3.5553
   31CHL1    C8 2234   2.676   4.764   6.704 -0.3268 -0.5637 -0.4168
   31CHL1    H8 2235   2.604   4.848   6.699  0.6541  0.3434  0.3906
   31CHL1   C14 2236   2.669   4.702   6.838  0.2577  0.4681  0.2324
   31CHL1   H14 2237   2.751   4.628   6.833  0.5918  0.7710  1.2071
   31CHL1   C15 2238   2.538   4.636   6.880 -0.8003 -0.0461  0.3317
   31CHL1  H15A 2239   2.439   4.671   6.844 -0.4476  0.5326 -0.0774
   31CHL1  H15B 2240   2.538   4.531   6.845 -0.2398 -0.4413  1.4998
   31CHL1   C16 2241   2.536   4.626   7.034  0.0580 -0.4249 -0.3429
   31CHL1  H16A 2242   2.442   4.678   7.062  1.4966  2.7803 -1.2226
   31CHL1  H16B 2243   2.527   4.521   7.070 -1.5699 -0.1226  0.1494
   31CHL1   C17 2244   2.672   4.690   7.069  0.5629 -0.1438  1.0810
   31CHL1   H17 2245   2.749   4.612   7.052  1.1062  0.8711 -1.3869
   31CHL1   C13 2246   2.707   4.790   6.956  0.2242  0.3239 -0.4003
   31CHL1   C18 2247   2.617   4.915   6.963 -0.0493 -0.4210 -0.1463
   31CHL1  H18A 2248   2.628   4.987   6.879 -1.3805  0.4535  0.4198
   31CHL1  H18B 2249   2.510   4.897   6.983 -0.1575  0.2338 -0.1214
   31CHL1  H18C 2250   2.658   4.981   7.043 -0.6904 -1.6186  1.1903
   31CHL1   C12 2251   2.858   4.828   6.940  0.0578  0.2862 -1.0480
   31CHL1  H12A 2252   2.881   4.910   7.010 -1.3789  0.3333 -0.6248
   31CHL1  H12B 2253   2.926   4.742   6.959  2.4117  2.1900 -0.6408
   31CHL1   C11 2254   2.878   4.883   6.800 -0.3951 -0.4674  0.3790
   31CHL1  H11A 2255   2.839   4.987   6.806  0.0207 -0.2466 -0.6052
   31CHL1  H11B 2256   2.983   4.906   6.771 -1.0226  2.5776  0.3232
   31CHL1    C9 2257   2.821   4.808   6.675  0.1446 -0.6810  0.0954
   31CHL1    H9 2258   2.868   4.708   6.665  0.4092 -0.5830  0.3594
   31CHL1   C10 2259   2.848   4.874   6.538 -0.4657  0.5753 -0.9845
   31CHL1   C19 2260   2.803   5.026   6.543  0.5993 -0.1943  0.4759
   31CHL1  H19A 2261   2.870   5.080   6.613  1.0643  0.9673 -0.8227
   31CHL1  H19B 2262   2.805   5.074   6.442  1.9452  0.8964  1.0111
   31CHL1  H19C 2263   2.700   5.035   6.585  0.0095 -0.0682 -0.9634
   31CHL1    C1 2264   2.996   4.863   6.494  0.1969 -0.0865  0.4708
   31CHL1   H1A 2265   3.058   4.931   6.557  0.4747 -1.0142  1.1976
   31CHL1   H1B 2266   3.024   4.761   6.528 -3.9316 -1.0676  1.1325
   31CHL1    C2 2267   3.029   4.907   6.356  0.4653  0.2323  0.4575
   31CHL1   H2A 2268   3.133   4.870   6.344 -0.6453 -2.7392 -0.7014
   31CHL1   H2B 2269   3.020   5.016   6.374 -2.5289  0.1609 -0.2638
   31CHL1   C20 2270   2.687   4.726   7.217  0.0363 -0.9420 -0.3372
   31CHL1   H20 2271   2.762   4.808   7.222  1.2555 -2.0773  0.0733
   31CHL1   C21 2272   2.734   4.599   7.280 -0.3215  0.1106 -0.0710
   31CHL1  H21A 2273   2.700   4.585   7.384 -1.4448  0.8351 -0.3329
   31CHL1  H21B 2274   2.845   4.590   7.275 -0.3876 -1.5361  1.2057
   31CHL1  H21C 2275   2.684   4.512   7.233  2.5082 -0.5772 -1.9890
   31CHL1   C22 2276   2.565   4.779   7.293 -0.7414  0.1292  0.7159
   31CHL1  H22A 2277   2.508   4.851   7.232  1.2028  1.1795  0.0846
   31CHL1  H22B 2278   2.491   4.699   7.317 -1.1830  0.3562  0.1168
   31CHL1   C23 2279   2.600   4.870   7.416  0.7052  0.0804 -0.2926
   31CHL1  H23A 2280   2.681   4.834   7.484  2.1694  0.1006 -1.9796
   31CHL1  H23B 2281   2.633   4.966   7.370 -0.0462  0.7814  0.6229
   31CHL1   C24 2282   2.481   4.908   7.506 -0.8655 -0.5714 -0.5767
   31CHL1  H24A 2283   2.521   4.986   7.574 -1.8907 -1.2695  0.8512
   31CHL1  H24B 2284   2.399   4.960   7.453 -0.3205  0.0997 -0.7687
   31CHL1   C25 2285   2.420   4.786   7.580  0.1328  0.8087  0.5838
   31CHL1   H25 2286   2.413   4.702   7.508  1.0051  1.5966 -0.4516
   31CHL1   C26 2287   2.526   4.745   7.685  0.4841 -0.3148 -0.8706
   31CHL1  H26A 2288   2.501   4.655   7.744 -0.4618  0.2876 -0.3375
   31CHL1  H26B 2289   2.627   4.737   7.638 -0.1813 -1.0602 -2.1867
   31CHL1  H26C 2290   2.533   4.833   7.753 -0.9953 -0.8861  0.0392
   31CHL1   C27 2291   2.289   4.821   7.633  0.2638 -0.2667  0.2742
   31CHL1  H27A 2292   2.313   4.905   7.700 -0.8496 -1.8380  2.6958
   31CHL1  H27B 2293   2.254   4.731   7.688 -2.6407  1.8978  2.0361
   31CHL1  H27C 2294   2.224   4.857   7.551  0.8572 -1.4182 -0.7388
   32CHL1    C3 2295   2.309   3.675   6.297  0.4373 -0.4560  0.2241
   32CHL1    H3 2296   2.415   3.708   6.294  0.9670 -1.8085  2.9335
   32CHL1    O3 2297   2.268   3.632   6.167  0.2089 -0.8565  0.3577
   32CHL1   H3' 2298   2.324   3.555   6.156  0.7776 -0.3935 -0.0618
   32CHL1    C4 2299   2.302   3.545   6.383 -0.0247  0.7418 -0.8617
   32CHL1   H4A 2300   2.195   3.520   6.369 -0.5916  2.8483 -0.5363
   32CHL1   H4B 2301   2.357   3.458   6.342 -0.9314 -0.9896  1.5110
   32CHL1    C5 2302   2.339   3.573   6.529 -0.1722 -0.1443  0.2500
   32CHL1    C6 2303   2.440   3.513   6.590 -0.5775  0.2941  0.4270
   32CHL1    H6 2304   2.504   3.451   6.525 -0.1811 -1.5644  2.5027
   32CHL1    C7 2305   2.469   3.541   6.737 -0.6430  0.5588 -0.5933
   32CHL1   H7A 2306   2.494   3.445   6.787 -0.8033  0.6778 -0.2856
   32CHL1   H7B 2307   2.555   3.609   6.751  0.1151 -0.6749  0.7539
   32CHL1    C8 2308   2.357   3.607   6.823  0.0528 -0.0764 -0.1328
   32CHL1    H8 2309   2.273   3.539   6.850 -0.9034  1.1498  0.0311
   32CHL1   C14 2310   2.405   3.662   6.957 -0.1068 -0.5797 -0.0635
   32CHL1   H14 2311   2.476   3.745   6.939 -1.0092 -0.1520 -1.7393
   32CHL1   C15 2312   2.483   3.565   7.042 -0.3359 -0.5343 -0.1192
   32CHL1  H15A 2313   2.431   3.467   7.045  2.0354 -1.9256 -2.1109
   32CHL1  H15B 2314   2.590   3.545   7.019 -0.1975  1.0514 -0.9383
   32CHL1   C16 2315   2.478   3.627   7.182 -0.1589 -0.0172  0.0610
   32CHL1  H16A 2316   2.433   3.559   7.257 -1.6350  1.3156  0.4060
   32CHL1  H16B 2317   2.575   3.664   7.222  0.5246 -3.0022  1.2798
   32CHL1   C17 2318   2.385   3.752   7.164 -0.2460  0.1163  0.1485
   32CHL1   H17 2319   2.453   3.837   7.140 -0.7059  0.5330  0.2947
   32CHL1   C13 2320   2.300   3.729   7.046 -0.6065 -0.2513 -0.0571
   32CHL1   C18 2321   2.183   3.637   7.085  0.6578  0.1914 -0.8625
   32CHL1  H18A 2322   2.106   3.682   7.151 -0.0052 -4.3037  1.6356
   32CHL1  H18B 2323   2.126   3.603   6.995  0.9045  0.7058 -1.2153
   32CHL1  H18C 2324   2.225   3.548   7.136  0.7812  0.0037 -1.2923
   32CHL1   C12 2325   2.244   3.841   6.965  0.3107  0.3305 -0.9479
   32CHL1  H12A 2326   2.159   3.886   7.022  2.1121 -0.3808  2.4308
   32CHL1  H12B 2327   2.326   3.915   6.956 -0.4224  1.2961  0.0518
   32CHL1   C11 2328   2.194   3.789   6.831  0.3034  0.2949 -0.1330
   32CHL1  H11A 2329   2.114   3.714   6.845 -0.0340  0.5765 -0.5449
   32CHL1  H11B 2330   2.145   3.876   6.782  2.8725  1.9483  0.1364
   32CHL1    C9 2331   2.300   3.722   6.742 -0.2742  0.2394 -0.0704
   32CHL1    H9 2332   2.378   3.799   6.722 -0.9688  0.4035 -2.2464
   32CHL1   C10 2333   2.254   3.681   6.596  0.2813  0.0567  0.1769
   32CHL1   C19 2334   2.104   3.622   6.603 -0.6687 -0.0446  0.0446
   32CHL1  H19A 2335   2.065   3.592   6.503 -1.3207 -2.1280  0.9004
   32CHL1  H19B 2336   2.098   3.534   6.671  0.5421  0.0843  0.3303
   32CHL1  H19C 2337   2.037   3.702   6.641 -1.2008 -0.6843  0.4576
   32CHL1    C1 2338   2.239   3.809   6.507  0.2817 -1.1568 -0.5190
   32CHL1   H1A 2339   2.164   3.884   6.539  2.4016  0.4644  0.7856
   32CHL1   H1B 2340   2.333   3.868   6.506 -0.6145  0.4531  2.8843
   32CHL1    C2 2341   2.220   3.783   6.352 -0.1788 -0.3383 -0.4387
   32CHL1   H2A 2342   2.243   3.877   6.297  1.2824 -1.3606 -1.6157
   32CHL1   H2B 2343   2.114   3.763   6.325 -0.6241  0.9739  0.2939
   32CHL1   C20 2344   2.326   3.803   7.291 -0.3435  1.0436 -0.4612
   32CHL1   H20 2345   2.244   3.734   7.319 -0.8949  1.2622 -1.4939
   32CHL1   C21 2346   2.266   3.940   7.288 -0.7986  0.7940 -0.0679
   32CHL1  H21A 2347   2.192   3.953   7.207 -0.7624  1.7051  0.0310
   32CHL1  H21B 2348   2.341   4.020   7.269  0.6554 -0.1617  1.5175
   32CHL1  H21C 2349   2.214   3.956   7.385  0.4548 -2.2497  1.1664
   32CHL1   C22 2350   2.429   3.794   7.417 -0.7522 -0.6624 -0.2885
   32CHL1  H22A 2351   2.466   3.689   7.417 -1.1669 -0.8100  0.9460
   32CHL1  H22B 2352   2.511   3.868   7.404 -0.1240 -1.2602  0.1947
   32CHL1   C23 2353   2.360   3.827   7.549 -0.4422  0.3317 -0.3363
   32CHL1  H23A 2354   2.332   3.934   7.556  1.5464  0.7619  1.5687
   32CHL1  H23B 2355   2.260   3.779   7.562 -0.1758 -1.1927 -3.4035
   32CHL1   C24 2356   2.457   3.807   7.664 -0.9052  0.9205 -0.0825
   32CHL1  H24A 2357   2.547   3.866   7.637 -0.9813  2.3058  2.6173
   32CHL1  H24B 2358   2.413   3.857   7.753  2.6350  1.3229  1.5020
   32CHL1   C25 2359   2.496   3.667   7.703 -0.6984  0.4380  0.3178
   32CHL1   H25 2360   2.547   3.622   7.615  1.6338 -1.3801  2.4956
   32CHL1   C26 2361   2.602   3.666   7.816  0.4383  0.2329 -0.3090
   32CHL1  H26A 2362   2.566   3.728   7.901 -1.5018 -0.8944 -0.2782
   32CHL1  H26B 2363   2.616   3.561   7.851 -0.3202  1.2880  3.3805
   32CHL1  H26C 2364   2.696   3.698   7.766 -0.0105 -1.0615 -2.0422
   32CHL1   C27 2365   2.379   3.573   7.742 -0.0387 -0.8766  0.0607
   32CHL1  H27A 2366   2.296   3.579   7.668 -0.5611  0.2569  0.7090
   32CHL1  H27B 2367   2.409   3.467   7.755  2.2005 -0.1928  0.7974
   32CHL1  H27C 2368   2.340   3.603   7.842 -0.3251 -3.5008  0.7652
   33CHL1    C3 2369   5.485   3.634   6.298 -0.8776 -0.0042 -0.0474
   33CHL1    H3 2370   5.527   3.719   6.358 -0.7535 -2.4212  3.4374
   33CHL1    O3 2371   5.476   3.674   6.163  0.1382 -0.1691  0.1393
   33CHL1   H3' 2372   5.560   3.713   6.138  0.4748  1.0087  2.9618
   33CHL1    C4 2373   5.562   3.500   6.316  0.1513  0.0238 -0.1192
   33CHL1   H4A 2374   5.497   3.429   6.261  0.8991  0.0989 -1.1099
   33CHL1   H4B 2375   5.662   3.505   6.267  0.9915 -3.3002  1.1189
   33CHL1    C5 2376   5.571   3.458   6.462 -0.0213  0.2856  0.0614
   33CHL1    C6 2377   5.690   3.431   6.516 -0.5120  0.0013  0.4188
   33CHL1    H6 2378   5.782   3.428   6.457  0.6943 -0.2470  2.2683
   33CHL1    C7 2379   5.700   3.385   6.662  0.3197 -0.4171  0.3526
   33CHL1   H7A 2380   5.757   3.290   6.662  0.9841 -0.0431 -1.5063
   33CHL1   H7B 2381   5.759   3.460   6.720 -0.8887  2.1219 -1.5682
   33CHL1    C8 2382   5.567   3.354   6.730  0.2582  0.0142  0.2268
   33CHL1    H8 2383   5.548   3.251   6.691 -1.6056  0.1504  0.7491
   33CHL1   C14 2384   5.580   3.357   6.880 -0.0979 -0.7813  0.1080
   33CHL1   H14 2385   5.621   3.460   6.892  0.1224 -0.6265 -1.8627
   33CHL1   C15 2386   5.696   3.277   6.943  0.3106  0.8827  0.1571
   33CHL1  H15A 2387   5.679   3.180   6.892  0.8431 -0.1772  1.9559
   33CHL1  H15B 2388   5.796   3.320   6.918  0.4990 -0.1092 -0.8298
   33CHL1   C16 2389   5.669   3.276   7.087 -0.3080 -0.2860 -0.1485
   33CHL1  H16A 2390   5.656   3.174   7.130 -0.6284  0.6681  2.1200
   33CHL1  H16B 2391   5.752   3.324   7.143  0.6905 -1.7097 -0.3742
   33CHL1   C17 2392   5.535   3.346   7.109  0.1540 -0.9277 -0.2675
   33CHL1   H17 2393   5.566   3.452   7.128  1.0850 -1.4881  1.4464
   33CHL1   C13 2394   5.459   3.335   6.974  0.4503  0.8672 -0.0479
   33CHL1   C18 2395   5.404   3.196   6.938 -0.1845 -0.7603 -0.6774
   33CHL1  H18A 2396   5.391   3.168   6.832 -1.0108 -2.4945 -0.1270
   33CHL1  H18B 2397   5.468   3.110   6.967  0.6699 -0.4318 -1.5531
   33CHL1  H18C 2398   5.305   3.186   6.987  0.7957 -0.1602  1.5294
   33CHL1   C12 2399   5.351   3.439   6.930 -0.1971 -0.4880 -0.5323
   33CHL1  H12A 2400   5.255   3.426   6.985  0.6743 -0.7473  0.9476
   33CHL1  H12B 2401   5.387   3.541   6.953  1.0712 -0.6784 -1.6610
   33CHL1   C11 2402   5.328   3.432   6.778 -0.0200  0.1745  0.3271
   33CHL1  H11A 2403   5.262   3.350   6.743  1.9121 -1.2375 -0.0510
   33CHL1  H11B 2404   5.263   3.515   6.744  1.7557  0.5446 -2.2965
   33CHL1    C9 2405   5.457   3.448   6.693 -0.5412  0.2283  0.1030
   33CHL1    H9 2406   5.494   3.550   6.716 -0.0068  0.1707 -0.4786
   33CHL1   C10 2407   5.442   3.454   6.537 -0.1561  0.4870  0.9764
   33CHL1   C19 2408   5.367   3.322   6.498  0.0053  0.4118  0.0887
   33CHL1  H19A 2409   5.334   3.322   6.392 -0.5547 -0.4664  0.2511
   33CHL1  H19B 2410   5.426   3.228   6.507 -0.2263  0.1876 -0.7212
   33CHL1  H19C 2411   5.267   3.316   6.545 -0.1689  1.7177 -0.0914
   33CHL1    C1 2412   5.343   3.574   6.492 -0.7079  0.4750  0.2759
   33CHL1   H1A 2413   5.239   3.549   6.520 -0.4307 -1.7707 -0.5670
   33CHL1   H1B 2414   5.373   3.661   6.555  1.3590 -0.0328  0.0323
   33CHL1    C2 2415   5.348   3.611   6.344  0.3297  0.4143 -0.4913
   33CHL1   H2A 2416   5.290   3.704   6.325  2.0764  1.6853  0.2201
   33CHL1   H2B 2417   5.304   3.529   6.283 -1.8636  0.9150  0.3690
   33CHL1   C20 2418   5.456   3.280   7.230 -0.3474  0.1486 -0.1772
   33CHL1   H20 2419   5.414   3.184   7.192 -2.7894  0.4798  1.5466
   33CHL1   C21 2420   5.334   3.360   7.262 -1.0356 -0.4270 -0.1460
   33CHL1  H21A 2421   5.363   3.466   7.279  1.1519 -0.7015 -1.9333
   33CHL1  H21B 2422   5.282   3.326   7.354  0.4861 -2.2381  0.0806
   33CHL1  H21C 2423   5.262   3.359   7.177  0.3717  0.5932 -1.3705
   33CHL1   C22 2424   5.545   3.257   7.356  0.3748  0.5840 -0.2715
   33CHL1  H22A 2425   5.646   3.217   7.333  0.3962  1.5283 -1.8801
   33CHL1  H22B 2426   5.570   3.356   7.401 -0.5986  0.5844  0.2881
   33CHL1   C23 2427   5.480   3.169   7.458 -1.4781 -0.2352  0.0990
   33CHL1  H23A 2428   5.401   3.232   7.504 -1.8561  0.7550 -1.8539
   33CHL1  H23B 2429   5.443   3.074   7.414  0.6295 -0.9661 -0.1416
   33CHL1   C24 2430   5.575   3.117   7.565  0.0447 -0.3743  0.2811
   33CHL1  H24A 2431   5.652   3.047   7.528 -0.5578  0.4297 -2.6149
   33CHL1  H24B 2432   5.626   3.204   7.612 -0.2433 -0.3385  0.5309
   33CHL1   C25 2433   5.507   3.030   7.673  0.9758 -0.2033 -0.1649
   33CHL1   H25 2434   5.455   2.950   7.614  3.0154  0.7265 -3.3188
   33CHL1   C26 2435   5.613   2.970   7.764 -0.2524 -0.0230 -1.0351
   33CHL1  H26A 2436   5.685   2.901   7.716  0.2499 -0.6356  0.5595
   33CHL1  H26B 2437   5.651   3.048   7.834 -2.2321 -1.9320  2.2783
   33CHL1  H26C 2438   5.560   2.909   7.840  0.0127  1.0380  0.0365
   33CHL1   C27 2439   5.389   3.098   7.751 -0.4459  0.2168 -0.3162
   33CHL1  H27A 2440   5.305   3.121   7.683 -2.6302 -1.5261  1.7025
   33CHL1  H27B 2441   5.349   3.028   7.828  1.4746 -0.1805  0.3429
   33CHL1  H27C 2442   5.424   3.190   7.803 -0.7271  0.4257 -0.4959
   34CHL1    C3 2443   4.966   2.146   6.238 -0.6644  0.0467  0.0280
   34CHL1    H3 2444   4.882   2.216   6.259  1.6739  2.6158  1.2612
   34CHL1    O3 2445   4.971   2.129   6.103 -0.1128  0.3596  0.2484
   34CHL1   H3' 2446   4.918   2.052   6.078  0.3565  0.0018  0.3475
   34CHL1    C4 2447   5.098   2.208   6.298 -0.0908 -0.5340  0.3074
   34CHL1   H4A 2448   5.190   2.150   6.277 -0.2058 -0.8292  0.6327
   34CHL1   H4B 2449   5.116   2.298   6.235  2.1694 -2.1096 -1.3873
   34CHL1    C5 2450   5.095   2.238   6.444 -0.4399 -0.1602 -0.8987
   34CHL1    C6 2451   5.109   2.367   6.482 -0.0004  0.6475  0.7478
   34CHL1    H6 2452   5.120   2.439   6.400 -2.2007 -0.5972 -0.6660
   34CHL1    C7 2453   5.096   2.409   6.623  0.2579 -0.6310 -0.4516
   34CHL1   H7A 2454   5.178   2.474   6.661 -1.5421  0.6595  1.3050
   34CHL1   H7B 2455   5.004   2.469   6.641 -0.0519 -1.4957  0.8975
   34CHL1    C8 2456   5.105   2.279   6.715  0.3602  0.0837 -0.2258
   34CHL1    H8 2457   5.211   2.247   6.712  0.5704  0.6864  0.9158
   34CHL1   C14 2458   5.060   2.312   6.856  0.1059 -0.6229  0.4179
   34CHL1   H14 2459   4.952   2.336   6.850  0.1830  0.2626  2.2251
   34CHL1   C15 2460   5.130   2.435   6.915 -0.0661 -0.6903  0.1374
   34CHL1  H15A 2461   5.239   2.434   6.890  0.2665 -2.3471  1.4794
   34CHL1  H15B 2462   5.082   2.531   6.890 -3.2580 -2.2565  0.0444
   34CHL1   C16 2463   5.122   2.415   7.071 -0.2891  0.4690 -0.0020
   34CHL1  H16A 2464   5.216   2.433   7.127 -0.6737 -1.7987  1.4293
   34CHL1  H16B 2465   5.041   2.484   7.103 -0.6860  0.1100 -0.2224
   34CHL1   C17 2466   5.056   2.269   7.090 -0.4095  0.3416 -0.1526
   34CHL1   H17 2467   4.946   2.284   7.099 -0.8512 -3.0350  0.9952
   34CHL1   C13 2468   5.075   2.197   6.953  0.2638 -0.3538 -0.3996
   34CHL1   C18 2469   5.215   2.150   6.956  0.6847  0.4208  1.1418
   34CHL1  H18A 2470   5.243   2.082   7.039  1.4157 -4.6114 -2.9275
   34CHL1  H18B 2471   5.256   2.105   6.863  2.0636 -0.1211  1.9923
   34CHL1  H18C 2472   5.274   2.243   6.972 -0.1915  1.4081 -1.1063
   34CHL1   C12 2473   4.978   2.090   6.909  0.0841  0.1120 -0.7313
   34CHL1  H12A 2474   4.997   2.004   6.977  1.8609  0.0494 -1.2803
   34CHL1  H12B 2475   4.876   2.133   6.915  0.2902  0.3069  1.5457
   34CHL1   C11 2476   5.007   2.039   6.765 -0.0262 -1.0077 -0.2263
   34CHL1  H11A 2477   5.096   1.973   6.765  0.8142  0.0883  0.4604
   34CHL1  H11B 2478   4.916   1.979   6.747 -1.3003  1.3648 -1.9924
   34CHL1    C9 2479   5.013   2.161   6.663 -0.6281  0.0500  0.1959
   34CHL1    H9 2480   4.912   2.206   6.660  0.0933  1.7473  0.4659
   34CHL1   C10 2481   5.056   2.116   6.521  0.0861 -0.3801 -0.8174
   34CHL1   C19 2482   5.184   2.026   6.528  0.2644 -0.6219 -0.1241
   34CHL1  H19A 2483   5.219   1.991   6.428  1.9177 -1.3613  0.7008
   34CHL1  H19B 2484   5.263   2.079   6.584 -0.5522 -0.1826  0.6320
   34CHL1  H19C 2485   5.151   1.932   6.576 -0.3993  0.0567  0.7699
   34CHL1    C1 2486   4.936   2.034   6.461 -0.0612  0.1787 -0.0046
   34CHL1   H1A 2487   4.922   1.937   6.515  1.6312  1.2459  2.4862
   34CHL1   H1B 2488   4.849   2.101   6.478  0.5600  1.2213 -0.9185
   34CHL1    C2 2489   4.941   2.015   6.309 -0.0578 -0.8653  0.1526
   34CHL1   H2A 2490   4.848   1.969   6.268 -0.9334  1.2846 -0.3396
   34CHL1   H2B 2491   5.013   1.936   6.279 -1.1420 -1.2551 -1.5083
   34CHL1   C20 2492   5.089   2.194   7.223  0.2144 -0.2534  0.4588
   34CHL1   H20 2493   5.170   2.121   7.200 -0.1357 -0.2411 -0.8570
   34CHL1   C21 2494   4.967   2.109   7.265  0.4354  0.1356  0.1524
   34CHL1  H21A 2495   4.912   2.060   7.181 -1.5217  0.8146  0.9950
   34CHL1  H21B 2496   4.888   2.176   7.307 -0.1954 -0.2707 -0.3726
   34CHL1  H21C 2497   5.003   2.026   7.330  0.1842 -0.7641 -0.8339
   34CHL1   C22 2498   5.135   2.290   7.339 -0.3168 -0.9106  0.1542
   34CHL1  H22A 2499   5.235   2.332   7.316 -0.2157 -0.1950  1.7728
   34CHL1  H22B 2500   5.065   2.375   7.358  1.0911 -0.1030  1.8467
   34CHL1   C23 2501   5.148   2.218   7.468 -0.1581 -0.3343  0.2084
   34CHL1  H23A 2502   5.046   2.191   7.500 -0.1928 -0.1687  0.2383
   34CHL1  H23B 2503   5.197   2.119   7.458  0.2620 -0.0858 -0.2374
   34CHL1   C24 2504   5.202   2.305   7.576  0.2323  0.3035 -0.4939
   34CHL1  H24A 2505   5.297   2.343   7.531 -0.2159  0.3263 -1.4183
   34CHL1  H24B 2506   5.131   2.386   7.602  2.4108  1.8979  0.6896
   34CHL1   C25 2507   5.236   2.232   7.712 -0.1664  0.2732 -0.2012
   34CHL1   H25 2508   5.300   2.143   7.692 -0.6614 -0.2220  0.3859
   34CHL1   C26 2509   5.302   2.328   7.810 -0.2818  0.3115  0.1209
   34CHL1  H26A 2510   5.372   2.274   7.877  1.5692  1.0303 -1.2043
   34CHL1  H26B 2511   5.377   2.393   7.760  0.0833 -0.5184 -0.4269
   34CHL1  H26C 2512   5.228   2.388   7.868 -0.4215  0.6249 -0.3830
   34CHL1   C27 2513   5.108   2.185   7.785  0.0352 -1.1359  0.4801
   34CHL1  H27A 2514   5.045   2.127   7.715 -1.1616  1.8654 -1.0330
   34CHL1  H27B 2515   5.132   2.126   7.876  1.7602 -2.7833 -0.9894
   34CHL1  H27C 2516   5.058   2.279   7.815  0.9670 -0.1242 -1.0773
   35CHL1    C3 2517   1.848   4.606   6.349 -0.0974 -0.1358  0.2054
   35CHL1    H3 2518   1.927   4.682   6.331 -2.1190  1.6374 -1.4473
   35CHL1    O3 2519   1.769   4.612   6.231  0.6551  0.1645 -0.1091
   35CHL1   H3' 2520   1.694   4.653   6.276  0.7873 -0.1462  0.3993
   35CHL1    C4 2521   1.902   4.469   6.376  0.0783 -0.4170  0.3805
   35CHL1   H4A 2522   1.818   4.397   6.380 -0.1206 -0.2515 -0.8857
   35CHL1   H4B 2523   1.968   4.438   6.293  1.6698  2.1026  0.6516
   35CHL1    C5 2524   1.971   4.450   6.510  0.8256 -0.1465  0.6971
   35CHL1    C6 2525   2.095   4.404   6.519  0.4401  0.2937  0.5913
   35CHL1    H6 2526   2.136   4.364   6.425 -2.6782  0.6335 -0.9664
   35CHL1    C7 2527   2.183   4.382   6.642 -0.4886 -0.5023  1.0634
   35CHL1   H7A 2528   2.230   4.282   6.635  0.3516 -0.0026 -0.5013
   35CHL1   H7B 2529   2.271   4.450   6.636 -0.8230 -0.2164 -0.7913
   35CHL1    C8 2530   2.089   4.397   6.766  0.1667 -0.7299  0.2743
   35CHL1    H8 2531   2.017   4.313   6.773 -0.4950 -0.3407 -1.7182
   35CHL1   C14 2532   2.169   4.412   6.891 -0.2883  0.2157  0.6735
   35CHL1   H14 2533   2.225   4.507   6.878  0.6081 -0.5922 -1.6422
   35CHL1   C15 2534   2.268   4.301   6.933  0.7677 -0.2875  0.0740
   35CHL1  H15A 2535   2.221   4.205   6.903 -1.3287  1.1277 -1.3209
   35CHL1  H15B 2536   2.361   4.315   6.875  0.9996  2.6719  1.0390
   35CHL1   C16 2537   2.293   4.316   7.084  0.2132 -0.4512  0.1802
   35CHL1  H16A 2538   2.257   4.220   7.127  1.1755 -0.4369  1.0159
   35CHL1  H16B 2539   2.397   4.333   7.121  0.4363  0.2098 -0.7353
   35CHL1   C17 2540   2.210   4.435   7.129 -0.2475 -0.0341  0.0602
   35CHL1   H17 2541   2.287   4.511   7.104 -0.8796  0.6823  0.3023
   35CHL1   C13 2542   2.099   4.441   7.022  0.0798 -0.2704 -0.9779
   35CHL1   C18 2543   2.001   4.328   7.065 -0.3922 -0.9097  0.4870
   35CHL1  H18A 2544   2.056   4.248   7.119  1.5329  0.6962  0.9632
   35CHL1  H18B 2545   1.933   4.354   7.148 -2.0219  0.2815 -1.1726
   35CHL1  H18C 2546   1.955   4.287   6.972 -0.3989  1.1758 -0.4562
   35CHL1   C12 2547   2.013   4.570   7.008 -0.1327  0.1062 -0.0380
   35CHL1  H12A 2548   1.957   4.582   7.103  1.2732 -2.5422  1.1704
   35CHL1  H12B 2549   2.073   4.659   6.977 -0.7781  0.2082 -1.0327
   35CHL1   C11 2550   1.915   4.557   6.883 -0.2939  0.1317 -0.2171
   35CHL1  H11A 2551   1.842   4.479   6.913  0.1769 -0.9376 -1.7856
   35CHL1  H11B 2552   1.862   4.654   6.868  0.7338  0.6133 -0.7951
   35CHL1    C9 2553   1.991   4.522   6.755  0.5224 -0.1754  0.3478
   35CHL1    H9 2554   2.043   4.618   6.735  1.5292 -1.0333 -1.2732
   35CHL1   C10 2555   1.897   4.508   6.634 -0.3761  0.1860  0.0650
   35CHL1   C19 2556   1.777   4.410   6.662  0.1767 -0.9871  0.0876
   35CHL1  H19A 2557   1.814   4.306   6.678 -1.5071 -1.6517 -0.2278
   35CHL1  H19B 2558   1.727   4.449   6.753  0.7131  0.5563 -0.2590
   35CHL1  H19C 2559   1.705   4.399   6.579  1.1632 -1.3481 -0.7257
   35CHL1    C1 2560   1.830   4.647   6.606  0.2666  0.7399 -0.0059
   35CHL1   H1A 2561   1.757   4.669   6.687 -1.0713  0.3971 -1.0907
   35CHL1   H1B 2562   1.901   4.732   6.596  0.1091  0.7723 -0.9289
   35CHL1    C2 2563   1.756   4.644   6.467  0.6621  0.0476  0.1068
   35CHL1   H2A 2564   1.706   4.742   6.451  0.5443 -0.5118 -3.2530
   35CHL1   H2B 2565   1.674   4.569   6.471  2.2340 -1.9031 -2.3480
   35CHL1   C20 2566   2.173   4.455   7.277  0.4630 -0.6934 -0.6883
   35CHL1   H20 2567   2.074   4.407   7.295  0.3009 -0.8425 -1.9567
   35CHL1   C21 2568   2.161   4.605   7.298 -0.3516  0.6234 -0.1100
   35CHL1  H21A 2569   2.255   4.656   7.329  1.5701 -1.7111 -1.8874
   35CHL1  H21B 2570   2.092   4.637   7.379 -0.3341  0.7020 -0.1272
   35CHL1  H21C 2571   2.130   4.662   7.208 -0.6417 -0.8105 -0.9375
   35CHL1   C22 2572   2.280   4.390   7.378 -0.8064  0.8269 -0.4265
   35CHL1  H22A 2573   2.294   4.283   7.352 -0.0517  0.9292 -0.4732
   35CHL1  H22B 2574   2.384   4.414   7.345  0.1600 -0.7992  1.3342
   35CHL1   C23 2575   2.251   4.402   7.525 -0.1806 -0.3500 -0.0084
   35CHL1  H23A 2576   2.246   4.504   7.569  0.7969 -0.0451 -0.5731
   35CHL1  H23B 2577   2.164   4.345   7.563  0.7405  0.2054  3.0368
   35CHL1   C24 2578   2.372   4.336   7.597  0.2068 -0.9896  0.0947
   35CHL1  H24A 2579   2.384   4.234   7.554 -2.0705 -0.0980 -2.8387
   35CHL1  H24B 2580   2.467   4.391   7.588 -1.0651  2.0926  4.2728
   35CHL1   C25 2581   2.346   4.283   7.746 -0.4127 -0.8379  0.6986
   35CHL1   H25 2582   2.265   4.207   7.738 -1.3092  0.0419  1.2003
   35CHL1   C26 2583   2.476   4.220   7.794  0.4841 -0.1181  0.0908
   35CHL1  H26A 2584   2.471   4.195   7.902 -1.2629  0.3339  0.1201
   35CHL1  H26B 2585   2.497   4.121   7.749  0.6015 -0.4587  0.8756
   35CHL1  H26C 2586   2.564   4.285   7.771  1.2032 -1.5844 -1.4378
   35CHL1   C27 2587   2.289   4.387   7.839  0.0002  0.9530  0.5018
   35CHL1  H27A 2588   2.363   4.469   7.847 -2.1796  3.1860 -1.2510
   35CHL1  H27B 2589   2.268   4.334   7.935 -1.3421  1.8793  0.7474
   35CHL1  H27C 2590   2.194   4.415   7.788 -0.3437 -2.0873 -0.6839
   36CHL1    C3 2591   1.872   2.395   6.251  0.0361  0.3235 -0.0294
   36CHL1    H3 2592   1.976   2.396   6.211 -0.3218  0.5327 -0.9576
   36CHL1    O3 2593   1.793   2.428   6.143 -0.4388  0.0542 -0.5735
   36CHL1   H3' 2594   1.703   2.419   6.177  0.1385 -0.7734  0.7799
   36CHL1    C4 2595   1.817   2.259   6.297  0.0180 -0.2063 -1.0665
   36CHL1   H4A 2596   1.710   2.250   6.324  0.0950  0.0731 -0.6741
   36CHL1   H4B 2597   1.830   2.197   6.205 -0.3767  1.8316 -2.5451
   36CHL1    C5 2598   1.891   2.200   6.411  0.1900  0.4884 -0.2045
   36CHL1    C6 2599   1.947   2.076   6.399 -0.8981 -0.1913  0.0386
   36CHL1    H6 2600   1.932   2.027   6.301  1.8251  0.2064 -0.6198
   36CHL1    C7 2601   2.028   2.017   6.511  0.3704 -0.4722 -0.0502
   36CHL1   H7A 2602   1.987   1.915   6.527  0.8036 -0.2022  3.0056
   36CHL1   H7B 2603   2.134   2.016   6.479  0.3928  0.5603 -0.0194
   36CHL1    C8 2604   2.016   2.095   6.645  0.7727  0.7152 -0.5718
   36CHL1    H8 2605   1.917   2.064   6.685  0.9055  0.5961 -0.3304
   36CHL1   C14 2606   2.119   2.051   6.751 -0.5423 -0.1607  1.2439
   36CHL1   H14 2607   2.213   2.086   6.705 -0.2811 -1.1411  1.0304
   36CHL1   C15 2608   2.138   1.900   6.772  0.2864 -0.5441 -0.7636
   36CHL1  H15A 2609   2.051   1.832   6.787 -0.7574  1.3058  1.7541
   36CHL1  H15B 2610   2.210   1.858   6.698  0.5632 -1.5128  0.0300
   36CHL1   C16 2611   2.223   1.896   6.904  0.2021  0.0060 -0.4763
   36CHL1  H16A 2612   2.166   1.837   6.978 -2.7132  3.8563  0.4604
   36CHL1  H16B 2613   2.318   1.841   6.882  0.2176  0.9456 -2.9449
   36CHL1   C17 2614   2.237   2.046   6.956  0.5194 -0.7648  0.0852
   36CHL1   H17 2615   2.331   2.096   6.924 -0.2578  1.1091  0.6404
   36CHL1   C13 2616   2.120   2.124   6.888  0.2410  0.1892  0.2698
   36CHL1   C18 2617   1.989   2.090   6.966 -0.1854 -0.0352  0.1299
   36CHL1  H18A 2618   1.976   1.980   6.958  2.7718 -0.3663 -0.5043
   36CHL1  H18B 2619   1.980   2.138   7.066  0.7580  0.9451 -0.2517
   36CHL1  H18C 2620   1.900   2.135   6.918  0.7246 -0.8033 -2.3341
   36CHL1   C12 2621   2.130   2.271   6.856  0.6319 -0.8114 -0.1467
   36CHL1  H12A 2622   2.129   2.333   6.948 -1.2129 -0.9615 -0.0406
   36CHL1  H12B 2623   2.233   2.281   6.814 -0.1173 -0.0037 -1.8724
   36CHL1   C11 2624   2.024   2.327   6.756  0.0512  0.3331 -0.2300
   36CHL1  H11A 2625   1.929   2.322   6.815  1.9654 -2.5102  2.7993
   36CHL1  H11B 2626   2.058   2.432   6.739  0.1372  0.3348 -0.0522
   36CHL1    C9 2627   2.010   2.244   6.629 -0.4467  0.2752  0.0186
   36CHL1    H9 2628   2.104   2.266   6.575 -0.5577  4.7016  1.4477
   36CHL1   C10 2629   1.899   2.297   6.531 -0.6450 -0.2735 -0.1383
   36CHL1   C19 2630   1.763   2.303   6.596 -0.0391 -0.0094 -0.0416
   36CHL1  H19A 2631   1.688   2.343   6.524  0.0396  1.7369  0.8024
   36CHL1  H19B 2632   1.725   2.204   6.628  1.9605 -0.5827  0.6223
   36CHL1  H19C 2633   1.757   2.371   6.684 -0.5095  1.6642 -1.3416
   36CHL1    C1 2634   1.945   2.439   6.483  0.3255 -0.8343  0.2668
   36CHL1   H1A 2635   1.956   2.515   6.564 -2.0376  1.6221 -1.6212
   36CHL1   H1B 2636   2.043   2.418   6.435  0.4311  0.3987 -0.0895
   36CHL1    C2 2637   1.867   2.493   6.362  0.2211 -0.2337 -0.5062
   36CHL1   H2A 2638   1.915   2.587   6.328  0.3072  0.0104  0.2693
   36CHL1   H2B 2639   1.764   2.519   6.396  0.2616 -0.4664 -0.1975
   36CHL1   C20 2640   2.244   2.054   7.113 -0.4428  0.6328 -0.7967
   36CHL1   H20 2641   2.151   2.019   7.162  1.2634 -1.9145  0.7433
   36CHL1   C21 2642   2.262   2.206   7.157 -0.5350  0.6429  0.1734
   36CHL1  H21A 2643   2.330   2.268   7.095  0.4625 -0.0925  0.5210
   36CHL1  H21B 2644   2.282   2.221   7.265 -2.0357  1.1623  0.3838
   36CHL1  H21C 2645   2.167   2.257   7.134 -1.2682 -0.5718  0.4295
   36CHL1   C22 2646   2.362   1.966   7.180 -0.4869  0.2092  0.2605
   36CHL1  H22A 2647   2.368   1.887   7.102 -1.1488  0.2392  0.1779
   36CHL1  H22B 2648   2.464   2.011   7.180 -0.3587 -0.0363  2.5099
   36CHL1   C23 2649   2.340   1.895   7.316 -0.0915 -0.1126 -0.5417
   36CHL1  H23A 2650   2.299   1.973   7.384  0.6254  0.0690 -0.3164
   36CHL1  H23B 2651   2.255   1.824   7.317 -0.0298 -0.2151  3.3255
   36CHL1   C24 2652   2.463   1.822   7.379 -0.1529 -0.0188  0.0207
   36CHL1  H24A 2653   2.524   1.764   7.306 -0.3389 -2.2850  1.6184
   36CHL1  H24B 2654   2.527   1.889   7.439 -0.1849  1.6184 -1.7248
   36CHL1   C25 2655   2.415   1.710   7.476  0.3025  0.3101  0.4969
   36CHL1   H25 2656   2.341   1.754   7.547  0.7260 -0.5816  1.4990
   36CHL1   C26 2657   2.359   1.593   7.397 -0.7670  0.6692  0.7735
   36CHL1  H26A 2658   2.346   1.497   7.450 -0.2434 -0.3530 -0.8963
   36CHL1  H26B 2659   2.257   1.616   7.359 -1.1875 -0.5652  1.1426
   36CHL1  H26C 2660   2.422   1.570   7.308 -2.6910  0.8955 -0.6727
   36CHL1   C27 2661   2.529   1.658   7.560 -0.2292  0.7703 -0.1196
   36CHL1  H27A 2662   2.582   1.748   7.600  1.2095 -1.1754  2.5074
   36CHL1  H27B 2663   2.484   1.588   7.633 -3.1886  0.5969 -2.0216
   36CHL1  H27C 2664   2.603   1.599   7.502  0.4352  1.0581  0.4211
   37CHL1    C3 2665   4.436   5.819   6.281  0.2133  0.2104  0.1318
   37CHL1    H3 2666   4.381   5.724   6.298  1.3992 -0.4651  0.2158
   37CHL1    O3 2667   4.443   5.822   6.139  0.0613  0.0134  0.1189
   37CHL1   H3' 2668   4.506   5.894   6.133 -0.3125  0.4078  0.9013
   37CHL1    C4 2669   4.361   5.943   6.336  0.0127  0.2145  0.6506
   37CHL1   H4A 2670   4.394   6.036   6.285 -1.6917 -0.1231 -1.1432
   37CHL1   H4B 2671   4.254   5.937   6.305 -0.0835 -1.3693  1.2111
   37CHL1    C5 2672   4.373   5.948   6.489 -0.7576 -0.3201 -0.7485
   37CHL1    C6 2673   4.258   5.950   6.563 -0.5348 -0.2276  0.1479
   37CHL1    H6 2674   4.161   5.948   6.512  0.1535 -0.3486 -1.1872
   37CHL1    C7 2675   4.255   5.972   6.711  0.1966  0.2352  0.1586
   37CHL1   H7A 2676   4.182   6.054   6.730  0.5482  0.6673 -0.3288
   37CHL1   H7B 2677   4.213   5.878   6.751  2.0518 -1.0532 -0.8568
   37CHL1    C8 2678   4.395   6.011   6.768  0.0676 -0.0482  0.1882
   37CHL1    H8 2679   4.417   6.114   6.731  0.2384  0.4525  1.6497
   37CHL1   C14 2680   4.384   6.007   6.923 -0.3887 -0.3002  0.0878
   37CHL1   H14 2681   4.364   5.899   6.941  4.1053 -1.2156  0.2129
   37CHL1   C15 2682   4.280   6.094   6.989  0.7383 -0.9074 -0.4362
   37CHL1  H15A 2683   4.285   6.196   6.945 -0.3963  1.0507  3.7699
   37CHL1  H15B 2684   4.179   6.051   6.970  0.2516 -1.5388  3.1718
   37CHL1   C16 2685   4.324   6.102   7.134 -0.4868 -0.2337 -0.2778
   37CHL1  H16A 2686   4.342   6.209   7.156 -0.1336 -0.1373 -1.0121
   37CHL1  H16B 2687   4.243   6.060   7.197 -1.1166  0.3288 -0.7094
   37CHL1   C17 2688   4.460   6.031   7.149  0.2781  0.0674 -0.0961
   37CHL1   H17 2689   4.439   5.926   7.177  1.6546 -0.0142  0.6808
   37CHL1   C13 2690   4.512   6.034   6.997 -0.6149  0.0347 -0.3377
   37CHL1   C18 2691   4.562   6.170   6.959 -0.1053  0.0648  0.2005
   37CHL1  H18A 2692   4.500   6.251   7.004  0.3507  0.0881  0.7968
   37CHL1  H18B 2693   4.668   6.186   6.989  0.4706 -2.9802  0.0149
   37CHL1  H18C 2694   4.558   6.192   6.851 -1.6953  0.9364  0.4204
   37CHL1   C12 2695   4.615   5.922   6.949 -0.2534  0.4958 -0.1783
   37CHL1  H12A 2696   4.717   5.931   6.990 -1.0695 -0.0929  2.0802
   37CHL1  H12B 2697   4.574   5.824   6.980  1.2808  0.4812  1.8822
   37CHL1   C11 2698   4.629   5.921   6.799 -0.3661  0.3711 -0.5307
   37CHL1  H11A 2699   4.693   6.005   6.763  0.6916 -0.4133 -0.5250
   37CHL1  H11B 2700   4.691   5.829   6.786 -1.0726 -0.4097  1.4043
   37CHL1    C9 2701   4.497   5.912   6.715  0.3997 -0.0440 -0.1817
   37CHL1    H9 2702   4.443   5.815   6.721 -1.3345  0.9110  0.0562
   37CHL1   C10 2703   4.517   5.931   6.559  0.3407  0.0388 -0.3051
   37CHL1   C19 2704   4.586   6.062   6.521 -0.4658 -0.4648  0.3198
   37CHL1  H19A 2705   4.688   6.074   6.563 -0.7521  0.2264  0.8223
   37CHL1  H19B 2706   4.611   6.070   6.414  3.4968  2.1633  1.3302
   37CHL1  H19C 2707   4.517   6.145   6.547 -0.9533 -0.6184 -0.4760
   37CHL1    C1 2708   4.582   5.813   6.484  0.1800  0.3965  0.1551
   37CHL1   H1A 2709   4.688   5.811   6.519 -0.5025 -2.2707  2.2471
   37CHL1   H1B 2710   4.534   5.719   6.518  1.5860 -0.5535 -0.4229
   37CHL1    C2 2711   4.577   5.810   6.331 -0.6927 -0.7341  0.1282
   37CHL1   H2A 2712   4.615   5.713   6.293  1.2745 -1.1092  2.8415
   37CHL1   H2B 2713   4.635   5.892   6.283 -2.0962 -0.6614 -1.4756
   37CHL1   C20 2714   4.557   6.073   7.262  0.1223 -0.6664  0.9101
   37CHL1   H20 2715   4.617   6.161   7.231  0.0528 -0.9954 -0.1483
   37CHL1   C21 2716   4.655   5.952   7.283  0.0640  0.0843 -0.3674
   37CHL1  H21A 2717   4.714   5.922   7.194 -0.5154  1.0281 -1.0663
   37CHL1  H21B 2718   4.603   5.863   7.324 -1.2426  1.1043  0.2288
   37CHL1  H21C 2719   4.734   5.979   7.357  0.2672 -2.6696  0.4941
   37CHL1   C22 2720   4.473   6.094   7.397 -0.2609  0.1977 -0.0302
   37CHL1  H22A 2721   4.413   6.187   7.395 -2.2361 -1.0617  0.1194
   37CHL1  H22B 2722   4.387   6.024   7.404 -1.1261  1.2655  0.1343
   37CHL1   C23 2723   4.563   6.089   7.528 -0.1995 -0.4058 -1.0218
   37CHL1  H23A 2724   4.612   5.990   7.537  0.7555  0.1584  0.1653
   37CHL1  H23B 2725   4.645   6.163   7.523  0.4372 -1.0679 -0.4451
   37CHL1   C24 2726   4.488   6.111   7.665  0.3571 -0.2654  0.2059
   37CHL1  H24A 2727   4.421   6.198   7.644 -0.7503 -0.9488  0.8416
   37CHL1  H24B 2728   4.422   6.024   7.684 -0.5321 -0.2858 -2.7161
   37CHL1   C25 2729   4.580   6.127   7.783  0.1538 -0.5214  0.3584
   37CHL1   H25 2730   4.653   6.043   7.775  1.9028  0.9491  0.5891
   37CHL1   C26 2731   4.654   6.259   7.781  0.1314  0.1222  0.0848
   37CHL1  H26A 2732   4.719   6.275   7.692  0.5492 -0.6866  0.2352
   37CHL1  H26B 2733   4.591   6.348   7.800  0.5669  0.2805  0.8010
   37CHL1  H26C 2734   4.724   6.252   7.867 -0.0544 -2.1005  0.0747
   37CHL1   C27 2735   4.511   6.116   7.924  0.1496  0.3516  0.5732
   37CHL1  H27A 2736   4.585   6.131   8.006  1.3776 -1.7845 -0.1163
   37CHL1  H27B 2737   4.441   6.202   7.920  1.9879  1.8187 -0.9289
   37CHL1  H27C 2738   4.478   6.010   7.928  0.2094  0.3151  0.0554
   38CHL1    C3 2739   2.582   5.598   6.251 -0.0225  0.3967 -0.0286
   38CHL1    H3 2740   2.551   5.702   6.276 -0.6884  0.7619 -2.2516
   38CHL1    O3 2741   2.570   5.602   6.112 -0.0174  0.1313 -0.5129
   38CHL1   H3' 2742   2.585   5.511   6.087 -2.0182  0.5289 -3.3700
   38CHL1    C4 2743   2.732   5.576   6.284  0.4152  0.0187  0.8302
   38CHL1   H4A 2744   2.775   5.485   6.236  0.5560  0.5611 -0.0799
   38CHL1   H4B 2745   2.787   5.663   6.242 -0.1908 -0.4979 -1.0964
   38CHL1    C5 2746   2.750   5.563   6.430 -0.8812  0.4938 -0.1201
   38CHL1    C6 2747   2.841   5.638   6.494  0.0215 -0.3605 -0.6110
   38CHL1    H6 2748   2.910   5.701   6.435 -0.1865 -0.0274 -0.4983
   38CHL1    C7 2749   2.870   5.636   6.641  0.0947 -0.6062  0.1883
   38CHL1   H7A 2750   2.979   5.640   6.661 -0.3107 -0.9207  2.5820
   38CHL1   H7B 2751   2.814   5.720   6.686  0.8107 -0.5006  0.8933
   38CHL1    C8 2752   2.828   5.506   6.709 -0.0898  0.3337 -0.5662
   38CHL1    H8 2753   2.892   5.424   6.671 -0.8194 -0.3267 -0.3883
   38CHL1   C14 2754   2.832   5.512   6.863 -0.0244 -0.3549 -0.0614
   38CHL1   H14 2755   2.759   5.593   6.883  1.9172  1.3181  0.3935
   38CHL1   C15 2756   2.965   5.545   6.934  0.4617 -0.0828 -0.5574
   38CHL1  H15A 2757   3.042   5.496   6.871 -1.2063 -2.0492 -1.1353
   38CHL1  H15B 2758   2.982   5.654   6.940 -0.3779  0.0607 -0.7050
   38CHL1   C16 2759   2.951   5.482   7.076  0.1620 -0.3476 -0.0709
   38CHL1  H16A 2760   3.038   5.414   7.094 -0.8318 -1.0554  2.1679
   38CHL1  H16B 2761   2.955   5.560   7.156  2.3514 -1.5383  1.0482
   38CHL1   C17 2762   2.811   5.418   7.078  0.5588  0.0869 -0.3360
   38CHL1   H17 2763   2.745   5.505   7.102 -1.5493 -1.6883  0.3914
   38CHL1   C13 2764   2.784   5.386   6.933  0.5846  0.2044  0.4430
   38CHL1   C18 2765   2.864   5.257   6.900 -0.4793  0.5603  0.3475
   38CHL1  H18A 2766   2.972   5.281   6.907  0.1958 -1.8890 -0.9551
   38CHL1  H18B 2767   2.837   5.165   6.956 -1.6146  0.9396  0.4396
   38CHL1  H18C 2768   2.853   5.241   6.790 -0.9591  1.0545  0.3214
   38CHL1   C12 2769   2.635   5.378   6.895  0.2882 -0.2691  0.2609
   38CHL1  H12A 2770   2.597   5.282   6.938  0.6368  0.4178  2.1370
   38CHL1  H12B 2771   2.575   5.460   6.939  0.3862 -0.1878  0.2427
   38CHL1   C11 2772   2.602   5.371   6.743 -0.6421  0.0427  0.0431
   38CHL1  H11A 2773   2.621   5.273   6.693  0.9908  0.4835 -0.2187
   38CHL1  H11B 2774   2.498   5.398   6.714 -0.6607  0.7565  0.7492
   38CHL1    C9 2775   2.690   5.476   6.663 -0.2255 -0.4513 -0.3153
   38CHL1    H9 2776   2.641   5.571   6.692  1.4923 -0.1782  1.7776
   38CHL1   C10 2777   2.660   5.462   6.507 -0.4682 -0.5054 -0.4766
   38CHL1   C19 2778   2.715   5.327   6.454  0.9736 -0.2315  0.6509
   38CHL1  H19A 2779   2.668   5.238   6.500  0.7777  0.5616  2.0072
   38CHL1  H19B 2780   2.710   5.323   6.343  0.1293  0.3307  0.6623
   38CHL1  H19C 2781   2.823   5.309   6.472  1.5745  1.7105 -0.8483
   38CHL1    C1 2782   2.512   5.486   6.470  0.3162 -0.1057 -0.6492
   38CHL1   H1A 2783   2.446   5.410   6.517 -0.1765  1.0701  0.5985
   38CHL1   H1B 2784   2.493   5.587   6.513 -2.4440  0.1762 -2.3862
   38CHL1    C2 2785   2.486   5.496   6.316 -0.5784  0.3560 -0.2297
   38CHL1   H2A 2786   2.389   5.541   6.288 -1.0482  0.8230  2.0497
   38CHL1   H2B 2787   2.474   5.397   6.267 -1.8731 -0.0227  0.8351
   38CHL1   C20 2788   2.802   5.315   7.187  0.2988  0.0416  0.4309
   38CHL1   H20 2789   2.875   5.233   7.170 -0.7829 -1.2038  1.6700
   38CHL1   C21 2790   2.658   5.263   7.189  0.5361 -0.5210 -0.5398
   38CHL1  H21A 2791   2.584   5.346   7.193 -0.5910 -1.5112 -0.4262
   38CHL1  H21B 2792   2.654   5.205   7.284 -1.1540 -0.9997 -0.8860
   38CHL1  H21C 2793   2.638   5.190   7.108  2.5955 -0.0585 -1.4921
   38CHL1   C22 2794   2.833   5.379   7.325  0.4975 -0.0477 -1.2087
   38CHL1  H22A 2795   2.922   5.445   7.317  0.1375  0.8681  1.8812
   38CHL1  H22B 2796   2.741   5.440   7.338 -0.4139 -1.5524 -0.4942
   38CHL1   C23 2797   2.856   5.266   7.432  0.5079  0.1236 -0.8431
   38CHL1  H23A 2798   2.773   5.193   7.431 -0.3356  1.0697 -0.9033
   38CHL1  H23B 2799   2.948   5.217   7.395  0.6054 -0.9154  0.7399
   38CHL1   C24 2800   2.871   5.311   7.585 -0.6726  0.1542  0.1377
   38CHL1  H24A 2801   2.942   5.397   7.587 -2.1309  1.5074 -2.8226
   38CHL1  H24B 2802   2.776   5.356   7.621 -0.4778  1.0848 -0.4600
   38CHL1   C25 2803   2.920   5.197   7.677  0.1150 -0.4283  0.3561
   38CHL1   H25 2804   2.926   5.248   7.776  0.4584 -1.8064  1.0641
   38CHL1   C26 2805   2.829   5.071   7.674 -0.4224  0.2407  0.2105
   38CHL1  H26A 2806   2.724   5.092   7.702 -1.2644 -2.5063 -0.8246
   38CHL1  H26B 2807   2.825   5.025   7.574  1.8887 -1.8310  1.0226
   38CHL1  H26C 2808   2.869   4.995   7.744  1.9743  0.0299 -1.3178
   38CHL1   C27 2809   3.065   5.155   7.640 -0.0344  0.2743 -0.0825
   38CHL1  H27A 2810   3.078   5.091   7.550 -0.1190 -1.1208  0.8758
   38CHL1  H27B 2811   3.125   5.247   7.622 -1.4959  1.0301 -1.2226
   38CHL1  H27C 2812   3.107   5.098   7.725 -0.8538  0.4540  0.4442
   39CHL1    C3 2813   2.332   5.009   6.297  0.5435  0.9683 -0.6168
   39CHL1    H3 2814   2.439   5.011   6.330  0.9138 -2.0339 -1.5138
   39CHL1    O3 2815   2.315   4.976   6.164 -0.3313  0.6084 -0.1739
   39CHL1   H3' 2816   2.230   5.016   6.142 -1.0944 -0.2686  1.1217
   39CHL1    C4 2817   2.245   4.918   6.371  0.0528 -0.3677  0.2272
   39CHL1   H4A 2818   2.140   4.906   6.336  0.1997 -0.6948 -0.1010
   39CHL1   H4B 2819   2.287   4.816   6.365  0.1325 -0.3615  0.6480
   39CHL1    C5 2820   2.237   4.941   6.522  0.1239 -0.9453  0.5505
   39CHL1    C6 2821   2.273   4.845   6.609  0.3489 -0.3745  0.5217
   39CHL1    H6 2822   2.305   4.746   6.573 -0.9214 -0.3141 -0.8591
   39CHL1    C7 2823   2.277   4.872   6.758 -0.6850 -0.5156  0.5433
   39CHL1   H7A 2824   2.228   4.788   6.812 -1.0699 -0.9736 -0.5168
   39CHL1   H7B 2825   2.383   4.861   6.789  0.1783  2.8900 -0.9798
   39CHL1    C8 2826   2.207   4.997   6.811  0.0588 -0.0119  0.1639
   39CHL1    H8 2827   2.096   4.992   6.805  0.0467  1.2377 -0.9320
   39CHL1   C14 2828   2.241   5.033   6.957 -0.0094  0.1502 -0.3924
   39CHL1   H14 2829   2.351   5.048   6.957  0.5649 -3.6520  0.4077
   39CHL1   C15 2830   2.219   4.924   7.065  0.3577 -0.1837  0.0922
   39CHL1  H15A 2831   2.115   4.887   7.053  1.0128 -1.6285 -1.4378
   39CHL1  H15B 2832   2.301   4.849   7.063 -0.6130 -1.2229 -1.8879
   39CHL1   C16 2833   2.236   5.005   7.193 -0.1582 -0.1238  0.1045
   39CHL1  H16A 2834   2.148   4.999   7.260 -1.0245 -0.4245 -1.0450
   39CHL1  H16B 2835   2.331   4.989   7.249  0.1122 -0.7015 -0.5195
   39CHL1   C17 2836   2.242   5.159   7.157 -0.0676  0.7296  0.0032
   39CHL1   H17 2837   2.347   5.197   7.153  0.6183 -0.9324  1.4329
   39CHL1   C13 2838   2.194   5.164   7.007  0.6597  0.3911 -0.2081
   39CHL1   C18 2839   2.040   5.157   7.010 -0.1408 -0.4433  0.0355
   39CHL1  H18A 2840   2.022   5.265   7.028  0.6770 -0.0623 -1.3437
   39CHL1  H18B 2841   2.000   5.140   6.907  0.1060 -0.6369 -0.0276
   39CHL1  H18C 2842   2.002   5.098   7.096  0.0562  0.8520  1.0350
   39CHL1   C12 2843   2.249   5.276   6.920  0.0224  0.4088 -0.2330
   39CHL1  H12A 2844   2.216   5.375   6.955 -1.1161  0.2010 -0.7027
   39CHL1  H12B 2845   2.360   5.276   6.923 -0.0243  0.4760  2.4036
   39CHL1   C11 2846   2.217   5.257   6.768 -0.4566  0.2235  0.1463
   39CHL1  H11A 2847   2.112   5.283   6.743  0.2178  1.0583 -1.8838
   39CHL1  H11B 2848   2.287   5.321   6.711 -0.7305 -1.3605 -2.0462
   39CHL1    C9 2849   2.245   5.109   6.714  0.7610 -0.2381 -0.3717
   39CHL1    H9 2850   2.354   5.095   6.723  0.5012 -1.5188  0.9245
   39CHL1   C10 2851   2.206   5.083   6.562 -0.0262 -0.5043  0.4369
   39CHL1   C19 2852   2.051   5.112   6.549 -0.0422 -0.1453  0.8598
   39CHL1  H19A 2853   2.037   5.221   6.535 -2.2905 -0.7502 -2.1515
   39CHL1  H19B 2854   2.006   5.062   6.461  0.1132 -0.6506  1.0680
   39CHL1  H19C 2855   1.998   5.082   6.642  0.7451 -1.3614  0.9263
   39CHL1    C1 2856   2.280   5.183   6.471  0.1095  0.5651 -0.1577
   39CHL1   H1A 2857   2.257   5.290   6.489 -2.1976 -0.5910  4.4883
   39CHL1   H1B 2858   2.385   5.187   6.509  0.8061 -2.7040 -1.5836
   39CHL1    C2 2859   2.288   5.158   6.319  0.6433  0.4931  0.4459
   39CHL1   H2A 2860   2.356   5.237   6.283 -1.0414  0.7770 -2.2172
   39CHL1   H2B 2861   2.189   5.168   6.270 -0.6635  2.7522  3.3694
   39CHL1   C20 2862   2.180   5.249   7.262 -0.1653  1.0321  0.3194
   39CHL1   H20 2863   2.071   5.227   7.269  0.3268 -1.5526  0.2227
   39CHL1   C21 2864   2.191   5.396   7.218 -0.3962  0.2615 -0.6861
   39CHL1  H21A 2865   2.126   5.417   7.130 -1.1272  0.2101 -0.1689
   39CHL1  H21B 2866   2.291   5.432   7.188 -0.0405 -0.2902 -0.1806
   39CHL1  H21C 2867   2.147   5.466   7.293  2.3474  0.1039  1.1316
   39CHL1   C22 2868   2.236   5.224   7.403 -0.0275  0.1208  1.0980
   39CHL1  H22A 2869   2.221   5.117   7.431 -0.2758 -0.3696 -0.7958
   39CHL1  H22B 2870   2.345   5.240   7.417 -0.1202 -1.1551  3.6084
   39CHL1   C23 2871   2.166   5.304   7.515 -0.1407  0.6399  0.3068
   39CHL1  H23A 2872   2.177   5.412   7.491  3.2665  0.1182 -0.6545
   39CHL1  H23B 2873   2.057   5.282   7.516  0.0951 -0.8099 -2.5424
   39CHL1   C24 2874   2.226   5.254   7.642  0.3092 -0.6704 -0.6308
   39CHL1  H24A 2875   2.195   5.147   7.646  0.0938 -0.5824  0.0581
   39CHL1  H24B 2876   2.336   5.272   7.649  0.2512 -0.3256 -0.6122
   39CHL1   C25 2877   2.157   5.315   7.770 -0.3750 -0.8022 -0.0901
   39CHL1   H25 2878   2.051   5.286   7.756 -0.6001  0.8755 -2.0236
   39CHL1   C26 2879   2.218   5.256   7.894  0.4840 -0.4063  0.1961
   39CHL1  H26A 2880   2.176   5.300   7.987 -0.5664 -2.2627  0.6304
   39CHL1  H26B 2881   2.199   5.146   7.901 -0.2393 -0.1810  2.1032
   39CHL1  H26C 2882   2.326   5.278   7.900  0.9239 -2.2976 -0.4014
   39CHL1   C27 2883   2.171   5.465   7.767  0.0467 -0.8814 -0.4522
   39CHL1  H27A 2884   2.148   5.510   7.668  1.3565 -0.5863 -0.6387
   39CHL1  H27B 2885   2.114   5.502   7.855  2.5867  1.2465  0.3641
   39CHL1  H27C 2886   2.280   5.480   7.785 -0.3227  1.2369  0.0997
   40CHL1    C3 2887   6.283   3.654   6.136 -0.4096 -0.2554  0.3477
   40CHL1    H3 2888   6.345   3.571   6.094 -1.9727 -1.1410 -0.2520
   40CHL1    O3 2889   6.272   3.757   6.041 -0.0657  0.0929  0.4699
   40CHL1   H3' 2890   6.211   3.822   6.077  1.6096  2.1248 -0.2258
   40CHL1    C4 2891   6.142   3.597   6.171 -0.0630  0.2778 -0.8067
   40CHL1   H4A 2892   6.078   3.687   6.182  0.0698  0.4066 -1.0831
   40CHL1   H4B 2893   6.109   3.534   6.086  4.3285 -2.3407 -0.7337
   40CHL1    C5 2894   6.142   3.506   6.295  0.0216  0.1053 -0.3031
   40CHL1    C6 2895   6.090   3.384   6.292 -0.5408  0.0335 -0.1947
   40CHL1    H6 2896   6.046   3.349   6.197  0.1199  0.6882 -0.7466
   40CHL1    C7 2897   6.094   3.281   6.406  0.1877  0.0793 -0.1368
   40CHL1   H7A 2898   5.996   3.230   6.422 -1.1493  2.7358  0.3129
   40CHL1   H7B 2899   6.166   3.199   6.385  0.2018 -0.3251  1.4635
   40CHL1    C8 2900   6.124   3.352   6.543  0.0290  0.0328 -0.1681
   40CHL1    H8 2901   6.041   3.419   6.575  1.7441  0.7183  3.0282
   40CHL1   C14 2902   6.151   3.240   6.645  1.0054  0.8409 -0.7444
   40CHL1   H14 2903   6.232   3.181   6.597  1.1016  0.0082  0.4279
   40CHL1   C15 2904   6.048   3.127   6.676  0.1559 -0.2394  0.3279
   40CHL1  H15A 2905   5.950   3.180   6.680  0.7628  0.8833  0.4595
   40CHL1  H15B 2906   6.036   3.057   6.591 -3.0511  0.4821  0.1134
   40CHL1   C16 2907   6.086   3.073   6.811 -0.1104  1.0371 -0.1262
   40CHL1  H16A 2908   6.017   3.081   6.898 -0.2506 -1.9662  0.0725
   40CHL1  H16B 2909   6.132   2.975   6.787  2.0765  2.1163 -0.5080
   40CHL1   C17 2910   6.212   3.155   6.860 -0.0253 -0.4093  0.3206
   40CHL1   H17 2911   6.297   3.095   6.822 -0.7401 -0.6644 -0.9122
   40CHL1   C13 2912   6.200   3.293   6.781  0.1612  0.5524  0.0488
   40CHL1   C18 2913   6.089   3.374   6.849  0.5471  0.0189 -0.5739
   40CHL1  H18A 2914   5.998   3.311   6.864  1.5369 -1.1428  0.7592
   40CHL1  H18B 2915   6.115   3.407   6.952 -0.3739 -1.5473  0.1966
   40CHL1  H18C 2916   6.076   3.468   6.792  0.3656  0.5821  0.3852
   40CHL1   C12 2917   6.331   3.366   6.755 -1.0957 -0.0154 -0.0714
   40CHL1  H12A 2918   6.365   3.410   6.851 -0.2023 -0.8325 -0.0009
   40CHL1  H12B 2919   6.404   3.293   6.713 -0.7571  0.6516 -0.6613
   40CHL1   C11 2920   6.316   3.482   6.652 -0.2505  0.5928 -0.6772
   40CHL1  H11A 2921   6.245   3.545   6.710 -0.2160 -0.7209  0.8504
   40CHL1  H11B 2922   6.408   3.542   6.637  0.6711  0.1056  2.6299
   40CHL1    C9 2923   6.246   3.440   6.522 -0.5527  0.6006  0.1596
   40CHL1    H9 2924   6.320   3.372   6.474 -1.2898 -1.1372  1.4086
   40CHL1   C10 2925   6.217   3.551   6.420 -0.2461  0.0290  0.0775
   40CHL1   C19 2926   6.131   3.667   6.491 -0.6262  0.6517  0.3167
   40CHL1  H19A 2927   6.089   3.733   6.413 -2.2449 -1.5038 -0.6792
   40CHL1  H19B 2928   6.042   3.631   6.548 -1.2747 -0.7405 -1.5394
   40CHL1  H19C 2929   6.200   3.729   6.552  0.3227 -0.3674  0.2890
   40CHL1    C1 2930   6.356   3.613   6.372 -0.3950  0.7429  0.0072
   40CHL1   H1A 2931   6.396   3.659   6.465 -1.5688 -2.1836  2.0566
   40CHL1   H1B 2932   6.418   3.524   6.349 -0.3094  0.7490  0.2111
   40CHL1    C2 2933   6.354   3.720   6.255 -0.2072  0.5578 -0.6178
   40CHL1   H2A 2934   6.459   3.752   6.240  0.3000 -0.3998  0.7777
   40CHL1   H2B 2935   6.303   3.808   6.299  0.3783  0.1507  0.9145
   40CHL1   C20 2936   6.215   3.160   7.010 -0.4264  0.2858  0.0978
   40CHL1   H20 2937   6.119   3.207   7.041 -0.1960  1.2301 -0.5927
   40CHL1   C21 2938   6.330   3.240   7.060  0.1139 -0.5614 -0.6271
   40CHL1  H21A 2939   6.429   3.192   7.042  0.8455 -0.2670  2.3455
   40CHL1  H21B 2940   6.320   3.240   7.170  1.6762  0.3733 -0.4633
   40CHL1  H21C 2941   6.332   3.346   7.025  0.6419 -0.7620 -1.2156
   40CHL1   C22 2942   6.215   3.020   7.072 -0.1268 -0.7588 -0.2191
   40CHL1  H22A 2943   6.140   2.953   7.023 -0.9582  0.2039 -0.2712
   40CHL1  H22B 2944   6.318   2.982   7.056  0.3257  0.3186  0.1251
   40CHL1   C23 2945   6.187   3.019   7.221 -0.4052  0.6964  0.0755
   40CHL1  H23A 2946   6.278   3.063   7.267 -0.9975  0.7217  1.2279
   40CHL1  H23B 2947   6.093   3.074   7.243 -2.0393  0.0658 -4.6368
   40CHL1   C24 2948   6.179   2.873   7.268  0.0752  0.9669  0.3424
   40CHL1  H24A 2949   6.089   2.820   7.230  1.2716 -0.3643 -0.6521
   40CHL1  H24B 2950   6.268   2.815   7.237  0.6350  0.7496  2.2966
   40CHL1   C25 2951   6.152   2.866   7.420  0.1691  0.4231 -0.1742
   40CHL1   H25 2952   6.235   2.902   7.485 -1.4011 -0.8407  2.6442
   40CHL1   C26 2953   6.019   2.934   7.453  0.3594 -0.6352 -0.8466
   40CHL1  H26A 2954   6.030   3.043   7.436 -0.1741 -0.6511 -1.3108
   40CHL1  H26B 2955   5.940   2.890   7.388  1.4607 -0.7166 -2.1540
   40CHL1  H26C 2956   5.998   2.911   7.560  2.3722  1.2662 -0.0020
   40CHL1   C27 2957   6.143   2.719   7.464  0.9981 -0.1033  0.0300
   40CHL1  H27A 2958   6.143   2.728   7.574  0.6388  1.5096 -0.0897
   40CHL1  H27B 2959   6.051   2.667   7.428 -0.4148  1.0877  1.8442
   40CHL1  H27C 2960   6.235   2.664   7.435 -0.4407 -1.1791 -2.6610
   41CHL1    C3 2961   6.094   4.327   6.238 -0.5374  0.0472  0.1051
   41CHL1    H3 2962   6.122   4.431   6.264 -1.1127  0.4291 -0.7613
   41CHL1    O3 2963   6.086   4.327   6.093 -0.8405  0.1339  0.1923
   41CHL1   H3' 2964   6.082   4.420   6.069 -0.7482  0.8552  2.8701
   41CHL1    C4 2965   6.191   4.229   6.302  0.0212  1.0762  0.5187
   41CHL1   H4A 2966   6.165   4.125   6.273  1.9214  0.4827  0.8773
   41CHL1   H4B 2967   6.292   4.245   6.258 -0.6881  0.1602 -1.4938
   41CHL1    C5 2968   6.178   4.245   6.454 -0.3986 -0.3899  0.1484
   41CHL1    C6 2969   6.290   4.289   6.518  0.3841 -0.1659 -0.5024
   41CHL1    H6 2970   6.388   4.295   6.469  1.5389  0.2769  1.7850
   41CHL1    C7 2971   6.295   4.317   6.668 -0.2861 -0.0984 -0.2559
   41CHL1   H7A 2972   6.387   4.273   6.712 -0.5634 -0.5719 -0.1520
   41CHL1   H7B 2973   6.277   4.426   6.681  0.0480 -0.2068  1.1790
   41CHL1    C8 2974   6.176   4.249   6.737  0.0161 -0.6855 -0.6118
   41CHL1    H8 2975   6.184   4.138   6.732 -1.6927 -0.7304 -2.7994
   41CHL1   C14 2976   6.170   4.298   6.887 -0.5559 -0.7595  0.3210
   41CHL1   H14 2977   6.152   4.407   6.887  2.0431 -0.3063  1.3096
   41CHL1   C15 2978   6.292   4.283   6.980 -0.5170  0.9805 -0.4235
   41CHL1  H15A 2979   6.335   4.181   6.969 -1.4807  0.5877 -0.6049
   41CHL1  H15B 2980   6.370   4.360   6.969  0.1283  0.0616 -2.4720
   41CHL1   C16 2981   6.235   4.293   7.119 -0.6654  0.1478  0.0635
   41CHL1  H16A 2982   6.270   4.207   7.180  0.6864  1.4099  1.0796
   41CHL1  H16B 2983   6.278   4.380   7.172 -3.7598  1.1563  1.0266
   41CHL1   C17 2984   6.076   4.306   7.103 -0.4860  0.0686  0.0759
   41CHL1   H17 2985   6.063   4.414   7.081  2.7164  0.4349 -0.1634
   41CHL1   C13 2986   6.051   4.240   6.964  0.3192 -1.2011 -0.3460
   41CHL1   C18 2987   6.055   4.084   6.977  0.1864  0.1033  0.0672
   41CHL1  H18A 2988   6.155   4.048   7.009  0.1782  0.3605  0.3806
   41CHL1  H18B 2989   5.982   4.044   7.050  0.0979  0.3849  0.1344
   41CHL1  H18C 2990   6.033   4.030   6.882  2.3051  2.5814 -1.9124
   41CHL1   C12 2991   5.918   4.281   6.899  0.2756 -0.1517 -0.7301
   41CHL1  H12A 2992   5.837   4.242   6.964  0.8701 -1.7125 -0.9098
   41CHL1  H12B 2993   5.901   4.391   6.899 -0.9944 -0.3223  1.7459
   41CHL1   C11 2994   5.922   4.226   6.753  0.2846  0.4855  0.3737
   41CHL1  H11A 2995   5.905   4.116   6.749 -0.8620  0.6482  0.8868
   41CHL1  H11B 2996   5.830   4.269   6.710  0.6376 -0.0709 -0.9553
   41CHL1    C9 2997   6.040   4.273   6.670 -0.2708  0.0198  0.3396
   41CHL1    H9 2998   6.029   4.383   6.666  1.1843  0.1116 -1.6167
   41CHL1   C10 2999   6.041   4.233   6.517 -0.1096  0.1198  0.0741
   41CHL1   C19 3000   6.006   4.082   6.508  0.2450 -0.0091 -0.0330
   41CHL1  H19A 3001   5.902   4.056   6.538 -0.8607  0.8717 -2.8956
   41CHL1  H19B 3002   6.005   4.053   6.401 -2.9951  0.3491 -0.1763
   41CHL1  H19C 3003   6.080   4.028   6.571  0.4541  0.6876  0.3302
   41CHL1    C1 3004   5.937   4.319   6.439 -0.1224  0.2598  0.2188
   41CHL1   H1A 3005   5.836   4.294   6.478 -2.7429  2.9300 -4.4020
   41CHL1   H1B 3006   5.960   4.424   6.466 -0.8056  0.5069 -0.1593
   41CHL1    C2 3007   5.944   4.310   6.286  0.1224 -0.7771 -0.1682
   41CHL1   H2A 3008   5.877   4.381   6.232  1.4667  1.1914  0.6848
   41CHL1   H2B 3009   5.910   4.209   6.255 -0.2158 -1.3222  1.9076
   41CHL1   C20 3010   5.993   4.261   7.222 -0.6736 -0.1247 -0.2680
   41CHL1   H20 3011   5.900   4.209   7.193 -1.7146  0.2379  2.2981
   41CHL1   C21 3012   5.953   4.394   7.289 -0.1274  0.5701  0.0480
   41CHL1  H21A 3013   5.886   4.367   7.373 -0.6437 -0.4729 -0.6922
   41CHL1  H21B 3014   5.905   4.450   7.206  0.6444 -0.3442 -1.0337
   41CHL1  H21C 3015   6.040   4.447   7.334  0.2774 -0.5294  0.5777
   41CHL1   C22 3016   6.055   4.178   7.333  0.2237 -0.5975  0.6643
   41CHL1  H22A 3017   6.107   4.094   7.282 -0.0998 -0.4985  0.1754
   41CHL1  H22B 3018   6.132   4.230   7.394 -1.0017  0.9662  0.8920
   41CHL1   C23 3019   5.954   4.125   7.434  0.5080 -0.5671  0.3750
   41CHL1  H23A 3020   5.913   4.203   7.502  1.2310 -0.4760  0.7096
   41CHL1  H23B 3021   5.865   4.081   7.384 -0.2866 -0.4149  1.6243
   41CHL1   C24 3022   6.008   4.012   7.527 -0.7731 -1.0806 -0.3688
   41CHL1  H24A 3023   6.033   3.918   7.473 -2.8262 -1.9861  0.2207
   41CHL1  H24B 3024   6.104   4.040   7.577 -0.1330 -1.2490 -1.4970
   41CHL1   C25 3025   5.920   3.971   7.645 -0.0542  0.0869  0.0756
   41CHL1   H25 3026   5.893   4.064   7.701 -0.5188 -0.5811  0.9783
   41CHL1   C26 3027   5.783   3.904   7.598  0.4112  0.1424 -0.5707
   41CHL1  H26A 3028   5.720   3.972   7.537  0.0579  0.9212  0.6443
   41CHL1  H26B 3029   5.803   3.810   7.543  0.6729  1.7615 -3.3671
   41CHL1  H26C 3030   5.725   3.881   7.689  2.7182 -0.1609  0.8821
   41CHL1   C27 3031   5.988   3.876   7.748  0.6694 -0.0619  0.1077
   41CHL1  H27A 3032   6.071   3.924   7.805 -0.5309  1.4951  0.5838
   41CHL1  H27B 3033   5.915   3.835   7.821 -1.0829  0.6151 -1.2543
   41CHL1  H27C 3034   6.033   3.792   7.691  1.0734  0.9084 -1.0364
   42CHL1    C3 3035   6.071   2.225   6.336 -0.3668  0.2947 -0.1085
   42CHL1    H3 3036   5.961   2.212   6.336 -0.6556  2.4667 -0.0084
   42CHL1    O3 3037   6.124   2.239   6.204  0.1241  0.6386  0.2918
   42CHL1   H3' 3038   6.095   2.164   6.152  2.2628  0.5330 -0.7941
   42CHL1    C4 3039   6.109   2.349   6.411 -0.3664  0.0555 -0.6132
   42CHL1   H4A 3040   6.213   2.381   6.388 -0.3113 -0.1201 -0.6054
   42CHL1   H4B 3041   6.032   2.415   6.365 -1.7883 -1.2288 -0.1100
   42CHL1    C5 3042   6.087   2.347   6.561  0.1363 -0.1290 -0.1580
   42CHL1    C6 3043   6.011   2.444   6.608  0.0927 -0.4407 -0.1583
   42CHL1    H6 3044   5.966   2.523   6.547  0.2996 -0.1404  0.0734
   42CHL1    C7 3045   5.978   2.445   6.754 -0.1825  0.1940 -0.3025
   42CHL1   H7A 3046   5.971   2.546   6.801  1.0834  0.2699 -0.2688
   42CHL1   H7B 3047   5.873   2.408   6.759  0.2584 -0.9720  0.7056
   42CHL1    C8 3048   6.071   2.353   6.841  0.5267  0.5828 -0.4669
   42CHL1    H8 3049   6.169   2.404   6.848  0.1481  1.1770  0.7935
   42CHL1   C14 3050   6.027   2.342   6.991 -0.5282  0.1252 -0.1058
   42CHL1   H14 3051   5.931   2.287   6.984  0.2031 -1.1429 -0.2874
   42CHL1   C15 3052   5.993   2.476   7.060 -0.2438  0.1389 -0.0107
   42CHL1  H15A 3053   6.071   2.552   7.036 -0.3578  0.1105 -0.4679
   42CHL1  H15B 3054   5.895   2.523   7.039  0.3734  0.9758 -1.0616
   42CHL1   C16 3055   6.014   2.440   7.208 -0.1476  0.1396 -0.0882
   42CHL1  H16A 3056   6.106   2.491   7.245 -0.0933  0.5275 -0.7513
   42CHL1  H16B 3057   5.926   2.459   7.273  0.4831 -1.4166  1.2634
   42CHL1   C17 3058   6.041   2.283   7.210  0.6156 -0.1498 -0.4708
   42CHL1   H17 3059   5.943   2.232   7.199  0.4146  0.2759 -0.6430
   42CHL1   C13 3060   6.117   2.260   7.078  0.6607 -0.2377 -0.0484
   42CHL1   C18 3061   6.261   2.318   7.076  0.0616 -0.2104  0.5230
   42CHL1  H18A 3062   6.330   2.258   7.139  1.5060 -0.0091 -0.8337
   42CHL1  H18B 3063   6.310   2.319   6.976 -1.0982 -0.4832 -0.0662
   42CHL1  H18C 3064   6.267   2.417   7.127  2.2716  0.8317 -1.6798
   42CHL1   C12 3065   6.115   2.117   7.016 -0.3254  0.2552  0.1338
   42CHL1  H12A 3066   6.181   2.044   7.066  0.9956 -0.3167 -2.3401
   42CHL1  H12B 3067   6.010   2.080   7.017 -0.2059 -0.1313 -0.7239
   42CHL1   C11 3068   6.155   2.114   6.869  0.2645  0.0672 -0.5082
   42CHL1  H11A 3069   6.263   2.140   6.870  0.4578 -0.5958 -2.5937
   42CHL1  H11B 3070   6.163   2.012   6.826  0.6630  0.5224 -1.5187
   42CHL1    C9 3071   6.084   2.216   6.778  0.4879  0.3043  0.2259
   42CHL1    H9 3072   5.984   2.171   6.767  0.3383  0.7450 -0.2262
   42CHL1   C10 3073   6.137   2.220   6.632 -0.0438 -0.3272  0.0333
   42CHL1   C19 3074   6.291   2.227   6.626 -0.7407  0.0884  0.3811
   42CHL1  H19A 3075   6.323   2.279   6.534  3.0240 -1.1721  0.8553
   42CHL1  H19B 3076   6.320   2.290   6.713 -4.0081  1.5722  0.4614
   42CHL1  H19C 3077   6.339   2.127   6.638  0.6510  0.9808  2.7364
   42CHL1    C1 3078   6.089   2.099   6.555 -0.3183 -0.0973 -0.0616
   42CHL1   H1A 3079   6.141   2.014   6.605  0.7874  0.4397 -0.2821
   42CHL1   H1B 3080   5.980   2.079   6.566  0.0245 -1.4878  0.9981
   42CHL1    C2 3081   6.131   2.104   6.402  1.0362 -0.0112 -0.3312
   42CHL1   H2A 3082   6.092   2.013   6.352 -1.0788  1.5431 -1.5788
   42CHL1   H2B 3083   6.242   2.108   6.399  1.1813 -1.6231  1.7241
   42CHL1   C20 3084   6.112   2.222   7.329 -0.1537 -0.4961  0.0644
   42CHL1   H20 3085   6.186   2.146   7.295  0.5190 -0.1708  0.7803
   42CHL1   C21 3086   6.006   2.136   7.414  0.0623 -0.2394  0.8600
   42CHL1  H21A 3087   5.941   2.212   7.463 -1.1669 -2.4090  2.7106
   42CHL1  H21B 3088   6.069   2.076   7.482  1.6906  1.1428  0.5850
   42CHL1  H21C 3089   5.958   2.071   7.336 -0.2979 -1.1156  1.7960
   42CHL1   C22 3090   6.194   2.316   7.425  0.2853  0.3768 -0.4335
   42CHL1  H22A 3091   6.266   2.375   7.365  1.3912 -0.7793 -0.2683
   42CHL1  H22B 3092   6.135   2.385   7.490 -2.0065 -1.1333 -0.8544
   42CHL1   C23 3093   6.288   2.235   7.524  0.0027 -0.1377  0.1415
   42CHL1  H23A 3094   6.223   2.168   7.584 -0.2213 -0.1850 -0.1523
   42CHL1  H23B 3095   6.360   2.182   7.459  2.2870  0.7195  1.9192
   42CHL1   C24 3096   6.367   2.325   7.621 -0.2667  0.0005 -0.4382
   42CHL1  H24A 3097   6.395   2.419   7.570  1.0049  0.0329  0.2827
   42CHL1  H24B 3098   6.302   2.358   7.704  0.8018  0.4918  0.2185
   42CHL1   C25 3099   6.498   2.267   7.676 -0.0473 -0.0935  0.3891
   42CHL1   H25 3100   6.551   2.225   7.587  2.9825 -1.9488  2.9344
   42CHL1   C26 3101   6.579   2.389   7.729  0.1404 -0.2768 -0.7719
   42CHL1  H26A 3102   6.678   2.365   7.773  1.0947  1.3574 -1.9340
   42CHL1  H26B 3103   6.594   2.463   7.647  1.9191 -0.1003 -0.3072
   42CHL1  H26C 3104   6.520   2.442   7.806  2.3235 -1.2969  1.6834
   42CHL1   C27 3105   6.485   2.154   7.777 -0.0845 -0.5736  0.0168
   42CHL1  H27A 3106   6.582   2.127   7.824  0.3634 -0.6403 -0.9153
   42CHL1  H27B 3107   6.441   2.062   7.734 -1.4324  1.2536 -2.6827
   42CHL1  H27C 3108   6.417   2.188   7.858 -0.9111 -2.9679  0.3521
   43CHL1    C3 3109   5.591   5.710   6.163 -0.0756 -0.3918  1.3401
   43CHL1    H3 3110   5.664   5.627   6.157  1.1047  0.8080 -1.6392
   43CHL1    O3 3111   5.590   5.782   6.039  0.2879 -0.1655  0.3721
   43CHL1   H3' 3112   5.673   5.831   6.046 -0.0867  0.6576 -0.7162
   43CHL1    C4 3113   5.449   5.663   6.203 -0.1062 -0.3032  0.0682
   43CHL1   H4A 3114   5.386   5.754   6.213 -0.0970 -0.2570 -0.2933
   43CHL1   H4B 3115   5.407   5.602   6.120  0.7482 -1.9535  0.8245
   43CHL1    C5 3116   5.453   5.597   6.340 -0.0054  0.2619  0.0808
   43CHL1    C6 3117   5.399   5.475   6.350 -0.0950  0.0093  0.5104
   43CHL1    H6 3118   5.350   5.421   6.268 -2.5283  3.2288 -0.2696
   43CHL1    C7 3119   5.383   5.404   6.475 -0.1779  0.1094 -0.4514
   43CHL1   H7A 3120   5.278   5.367   6.480  0.3231 -1.1885  0.7291
   43CHL1   H7B 3121   5.451   5.317   6.475  0.9501  0.9627  0.3493
   43CHL1    C8 3122   5.414   5.494   6.601  0.7394  0.3145  0.2174
   43CHL1    H8 3123   5.326   5.560   6.614  0.6032  0.1298  0.2285
   43CHL1   C14 3124   5.438   5.401   6.724 -1.1931  0.0023  0.2542
   43CHL1   H14 3125   5.536   5.352   6.707 -0.2100  1.5892  1.1645
   43CHL1   C15 3126   5.341   5.290   6.765  0.5393  1.0703  0.7306
   43CHL1  H15A 3127   5.244   5.341   6.745  1.1188  1.6471 -0.6681
   43CHL1  H15B 3128   5.360   5.210   6.690  5.0504 -0.4656  3.3454
   43CHL1   C16 3129   5.363   5.262   6.916 -0.2389  0.5828  0.2361
   43CHL1  H16A 3130   5.263   5.279   6.962 -1.1743 -0.4709 -1.3022
   43CHL1  H16B 3131   5.405   5.160   6.934 -1.4133 -0.4490 -2.4763
   43CHL1   C17 3132   5.462   5.368   6.963 -0.1216 -0.1996 -0.1967
   43CHL1   H17 3133   5.567   5.333   6.952  0.6451  2.0653 -0.4025
   43CHL1   C13 3134   5.460   5.479   6.858 -0.4324 -0.1820  0.2155
   43CHL1   C18 3135   5.333   5.572   6.893 -0.0037 -0.3807 -0.0889
   43CHL1  H18A 3136   5.322   5.652   6.817  1.0593 -0.0439  0.0980
   43CHL1  H18B 3137   5.239   5.513   6.889  0.2170 -0.7267 -0.2130
   43CHL1  H18C 3138   5.337   5.622   6.992 -1.5430  1.9568 -1.1768
   43CHL1   C12 3139   5.587   5.564   6.835  1.0111 -0.3244  0.3705
   43CHL1  H12A 3140   5.628   5.615   6.924  2.2696  2.1421 -1.5689
   43CHL1  H12B 3141   5.668   5.494   6.806  0.8656 -0.0588 -0.6996
   43CHL1   C11 3142   5.569   5.666   6.719  0.2312  0.7671 -0.4249
   43CHL1  H11A 3143   5.501   5.749   6.745  0.2231  0.2965  1.1554
   43CHL1  H11B 3144   5.669   5.710   6.698  1.7569 -1.6288  1.4374
   43CHL1    C9 3145   5.533   5.587   6.588  0.1870  0.1625  0.0760
   43CHL1    H9 3146   5.615   5.514   6.577 -0.7201 -0.8678  0.0916
   43CHL1   C10 3147   5.514   5.671   6.461 -0.0726 -0.2069  0.2439
   43CHL1   C19 3148   5.423   5.789   6.494  0.8313  0.0678 -0.6873
   43CHL1  H19A 3149   5.390   5.836   6.399 -0.4901 -0.4343 -0.4885
   43CHL1  H19B 3150   5.326   5.760   6.539  0.1857  2.0902 -0.7420
   43CHL1  H19C 3151   5.472   5.872   6.548  3.0857 -0.6829 -1.4956
   43CHL1    C1 3152   5.651   5.722   6.415 -0.6646 -0.2011 -0.0149
   43CHL1   H1A 3153   5.685   5.792   6.495 -0.5422 -1.4373  1.0334
   43CHL1   H1B 3154   5.725   5.639   6.414  1.7053  1.8243  0.9589
   43CHL1    C2 3155   5.651   5.794   6.279  0.0725  0.4003 -0.7343
   43CHL1   H2A 3156   5.741   5.853   6.252 -0.2380  0.9153 -0.6387
   43CHL1   H2B 3157   5.580   5.879   6.286  1.2650  1.4678 -1.3195
   43CHL1   C20 3158   5.430   5.413   7.114  0.8406  0.4620  0.3205
   43CHL1   H20 3159   5.325   5.449   7.105  0.0201 -0.6971  4.6085
   43CHL1   C21 3160   5.526   5.517   7.178 -0.6008  0.3934  0.2352
   43CHL1  H21A 3161   5.631   5.486   7.197 -0.7515 -0.5905 -0.4785
   43CHL1  H21B 3162   5.496   5.553   7.278  0.5567  1.7611  0.1113
   43CHL1  H21C 3163   5.517   5.601   7.106 -0.4524 -0.3224 -0.6265
   43CHL1   C22 3164   5.426   5.289   7.202  0.7114 -0.0459 -0.1333
   43CHL1  H22A 3165   5.393   5.195   7.153 -1.3747  0.3603  0.4387
   43CHL1  H22B 3166   5.529   5.261   7.231  0.4808 -1.9758 -1.0529
   43CHL1   C23 3167   5.334   5.317   7.325 -0.4610 -0.1409  0.6429
   43CHL1  H23A 3168   5.360   5.419   7.362  0.0426  0.4964 -1.3811
   43CHL1  H23B 3169   5.227   5.301   7.299 -0.6737  0.7161  0.9545
   43CHL1   C24 3170   5.367   5.218   7.432  0.1051  0.5523  0.0943
   43CHL1  H24A 3171   5.329   5.116   7.411  3.2396 -0.1866 -2.4527
   43CHL1  H24B 3172   5.476   5.228   7.448 -0.4467  1.6509  3.5494
   43CHL1   C25 3173   5.311   5.245   7.571  0.7628  0.2444  0.9280
   43CHL1   H25 3174   5.335   5.348   7.604  1.7459  0.5810 -0.7432
   43CHL1   C26 3175   5.160   5.217   7.572  0.0652 -0.9726 -0.1833
   43CHL1  H26A 3176   5.148   5.112   7.538 -1.4790 -1.8015  2.6825
   43CHL1  H26B 3177   5.113   5.234   7.672 -2.6967 -1.6793 -1.3094
   43CHL1  H26C 3178   5.110   5.291   7.506  0.0469 -1.4193 -0.6695
   43CHL1   C27 3179   5.387   5.161   7.673  0.0653  0.2586  0.2021
   43CHL1  H27A 3180   5.374   5.053   7.648  1.6809  0.0771  0.0892
   43CHL1  H27B 3181   5.498   5.173   7.672  0.3829 -2.0452 -2.9124
   43CHL1  H27C 3182   5.349   5.184   7.774 -0.3034  1.0144 -0.1080
   44CHL1    C3 3183   6.712   4.069   6.305 -0.1767 -0.1706  0.7542
   44CHL1    H3 3184   6.606   4.104   6.309 -0.6839 -1.7541  1.6475
   44CHL1    O3 3185   6.740   4.048   6.169 -0.1322  0.4296 -0.4172
   44CHL1   H3' 3186   6.794   3.968   6.169 -0.6592  0.0575 -1.3941
   44CHL1    C4 3187   6.809   4.158   6.361  0.0314  0.3047 -0.1875
   44CHL1   H4A 3188   6.911   4.115   6.354  0.0490  0.4814 -1.2475
   44CHL1   H4B 3189   6.816   4.253   6.303  1.8825  1.7058  2.2907
   44CHL1    C5 3190   6.773   4.180   6.508 -0.3223  0.3236 -0.3550
   44CHL1    C6 3191   6.747   4.305   6.560  0.1628 -0.3059 -0.3311
   44CHL1    H6 3192   6.756   4.390   6.491 -0.9589  0.4771  0.4713
   44CHL1    C7 3193   6.709   4.330   6.701 -0.1647  0.4959 -0.8406
   44CHL1   H7A 3194   6.751   4.426   6.738  0.5497  0.1511 -0.7535
   44CHL1   H7B 3195   6.601   4.322   6.726  0.4802  0.9188  2.2015
   44CHL1    C8 3196   6.760   4.215   6.789  0.1254  0.8065  0.4076
   44CHL1    H8 3197   6.871   4.219   6.792  0.1583  0.9337 -0.8777
   44CHL1   C14 3198   6.705   4.231   6.928 -0.7745 -0.1978 -0.0442
   44CHL1   H14 3199   6.594   4.231   6.916 -0.7829 -1.5107 -0.0586
   44CHL1   C15 3200   6.728   4.363   7.011  0.1931 -0.7502 -0.8511
   44CHL1  H15A 3201   6.834   4.398   7.010  0.2767 -0.5566  3.2516
   44CHL1  H15B 3202   6.671   4.444   6.961 -0.4495 -0.4657  0.3212
   44CHL1   C16 3203   6.679   4.327   7.156 -0.5885  0.6092 -0.3113
   44CHL1  H16A 3204   6.765   4.347   7.224 -0.7521 -0.4876  0.2343
   44CHL1  H16B 3205   6.583   4.382   7.166 -0.9461  0.6107 -3.4750
   44CHL1   C17 3206   6.657   4.170   7.154 -0.1201  0.7885 -0.5616
   44CHL1   H17 3207   6.551   4.166   7.121 -0.2618  0.7410 -0.0940
   44CHL1   C13 3208   6.729   4.113   7.021  0.6205  0.1758 -0.1737
   44CHL1   C18 3209   6.877   4.089   7.046 -0.3165 -0.5019  0.2112
   44CHL1  H18A 3210   6.934   4.055   6.957  1.5919  2.5318  0.2222
   44CHL1  H18B 3211   6.932   4.172   7.096  0.2510  0.2847 -1.7098
   44CHL1  H18C 3212   6.884   4.009   7.123  0.7752  1.2983  2.0341
   44CHL1   C12 3213   6.660   3.992   6.968  0.5862  0.3665 -0.0353
   44CHL1  H12A 3214   6.657   3.904   7.036 -0.3909  0.3113 -0.1352
   44CHL1  H12B 3215   6.552   4.011   6.948  0.7279  2.2255  0.8254
   44CHL1   C11 3216   6.721   3.957   6.831  0.1414  0.3989  0.3962
   44CHL1  H11A 3217   6.825   3.919   6.839 -0.0055 -0.7712 -2.5223
   44CHL1  H11B 3218   6.668   3.867   6.791  1.3480 -1.5000  2.9479
   44CHL1    C9 3219   6.712   4.078   6.732  0.3392 -0.2164  0.1088
   44CHL1    H9 3220   6.604   4.104   6.722  0.4368 -0.1191 -0.7091
   44CHL1   C10 3221   6.769   4.056   6.592 -0.0474  0.0844  0.4580
   44CHL1   C19 3222   6.906   3.996   6.597  0.2721  0.3520  0.2625
   44CHL1  H19A 3223   6.956   3.977   6.500 -0.7294 -1.4181  0.0796
   44CHL1  H19B 3224   6.982   4.039   6.665  0.8823 -2.7619  1.6588
   44CHL1  H19C 3225   6.905   3.890   6.632  0.5581  0.7062  1.3684
   44CHL1    C1 3226   6.667   3.953   6.527 -0.5281  0.4933 -0.3559
   44CHL1   H1A 3227   6.666   3.859   6.586 -0.0707  1.2526  0.8896
   44CHL1   H1B 3228   6.569   4.005   6.525 -1.7545 -1.7682 -0.5848
   44CHL1    C2 3229   6.712   3.935   6.376 -0.3814  0.0621 -0.0822
   44CHL1   H2A 3230   6.659   3.850   6.327  2.2067 -0.4512 -2.1369
   44CHL1   H2B 3231   6.819   3.903   6.376 -0.2438  0.5220  0.7979
   44CHL1   C20 3232   6.676   4.083   7.278  0.5269  0.3956  0.7662
   44CHL1   H20 3233   6.681   3.975   7.249  0.9399  0.3332  1.0797
   44CHL1   C21 3234   6.556   4.112   7.366  0.6593 -0.1693  0.0761
   44CHL1  H21A 3235   6.554   4.220   7.392  1.0357 -0.2613  0.5140
   44CHL1  H21B 3236   6.553   4.051   7.458  1.1199 -0.4376 -0.0827
   44CHL1  H21C 3237   6.460   4.094   7.313  1.1761  0.2564 -1.0242
   44CHL1   C22 3238   6.806   4.109   7.364  0.2990  0.2268  0.5044
   44CHL1  H22A 3239   6.897   4.114   7.301 -0.9426 -1.9095 -1.5741
   44CHL1  H22B 3240   6.786   4.204   7.417 -2.3527  1.1897 -2.1059
   44CHL1   C23 3241   6.836   4.005   7.477 -0.6594  0.0081  0.2281
   44CHL1  H23A 3242   6.756   4.003   7.554  0.3886  0.1856  1.3313
   44CHL1  H23B 3243   6.823   3.912   7.416  0.7809 -0.4241  0.5552
   44CHL1   C24 3244   6.977   4.018   7.538  1.0374 -0.3541  0.1105
   44CHL1  H24A 3245   7.057   4.017   7.461 -0.0787  0.2508 -1.0811
   44CHL1  H24B 3246   6.978   4.120   7.581  1.0117 -0.1583 -0.3594
   44CHL1   C25 3247   7.005   3.911   7.651 -0.4040 -0.3719 -0.1317
   44CHL1   H25 3248   6.965   3.813   7.617  0.1063  0.1777 -2.3971
   44CHL1   C26 3249   7.156   3.891   7.677 -0.8969 -0.8378  0.0688
   44CHL1  H26A 3250   7.204   3.991   7.684 -1.5357 -0.6029  1.4830
   44CHL1  H26B 3251   7.184   3.824   7.761  2.7789  2.4050  1.5740
   44CHL1  H26C 3252   7.193   3.849   7.582 -0.1862  1.0511 -0.5032
   44CHL1   C27 3253   6.929   3.945   7.783 -0.3745 -0.3626  0.1140
   44CHL1  H27A 3254   6.821   3.961   7.763  0.1834  0.4067 -2.4746
   44CHL1  H27B 3255   6.931   3.852   7.845 -0.5191 -0.2696  0.2559
   44CHL1  H27C 3256   6.972   4.034   7.833  0.1364 -0.4910 -0.0924
   45CHL1    C3 3257   1.338   1.890   6.294 -0.3340  0.6532  0.1207
   45CHL1    H3 3258   1.404   1.976   6.321 -0.2341  1.4271 -2.4650
   45CHL1    O3 3259   1.287   1.909   6.164 -0.8952 -1.3070  0.1813
   45CHL1   H3' 3260   1.234   1.830   6.154  0.1031 -1.8345 -1.1198
   45CHL1    C4 3261   1.419   1.755   6.305  0.1403 -0.4132 -0.3469
   45CHL1   H4A 3262   1.353   1.669   6.281  1.8784 -0.6626 -4.6440
   45CHL1   H4B 3263   1.503   1.757   6.233  1.3415  1.9942  1.0380
   45CHL1    C5 3264   1.481   1.752   6.450  0.3744 -0.6388 -0.5419
   45CHL1    C6 3265   1.608   1.753   6.470 -0.7156 -0.1203 -0.7804
   45CHL1    H6 3266   1.681   1.742   6.388  1.4204  0.6720  0.9662
   45CHL1    C7 3267   1.670   1.750   6.602  0.6876  0.1392  0.1254
   45CHL1   H7A 3268   1.755   1.679   6.612  0.6302  0.0586  0.0391
   45CHL1   H7B 3269   1.708   1.854   6.608  0.5778  0.3282 -2.2149
   45CHL1    C8 3270   1.572   1.723   6.717 -0.2985 -1.0222 -0.5553
   45CHL1    H8 3271   1.557   1.613   6.719  0.2546 -1.1260 -1.7667
   45CHL1   C14 3272   1.638   1.756   6.857 -0.0277 -0.1410 -0.7995
   45CHL1   H14 3273   1.668   1.861   6.837 -1.1161 -0.4180 -4.3006
   45CHL1   C15 3274   1.769   1.693   6.902  0.1553  0.5313  0.9903
   45CHL1  H15A 3275   1.770   1.585   6.877 -3.5461  0.4027  1.1701
   45CHL1  H15B 3276   1.854   1.734   6.843  0.8512 -0.7493  1.0770
   45CHL1   C16 3277   1.787   1.725   7.049 -0.4098  0.2164  0.1869
   45CHL1  H16A 3278   1.805   1.629   7.102 -0.6015 -0.5162 -1.0485
   45CHL1  H16B 3279   1.874   1.794   7.054 -0.2767 -0.0431  1.6254
   45CHL1   C17 3280   1.659   1.793   7.098 -0.1623  0.5681  0.2599
   45CHL1   H17 3281   1.675   1.903   7.088  0.5829  0.4262 -0.1906
   45CHL1   C13 3282   1.552   1.754   6.986 -0.1945  0.8026  0.2245
   45CHL1   C18 3283   1.506   1.606   7.009  0.1233 -0.0078 -0.0725
   45CHL1  H18A 3284   1.458   1.569   6.916 -0.0699 -3.1331  1.2345
   45CHL1  H18B 3285   1.592   1.539   7.027 -0.8972 -1.2832  0.0819
   45CHL1  H18C 3286   1.439   1.606   7.098  0.6631  2.4394  0.3880
   45CHL1   C12 3287   1.438   1.846   6.954 -0.0055 -0.1072 -0.5394
   45CHL1  H12A 3288   1.369   1.852   7.041  0.0226 -1.2369 -0.4294
   45CHL1  H12B 3289   1.475   1.948   6.934  0.6197 -0.2263 -0.0116
   45CHL1   C11 3290   1.358   1.803   6.831 -0.5209 -0.1763  0.2019
   45CHL1  H11A 3291   1.315   1.702   6.852 -0.6551 -0.0409  0.5890
   45CHL1  H11B 3292   1.275   1.877   6.821 -1.2880 -0.7360  2.2379
   45CHL1    C9 3293   1.453   1.804   6.701  0.1215 -0.3723  0.1694
   45CHL1    H9 3294   1.482   1.911   6.693 -1.7313  0.2018  0.7726
   45CHL1   C10 3295   1.381   1.763   6.571  0.0845 -0.0023 -0.0524
   45CHL1   C19 3296   1.320   1.627   6.574 -0.3903 -0.1433  0.3928
   45CHL1  H19A 3297   1.269   1.611   6.477  0.8215  2.8642 -0.7886
   45CHL1  H19B 3298   1.394   1.546   6.590  0.4461  0.4735 -0.3645
   45CHL1  H19C 3299   1.240   1.612   6.650 -2.2551  0.5522 -1.3888
   45CHL1    C1 3300   1.270   1.873   6.539  0.2091 -0.0808  0.5762
   45CHL1   H1A 3301   1.178   1.841   6.593  0.3048  0.4193  1.0402
   45CHL1   H1B 3302   1.300   1.976   6.568 -0.2426  0.5834 -1.2270
   45CHL1    C2 3303   1.223   1.889   6.390  0.4334  0.9946 -0.2533
   45CHL1   H2A 3304   1.157   1.978   6.380 -0.7507  0.4867  2.4944
   45CHL1   H2B 3305   1.166   1.797   6.365  1.0544  0.3187  0.7809
   45CHL1   C20 3306   1.631   1.765   7.243 -0.6709 -0.9007  0.3932
   45CHL1   H20 3307   1.622   1.655   7.258 -2.0551 -0.3998  3.6271
   45CHL1   C21 3308   1.504   1.836   7.286  0.5002  0.4906 -0.3198
   45CHL1  H21A 3309   1.516   1.944   7.262 -0.1446  1.5062  3.5213
   45CHL1  H21B 3310   1.480   1.819   7.393  0.1589 -2.4037 -0.8143
   45CHL1  H21C 3311   1.412   1.801   7.233  2.1346 -2.5278 -1.3159
   45CHL1   C22 3312   1.752   1.811   7.333  0.4293 -0.3123 -0.4149
   45CHL1  H22A 3313   1.853   1.793   7.290  0.5059 -1.7245  0.3361
   45CHL1  H22B 3314   1.757   1.920   7.354  1.2566 -0.2301 -1.0081
   45CHL1   C23 3315   1.727   1.758   7.469  0.2797  0.0404 -1.2827
   45CHL1  H23A 3316   1.649   1.814   7.525 -0.5132 -0.6453 -1.6696
   45CHL1  H23B 3317   1.684   1.655   7.475  1.5826 -0.4018  0.7483
   45CHL1   C24 3318   1.853   1.752   7.547 -0.6845  0.1450 -0.7664
   45CHL1  H24A 3319   1.911   1.672   7.496 -0.4323 -0.4631  0.4358
   45CHL1  H24B 3320   1.923   1.838   7.534 -0.8021  0.4544  0.5319
   45CHL1   C25 3321   1.842   1.730   7.700  0.3558  0.2660 -0.2029
   45CHL1   H25 3322   1.743   1.683   7.714  0.3273  0.1457 -0.7848
   45CHL1   C26 3323   1.939   1.625   7.754 -0.7772  0.1586 -0.5016
   45CHL1  H26A 3324   2.037   1.670   7.728 -0.8553  0.1306 -0.8370
   45CHL1  H26B 3325   1.929   1.615   7.864 -1.0060  0.8236 -0.4564
   45CHL1  H26C 3326   1.917   1.530   7.701 -1.9754  0.0259  0.2128
   45CHL1   C27 3327   1.848   1.856   7.782 -0.2621  0.3088  0.5806
   45CHL1  H27A 3328   1.750   1.906   7.769 -0.6220 -0.6585 -0.6139
   45CHL1  H27B 3329   1.865   1.829   7.888  0.8368  1.3156  0.6705
   45CHL1  H27C 3330   1.925   1.922   7.737 -0.1624 -0.0694  0.1892
   46CHL1    C3 3331   0.623   3.685   6.376  0.0192 -0.4497 -0.3199
   46CHL1    H3 3332   0.551   3.604   6.402 -0.3074 -0.0764 -0.0593
   46CHL1    O3 3333   0.614   3.718   6.239 -0.1526 -0.0398  0.5373
   46CHL1   H3' 3334   0.676   3.791   6.230 -0.6202  0.2799 -0.0866
   46CHL1    C4 3335   0.593   3.814   6.445  0.4037  0.6504  0.8580
   46CHL1   H4A 3336   0.652   3.906   6.427  0.0896  0.9093  1.1378
   46CHL1   H4B 3337   0.486   3.828   6.415  0.4967 -3.2935 -1.5802
   46CHL1    C5 3338   0.601   3.778   6.599  0.6452 -1.4465  0.0623
   46CHL1    C6 3339   0.483   3.788   6.673 -0.2316 -0.8686  0.6898
   46CHL1    H6 3340   0.394   3.827   6.621 -0.8403 -1.6331  1.1567
   46CHL1    C7 3341   0.476   3.778   6.825  0.0425 -0.0022  0.1094
   46CHL1   H7A 3342   0.412   3.848   6.883 -0.2873  0.5803 -0.9500
   46CHL1   H7B 3343   0.429   3.679   6.844  1.2645 -0.3570  1.4275
   46CHL1    C8 3344   0.618   3.769   6.892  0.1518 -0.1237 -0.4791
   46CHL1    H8 3345   0.649   3.876   6.896 -2.0478  0.6753 -3.0501
   46CHL1   C14 3346   0.621   3.701   7.032  0.1493  0.9843 -0.1818
   46CHL1   H14 3347   0.577   3.601   7.014  0.3188  0.4968  1.9737
   46CHL1   C15 3348   0.525   3.761   7.137 -0.1453 -1.2528 -0.9447
   46CHL1  H15A 3349   0.536   3.871   7.134 -0.1349 -1.1892  0.6676
   46CHL1  H15B 3350   0.417   3.739   7.148 -0.7002  1.6782 -0.3887
   46CHL1   C16 3351   0.584   3.724   7.272 -0.0134 -0.2846  0.9900
   46CHL1  H16A 3352   0.609   3.809   7.339  1.2764  0.1376 -0.0106
   46CHL1  H16B 3353   0.515   3.657   7.328 -1.7069 -1.0618 -1.9204
   46CHL1   C17 3354   0.720   3.646   7.239  0.7838 -0.5632  0.3514
   46CHL1   H17 3355   0.684   3.541   7.238 -2.0182  0.3336  1.0245
   46CHL1   C13 3356   0.754   3.687   7.096 -0.2299  0.3089 -0.5707
   46CHL1   C18 3357   0.827   3.815   7.115 -0.2604 -0.8652  0.1876
   46CHL1  H18A 3358   0.936   3.808   7.140 -0.3030 -3.1481 -0.2014
   46CHL1  H18B 3359   0.822   3.883   7.028 -0.5428 -0.0958  0.7929
   46CHL1  H18C 3360   0.788   3.864   7.207 -1.0361 -1.3073  0.0930
   46CHL1   C12 3361   0.841   3.587   7.016 -0.5175  0.6798 -0.4612
   46CHL1  H12A 3362   0.945   3.572   7.052 -0.8278 -0.1174  0.1277
   46CHL1  H12B 3363   0.803   3.483   7.013  2.8751 -0.6398  0.2639
   46CHL1   C11 3364   0.850   3.648   6.879 -0.9853 -0.2309  0.8464
   46CHL1  H11A 3365   0.900   3.745   6.898 -0.5053 -0.4672  0.7895
   46CHL1  H11B 3366   0.920   3.587   6.818  1.5812  2.1011  1.3782
   46CHL1    C9 3367   0.716   3.684   6.808  0.4676 -0.0326  0.2136
   46CHL1    H9 3368   0.672   3.583   6.794  0.5950 -0.1849  0.9095
   46CHL1   C10 3369   0.731   3.729   6.659  0.2103 -0.3529  0.9132
   46CHL1   C19 3370   0.829   3.853   6.660  0.0901  0.1326 -1.0197
   46CHL1  H19A 3371   0.775   3.930   6.719  0.8324  0.4410 -0.7325
   46CHL1  H19B 3372   0.924   3.833   6.714 -1.6120 -0.3565  1.9184
   46CHL1  H19C 3373   0.847   3.884   6.555  0.4610 -0.7282 -1.2122
   46CHL1    C1 3374   0.773   3.610   6.568  0.9385  1.0358  0.4217
   46CHL1   H1A 3375   0.876   3.589   6.602  0.1101 -3.7087  0.4070
   46CHL1   H1B 3376   0.707   3.520   6.576  0.0362  1.4334 -2.0136
   46CHL1    C2 3377   0.765   3.634   6.409  0.3578 -0.1386 -0.0227
   46CHL1   H2A 3378   0.792   3.541   6.354 -1.9663 -0.8251 -0.0491
   46CHL1   H2B 3379   0.835   3.713   6.373  1.1616  0.5238  2.8238
   46CHL1   C20 3380   0.821   3.642   7.358 -0.0960 -0.5637 -0.1346
   46CHL1   H20 3381   0.863   3.744   7.363  0.0884 -0.6032 -0.8381
   46CHL1   C21 3382   0.933   3.538   7.325  0.1987 -0.6255 -0.7614
   46CHL1  H21A 3383   0.996   3.578   7.242 -0.0880  0.7911 -0.3162
   46CHL1  H21B 3384   0.884   3.442   7.300 -1.7190  0.4234 -1.1492
   46CHL1  H21C 3385   1.004   3.524   7.409  1.2869 -2.0744 -1.8826
   46CHL1   C22 3386   0.751   3.624   7.494  0.5329  0.4460  0.4137
   46CHL1  H22A 3387   0.665   3.694   7.499 -0.8445 -1.0550 -1.2551
   46CHL1  H22B 3388   0.708   3.521   7.494  0.9187  0.2379 -2.4804
   46CHL1   C23 3389   0.840   3.658   7.615  0.5309  0.2969  0.3696
   46CHL1  H23A 3390   0.922   3.583   7.624 -1.6863 -2.1264  1.1399
   46CHL1  H23B 3391   0.890   3.757   7.606 -1.7758  1.6077  1.5763
   46CHL1   C24 3392   0.761   3.664   7.756  0.0323 -0.3572 -0.5926
   46CHL1  H24A 3393   0.660   3.702   7.728 -1.3392 -1.4324  2.6991
   46CHL1  H24B 3394   0.746   3.559   7.789 -1.3280  0.3036  0.9786
   46CHL1   C25 3395   0.823   3.736   7.871  0.2323  0.4512  0.4308
   46CHL1   H25 3396   0.853   3.835   7.831  0.3118 -0.8813 -2.9822
   46CHL1   C26 3397   0.724   3.741   7.989 -0.4483 -0.1408 -0.3375
   46CHL1  H26A 3398   0.762   3.809   8.069  4.5238 -1.3337 -1.5281
   46CHL1  H26B 3399   0.619   3.770   7.967 -0.0146  2.8795  1.2326
   46CHL1  H26C 3400   0.731   3.636   8.024 -1.7280  0.2485  1.1228
   46CHL1   C27 3401   0.952   3.669   7.924  0.2679 -0.1179  0.7709
   46CHL1  H27A 3402   0.989   3.606   7.840  1.5640  2.2269 -0.4706
   46CHL1  H27B 3403   1.024   3.749   7.952  1.8012 -1.5404  0.9422
   46CHL1  H27C 3404   0.933   3.606   8.014 -2.8276 -0.9616 -0.4156
   47CHL1    C3 3405   7.108   4.433   6.393 -0.2778  0.6179  0.3428
   47CHL1    H3 3406   7.008   4.393   6.421 -0.2254  1.2845  1.5339
   47CHL1    O3 3407   7.106   4.449   6.249  0.2666  0.4457 -0.2205
   47CHL1   H3' 3408   7.030   4.503   6.223 -0.8298 -1.1108 -0.3538
   47CHL1    C4 3409   7.138   4.555   6.473  0.0356  0.1071  0.2467
   47CHL1   H4A 3410   7.232   4.600   6.436  0.2336 -0.1139  0.4802
   47CHL1   H4B 3411   7.062   4.635   6.463 -1.0471 -0.7538  1.3589
   47CHL1    C5 3412   7.138   4.523   6.625 -0.4237  0.4831 -0.3324
   47CHL1    C6 3413   7.052   4.581   6.712 -0.1438  0.5340 -0.8054
   47CHL1    H6 3414   6.977   4.657   6.685 -0.6216  0.0873 -0.7463
   47CHL1    C7 3415   7.055   4.553   6.857  0.7692 -0.8506  0.4472
   47CHL1   H7A 3416   7.054   4.648   6.916 -1.1166  1.2581 -2.7931
   47CHL1   H7B 3417   6.967   4.491   6.882  1.6296 -1.8462  1.0770
   47CHL1    C8 3418   7.178   4.473   6.909  0.1228  0.2532  0.0432
   47CHL1    H8 3419   7.261   4.547   6.905 -0.7043  1.2367  0.6541
   47CHL1   C14 3420   7.160   4.415   7.050 -0.0075 -0.4247  0.0252
   47CHL1   H14 3421   7.068   4.354   7.039 -0.8950  1.2280 -2.0479
   47CHL1   C15 3422   7.113   4.520   7.153  0.1055  0.5760 -0.6712
   47CHL1  H15A 3423   7.176   4.607   7.126  1.6525  0.1571  1.4611
   47CHL1  H15B 3424   7.002   4.525   7.155 -0.1066 -2.9589  0.7432
   47CHL1   C16 3425   7.159   4.455   7.285 -0.3992 -0.2049 -0.1295
   47CHL1  H16A 3426   7.223   4.528   7.339 -0.2315  0.2615 -0.9532
   47CHL1  H16B 3427   7.069   4.430   7.346 -1.1691  0.2363 -1.0646
   47CHL1   C17 3428   7.242   4.322   7.250  0.4555 -0.0386  0.1966
   47CHL1   H17 3429   7.163   4.245   7.258  2.2427 -2.0095 -0.8733
   47CHL1   C13 3430   7.274   4.338   7.102  0.1002  0.2736 -0.4221
   47CHL1   C18 3431   7.407   4.429   7.091  0.3588  0.3614 -0.4269
   47CHL1  H18A 3432   7.489   4.366   7.131  2.7917  2.3963 -2.0445
   47CHL1  H18B 3433   7.439   4.464   6.991  1.4519  0.8952  0.1001
   47CHL1  H18C 3434   7.410   4.514   7.163 -0.7052 -0.3332  0.4516
   47CHL1   C12 3435   7.279   4.213   7.006  0.1929  0.9954  0.3318
   47CHL1  H12A 3436   7.362   4.149   7.043  2.4189  2.9283 -1.1773
   47CHL1  H12B 3437   7.187   4.152   7.017 -0.4667  2.0250  0.5834
   47CHL1   C11 3438   7.306   4.244   6.857 -0.3532  0.1264 -0.5989
   47CHL1  H11A 3439   7.409   4.278   6.832 -0.4637 -0.0293 -1.2653
   47CHL1  H11B 3440   7.304   4.151   6.796  1.8801 -1.9939  2.3587
   47CHL1    C9 3441   7.210   4.361   6.806 -0.4177  0.4002  0.0756
   47CHL1    H9 3442   7.119   4.300   6.791  0.3745 -0.2434 -2.2966
   47CHL1   C10 3443   7.235   4.409   6.660 -0.4864 -0.5148  0.2827
   47CHL1   C19 3444   7.377   4.454   6.655 -0.1492  0.5587  0.1464
   47CHL1  H19A 3445   7.448   4.368   6.648  0.3781  1.0152 -0.2381
   47CHL1  H19B 3446   7.403   4.516   6.566  0.1887 -0.8617 -0.7712
   47CHL1  H19C 3447   7.404   4.508   6.748  1.3292  1.0487 -0.5437
   47CHL1    C1 3448   7.219   4.287   6.565 -0.1334  0.1733  0.0803
   47CHL1   H1A 3449   7.299   4.211   6.579 -0.5228 -0.3115 -0.2837
   47CHL1   H1B 3450   7.120   4.241   6.584 -1.1777  1.4573 -2.1491
   47CHL1    C2 3451   7.216   4.325   6.410  0.6642  0.0348  0.1845
   47CHL1   H2A 3452   7.188   4.237   6.347 -3.5905 -0.8155  3.1051
   47CHL1   H2B 3453   7.315   4.359   6.372  0.5763 -1.2805 -1.2729
   47CHL1   C20 3454   7.351   4.298   7.354  0.5031 -0.3355  0.1066
   47CHL1   H20 3455   7.431   4.376   7.354 -0.8904  1.1078 -1.1749
   47CHL1   C21 3456   7.421   4.165   7.308  0.1188 -0.6241 -0.8170
   47CHL1  H21A 3457   7.351   4.081   7.292  0.0032 -0.8791  0.8739
   47CHL1  H21B 3458   7.491   4.125   7.385  0.9256  0.7873 -0.7827
   47CHL1  H21C 3459   7.491   4.173   7.222 -0.1916 -0.8050 -1.0848
   47CHL1   C22 3460   7.303   4.279   7.501 -0.0901 -0.1568 -0.1687
   47CHL1  H22A 3461   7.250   4.371   7.534  0.8922 -0.0286  1.1219
   47CHL1  H22B 3462   7.232   4.195   7.516 -1.1778  0.9712  1.0881
   47CHL1   C23 3463   7.417   4.268   7.604 -0.0991 -0.0010  0.7358
   47CHL1  H23A 3464   7.466   4.169   7.588  0.8215  0.5943 -0.1336
   47CHL1  H23B 3465   7.500   4.341   7.599 -0.3805  0.2988  0.4612
   47CHL1   C24 3466   7.373   4.270   7.746 -0.9701 -0.6007 -0.4412
   47CHL1  H24A 3467   7.290   4.342   7.762 -1.0743 -0.8350  0.0747
   47CHL1  H24B 3468   7.333   4.169   7.769  0.9281 -1.2047  0.3332
   47CHL1   C25 3469   7.484   4.304   7.842 -0.0203 -0.2682 -0.6736
   47CHL1   H25 3470   7.512   4.411   7.830  1.2990 -0.3934  1.0429
   47CHL1   C26 3471   7.440   4.275   7.994  0.7323 -0.2324  0.4922
   47CHL1  H26A 3472   7.438   4.168   8.025  1.7266  0.0739  1.6345
   47CHL1  H26B 3473   7.493   4.335   8.070  0.7927 -2.1094  1.9616
   47CHL1  H26C 3474   7.337   4.316   8.002  0.3648 -0.5215 -2.0683
   47CHL1   C27 3475   7.607   4.224   7.808 -0.0334 -1.3432 -0.2904
   47CHL1  H27A 3476   7.575   4.117   7.810  0.6751 -1.5566  0.0895
   47CHL1  H27B 3477   7.639   4.244   7.704  1.4144  0.6234  0.5026
   47CHL1  H27C 3478   7.692   4.238   7.878 -0.3116  0.2957 -0.2735
   48CHL1    C3 3479   3.374   6.767   6.272  0.3806  0.4854 -0.3705
   48CHL1    H3 3480   3.356   6.670   6.221  0.0608  0.0878  0.4784
   48CHL1    O3 3481   3.407   6.850   6.162  0.6552  0.2860  0.1986
   48CHL1   H3' 3482   3.367   6.791   6.097  0.0040  0.2431  0.6382
   48CHL1    C4 3483   3.239   6.813   6.322  0.4450 -0.1918 -0.4031
   48CHL1   H4A 3484   3.251   6.922   6.340  0.4998 -0.1024 -0.9549
   48CHL1   H4B 3485   3.171   6.802   6.235 -1.1539 -0.1022  0.8158
   48CHL1    C5 3486   3.197   6.742   6.454 -0.2492  0.9455  0.1886
   48CHL1    C6 3487   3.075   6.685   6.470 -0.9711 -0.6535 -0.7258
   48CHL1    H6 3488   3.011   6.700   6.382  1.0538  0.3163 -2.0664
   48CHL1    C7 3489   3.025   6.616   6.593  0.0370 -0.2633 -0.7848
   48CHL1   H7A 3490   2.919   6.646   6.605 -1.1367 -4.2980 -0.3218
   48CHL1   H7B 3491   3.016   6.506   6.581  1.3456 -0.4032 -0.5835
   48CHL1    C8 3492   3.106   6.637   6.724  0.1550  0.7153 -0.1887
   48CHL1    H8 3493   3.093   6.742   6.757  0.9506  0.8849 -0.4031
   48CHL1   C14 3494   3.084   6.531   6.822  0.5574 -0.3717 -0.8477
   48CHL1   H14 3495   3.127   6.435   6.786 -0.1567 -1.5274  1.3016
   48CHL1   C15 3496   2.942   6.485   6.851  0.2137 -0.3803 -0.7027
   48CHL1  H15A 3497   2.865   6.565   6.851  1.9080  1.2723 -1.5432
   48CHL1  H15B 3498   2.909   6.413   6.774 -1.5920 -0.7444  0.3735
   48CHL1   C16 3499   2.957   6.437   6.997 -0.7652  0.3010 -0.3339
   48CHL1  H16A 3500   2.889   6.498   7.060  0.8269 -0.0513  1.8069
   48CHL1  H16B 3501   2.920   6.332   6.995  0.4057 -0.1543  0.9219
   48CHL1   C17 3502   3.099   6.448   7.042  0.3274 -0.1834  0.5054
   48CHL1   H17 3503   3.157   6.359   7.011 -2.2693 -1.5554 -0.5389
   48CHL1   C13 3504   3.157   6.553   6.951  0.2060 -0.3530 -0.5885
   48CHL1   C18 3505   3.119   6.697   7.006  0.1094  0.1595  0.3252
   48CHL1  H18A 3506   3.154   6.717   7.109  3.2772 -1.2088 -0.4549
   48CHL1  H18B 3507   3.160   6.780   6.945  1.8342 -0.8837  0.0504
   48CHL1  H18C 3508   3.008   6.698   7.020 -0.1471  0.6450 -1.5918
   48CHL1   C12 3509   3.314   6.550   6.923 -0.1622  0.8317  0.0811
   48CHL1  H12A 3510   3.371   6.576   7.015  0.4332  0.3608 -0.1515
   48CHL1  H12B 3511   3.339   6.443   6.903  0.2823  1.2108 -1.4832
   48CHL1   C11 3512   3.367   6.650   6.814  0.6025 -0.5776  0.3115
   48CHL1  H11A 3513   3.352   6.749   6.860 -1.0793 -0.8472  0.3523
   48CHL1  H11B 3514   3.473   6.636   6.782  0.4128  1.7305 -1.5149
   48CHL1    C9 3515   3.262   6.643   6.694 -0.4881 -0.0664 -0.3600
   48CHL1    H9 3516   3.280   6.540   6.656  0.4651  0.0985 -0.3757
   48CHL1   C10 3517   3.302   6.742   6.568 -0.4027 -0.4543  0.0641
   48CHL1   C19 3518   3.333   6.886   6.614  0.2098  0.3264 -0.3446
   48CHL1  H19A 3519   3.405   6.873   6.697 -0.5353 -0.6136  0.1608
   48CHL1  H19B 3520   3.373   6.946   6.529 -0.8099 -2.1079 -2.6371
   48CHL1  H19C 3521   3.236   6.923   6.655  1.5326 -0.2046  3.3898
   48CHL1    C1 3522   3.438   6.695   6.496  0.5013 -0.2367 -0.0149
   48CHL1   H1A 3523   3.521   6.691   6.570 -0.3158 -0.5421  0.8997
   48CHL1   H1B 3524   3.412   6.591   6.465 -0.2849  0.2229 -0.9169
   48CHL1    C2 3525   3.486   6.763   6.370 -0.8827  0.2904  0.0618
   48CHL1   H2A 3526   3.572   6.703   6.332  0.0992  1.2415  0.7346
   48CHL1   H2B 3527   3.528   6.862   6.397 -0.7453 -0.3607  2.3495
   48CHL1   C20 3528   3.117   6.460   7.197 -0.1143 -0.3163 -0.3243
   48CHL1   H20 3529   3.056   6.547   7.230 -0.4707 -0.9696  0.8063
   48CHL1   C21 3530   3.261   6.474   7.234  0.2579  0.1038  0.1571
   48CHL1  H21A 3531   3.318   6.391   7.189  2.1338  1.0961  0.6255
   48CHL1  H21B 3532   3.281   6.452   7.341  0.7107  0.2801  0.1114
   48CHL1  H21C 3533   3.304   6.571   7.199 -0.0572 -0.3678 -1.5736
   48CHL1   C22 3534   3.035   6.341   7.265 -0.1351 -0.1291 -1.0076
   48CHL1  H22A 3535   2.930   6.347   7.228 -1.3553 -0.9417  2.1466
   48CHL1  H22B 3536   3.077   6.240   7.247  2.0649  0.6003 -0.1896
   48CHL1   C23 3537   3.027   6.342   7.427  0.4221 -0.4125  0.1134
   48CHL1  H23A 3538   2.984   6.242   7.450 -0.5317  0.1693  0.8659
   48CHL1  H23B 3539   3.128   6.355   7.472  0.7554 -0.3561 -0.6361
   48CHL1   C24 3540   2.941   6.454   7.484  0.2004  0.2251 -0.1516
   48CHL1  H24A 3541   2.980   6.555   7.462  1.5756 -0.2015  0.2938
   48CHL1  H24B 3542   2.852   6.466   7.418  0.7115 -0.7501 -1.0311
   48CHL1   C25 3543   2.896   6.436   7.627  0.3074 -0.7298  0.3007
   48CHL1   H25 3544   2.868   6.329   7.641  4.5147 -1.9467 -0.0180
   48CHL1   C26 3545   3.006   6.487   7.726 -0.1516 -0.8412 -1.0818
   48CHL1  H26A 3546   3.019   6.595   7.709  1.0587 -0.5582  1.4365
   48CHL1  H26B 3547   2.970   6.485   7.831  0.2485 -1.7931 -0.9573
   48CHL1  H26C 3548   3.101   6.430   7.718 -0.8173 -1.7125 -3.3024
   48CHL1   C27 3549   2.773   6.523   7.643 -0.2569 -0.3355 -0.3809
   48CHL1  H27A 3550   2.796   6.632   7.644  0.5021 -0.4957 -0.3145
   48CHL1  H27B 3551   2.695   6.503   7.566 -0.1574 -0.8625 -0.3477
   48CHL1  H27C 3552   2.735   6.495   7.744 -0.1945 -3.2818 -1.1466
   49CHL1    C3 3553   2.318   0.426   6.297  0.4510 -0.3360  0.1438
   49CHL1    H3 3554   2.380   0.518   6.300  0.7981 -0.5625 -0.0897
   49CHL1    O3 3555   2.256   0.401   6.178  0.1434  0.0035  0.2058
   49CHL1   H3' 3556   2.162   0.416   6.191 -0.1343  0.1077 -1.7600
   49CHL1    C4 3557   2.383   0.296   6.340 -0.3313  0.5812 -0.3255
   49CHL1   H4A 3558   2.303   0.219   6.343  1.4132 -1.3225 -1.3231
   49CHL1   H4B 3559   2.461   0.261   6.270  1.7677  2.3246  1.0551
   49CHL1    C5 3560   2.440   0.308   6.481  0.1810 -0.4829  0.3110
   49CHL1    C6 3561   2.570   0.294   6.498 -0.2329  0.3291  0.3623
   49CHL1    H6 3562   2.635   0.260   6.416 -1.5792  0.2920 -0.6925
   49CHL1    C7 3563   2.637   0.316   6.632  0.1645 -0.2759 -0.6419
   49CHL1   H7A 3564   2.724   0.252   6.657  0.9905  0.7015 -1.0022
   49CHL1   H7B 3565   2.679   0.419   6.628 -0.9802  0.1964 -0.9106
   49CHL1    C8 3566   2.526   0.320   6.752 -0.4343 -0.8120  0.2491
   49CHL1    H8 3567   2.490   0.215   6.763 -1.6149 -0.5500 -1.0076
   49CHL1   C14 3568   2.580   0.372   6.879 -0.2972  0.1522  0.6159
   49CHL1   H14 3569   2.623   0.473   6.868 -0.4559 -0.1836 -3.5596
   49CHL1   C15 3570   2.701   0.288   6.926  0.1315 -0.6803  0.0991
   49CHL1  H15A 3571   2.684   0.178   6.920  0.4013 -0.9482  3.3320
   49CHL1  H15B 3572   2.794   0.311   6.870  0.2131  1.0111  0.8834
   49CHL1   C16 3573   2.715   0.321   7.070 -0.0616  0.3467  0.6950
   49CHL1  H16A 3574   2.715   0.221   7.118  0.3832 -0.6210 -1.2332
   49CHL1  H16B 3575   2.805   0.382   7.091  0.8577 -0.8600  0.3412
   49CHL1   C17 3576   2.588   0.411   7.114 -0.4479  0.2680  0.6941
   49CHL1   H17 3577   2.633   0.512   7.097  0.8709  0.2215  3.6598
   49CHL1   C13 3578   2.489   0.373   6.998 -0.0904  0.6037  0.3199
   49CHL1   C18 3579   2.428   0.239   7.030 -1.3488 -0.1648 -0.2135
   49CHL1  H18A 3580   2.502   0.164   7.067 -2.6952 -1.5885 -0.3435
   49CHL1  H18B 3581   2.365   0.243   7.122  0.1979 -2.2856  1.0022
   49CHL1  H18C 3582   2.356   0.206   6.952 -0.7335 -1.3702 -0.2847
   49CHL1   C12 3583   2.373   0.477   6.966  0.3939  0.1010 -0.4380
   49CHL1  H12A 3584   2.310   0.496   7.055  3.3157 -0.3938  1.7872
   49CHL1  H12B 3585   2.428   0.572   6.954  1.6563 -0.5600  0.0569
   49CHL1   C11 3586   2.299   0.437   6.841  0.3036  0.3873  0.4928
   49CHL1  H11A 3587   2.241   0.345   6.864 -2.1835  1.6649 -0.4565
   49CHL1  H11B 3588   2.225   0.513   6.806  0.5698  0.2532 -0.3757
   49CHL1    C9 3589   2.404   0.402   6.723 -0.6344  0.1654 -0.6363
   49CHL1    H9 3590   2.442   0.505   6.701 -1.1516  1.1174  2.6626
   49CHL1   C10 3591   2.337   0.358   6.593  0.3831  0.6801 -0.0754
   49CHL1   C19 3592   2.229   0.239   6.622 -0.3592  0.1626  0.0187
   49CHL1  H19A 3593   2.153   0.287   6.687  1.2872  1.8335  0.7927
   49CHL1  H19B 3594   2.174   0.212   6.530  0.8722 -3.9317  0.3855
   49CHL1  H19C 3595   2.276   0.149   6.667  1.4242  1.0266 -0.0719
   49CHL1    C1 3596   2.258   0.474   6.540  0.3156 -0.3116  0.0052
   49CHL1   H1A 3597   2.180   0.514   6.607  0.9677 -0.5617  0.9212
   49CHL1   H1B 3598   2.325   0.562   6.533  0.4072 -0.4521 -1.0178
   49CHL1    C2 3599   2.204   0.448   6.395 -0.2964 -0.1768 -0.2515
   49CHL1   H2A 3600   2.155   0.542   6.363  0.1883 -0.1067 -0.7954
   49CHL1   H2B 3601   2.126   0.370   6.387 -0.4268 -0.2535  1.4687
   49CHL1   C20 3602   2.562   0.403   7.270  0.3216 -0.7058 -0.2813
   49CHL1   H20 3603   2.530   0.301   7.300 -2.6784  0.3858  0.4339
   49CHL1   C21 3604   2.447   0.496   7.309 -0.2512 -0.7659  0.3850
   49CHL1  H21A 3605   2.353   0.460   7.263  0.5373 -1.6292 -0.5751
   49CHL1  H21B 3606   2.486   0.592   7.268 -0.2992 -0.2551  1.5123
   49CHL1  H21C 3607   2.429   0.513   7.417 -2.9517 -0.5443 -0.0524
   49CHL1   C22 3608   2.694   0.441   7.347 -0.7133 -0.0715  0.6454
   49CHL1  H22A 3609   2.775   0.380   7.302 -0.2387  1.7342 -1.0262
   49CHL1  H22B 3610   2.722   0.547   7.327  1.1935 -0.3220  1.8551
   49CHL1   C23 3611   2.688   0.421   7.494  0.2547 -0.2914  0.3373
   49CHL1  H23A 3612   2.612   0.491   7.535  2.8731  3.9871 -1.8544
   49CHL1  H23B 3613   2.669   0.312   7.510 -2.1629  0.2471  1.3310
   49CHL1   C24 3614   2.815   0.461   7.572  0.3327  0.2761  0.6125
   49CHL1  H24A 3615   2.880   0.372   7.569 -0.9987 -0.6440 -2.2984
   49CHL1  H24B 3616   2.868   0.545   7.523  0.2881 -0.0011  0.0863
   49CHL1   C25 3617   2.790   0.508   7.717 -0.5194  0.2977  0.0650
   49CHL1   H25 3618   2.739   0.606   7.717  0.3150  0.7511 -1.5513
   49CHL1   C26 3619   2.702   0.409   7.796  0.4963 -0.3248  0.0975
   49CHL1  H26A 3620   2.680   0.453   7.896 -0.6422 -1.6735  0.4506
   49CHL1  H26B 3621   2.604   0.399   7.745  0.3098 -1.7613  0.7298
   49CHL1  H26C 3622   2.746   0.308   7.808  0.0800 -0.4224  0.8674
   49CHL1   C27 3623   2.917   0.517   7.794  0.3459 -0.0839  0.5555
   49CHL1  H27A 3624   2.957   0.415   7.811 -1.9092 -1.2905 -1.1279
   49CHL1  H27B 3625   2.983   0.591   7.744 -2.0174 -0.7296 -3.7205
   49CHL1  H27C 3626   2.891   0.564   7.891 -1.1041  3.3041 -1.3931
   50CHL1    C3 3627   1.419   6.634   6.193  0.4230 -0.4648 -0.1088
   50CHL1    H3 3628   1.319   6.647   6.240  0.3814  0.1249 -0.3560
   50CHL1    O3 3629   1.422   6.692   6.066 -0.0836  0.5495  0.7182
   50CHL1   H3' 3630   1.430   6.787   6.079  1.5843  0.2578  1.8335
   50CHL1    C4 3631   1.528   6.695   6.273  0.4562  1.1619  0.4533
   50CHL1   H4A 3632   1.617   6.669   6.212  0.2628  0.0030  0.6666
   50CHL1   H4B 3633   1.509   6.805   6.277  1.5017  1.3803 -0.3424
   50CHL1    C5 3634   1.514   6.643   6.413 -0.2600 -0.0273 -0.5676
   50CHL1    C6 3635   1.488   6.726   6.514 -0.7585  0.2843  0.5619
   50CHL1    H6 3636   1.476   6.834   6.495  0.4550  0.5318  1.1863
   50CHL1    C7 3637   1.492   6.685   6.656 -0.5384  0.8037  0.4374
   50CHL1   H7A 3638   1.550   6.757   6.717 -0.8062  0.5689  0.9716
   50CHL1   H7B 3639   1.388   6.687   6.696 -1.3366 -0.2853 -1.5367
   50CHL1    C8 3640   1.553   6.537   6.678 -0.1471 -0.1402 -0.4776
   50CHL1    H8 3641   1.664   6.528   6.670 -0.3002 -1.3616 -1.4388
   50CHL1   C14 3642   1.511   6.481   6.817  0.3511  0.1076  0.3849
   50CHL1   H14 3643   1.401   6.469   6.819  0.1641  0.5114 -3.3732
   50CHL1   C15 3644   1.543   6.564   6.941  0.3503  0.5758 -0.4263
   50CHL1  H15A 3645   1.652   6.583   6.937  0.1639  1.4399 -1.7293
   50CHL1  H15B 3646   1.487   6.660   6.938 -1.7214 -0.6320 -2.5354
   50CHL1   C16 3647   1.509   6.467   7.056 -0.2230 -0.6930 -0.0106
   50CHL1  H16A 3648   1.596   6.486   7.122 -1.4077 -0.2370  1.4253
   50CHL1  H16B 3649   1.415   6.504   7.103  0.6677 -0.1257  1.3236
   50CHL1   C17 3650   1.505   6.326   6.992 -0.5779 -0.5279  0.0550
   50CHL1   H17 3651   1.397   6.313   6.969 -0.1890  1.8809 -3.4717
   50CHL1   C13 3652   1.558   6.337   6.852  0.1440  0.3261 -0.4059
   50CHL1   C18 3653   1.716   6.326   6.863  0.2259  0.3346  0.3675
   50CHL1  H18A 3654   1.745   6.219   6.868 -0.4837  0.1398  0.4004
   50CHL1  H18B 3655   1.759   6.369   6.770  0.0303  0.2107  0.2194
   50CHL1  H18C 3656   1.757   6.387   6.946  1.1873  0.3556 -0.1282
   50CHL1   C12 3657   1.492   6.251   6.745  0.4752 -0.4068 -0.0995
   50CHL1  H12A 3658   1.521   6.144   6.746 -1.1402 -0.8593  1.1786
   50CHL1  H12B 3659   1.382   6.238   6.751  0.6544 -2.1757 -0.3356
   50CHL1   C11 3660   1.527   6.295   6.599  0.5479  0.5856 -0.2837
   50CHL1  H11A 3661   1.633   6.271   6.577  0.1096 -2.4452  0.7261
   50CHL1  H11B 3662   1.465   6.232   6.532  0.1892  2.1942 -1.5039
   50CHL1    C9 3663   1.496   6.438   6.574  0.2736  0.3480  0.4891
   50CHL1    H9 3664   1.387   6.439   6.592  0.7879  1.3948  3.9846
   50CHL1   C10 3665   1.526   6.487   6.431  0.2173  0.3571 -0.1332
   50CHL1   C19 3666   1.670   6.449   6.400 -0.1995  0.1722 -0.6273
   50CHL1  H19A 3667   1.677   6.341   6.373 -3.4929 -0.1392 -0.4332
   50CHL1  H19B 3668   1.710   6.514   6.319  1.1413  1.0070  0.6642
   50CHL1  H19C 3669   1.740   6.482   6.480 -1.4173  0.4211  0.3470
   50CHL1    C1 3670   1.439   6.418   6.328 -0.4608 -0.1634  0.3051
   50CHL1   H1A 3671   1.461   6.310   6.320 -0.7892 -0.3197  1.4839
   50CHL1   H1B 3672   1.335   6.424   6.365 -0.1394 -1.1099  1.3708
   50CHL1    C2 3673   1.448   6.476   6.187 -0.1927 -0.1922  0.0785
   50CHL1   H2A 3674   1.363   6.436   6.128 -1.3983 -1.4454  2.5961
   50CHL1   H2B 3675   1.547   6.455   6.142  0.3941  1.8599  0.3565
   50CHL1   C20 3676   1.551   6.226   7.091 -0.4184 -0.0894 -1.1200
   50CHL1   H20 3677   1.661   6.237   7.103 -0.6524  0.7188  0.3838
   50CHL1   C21 3678   1.536   6.082   7.025  0.7070 -0.3103 -0.1931
   50CHL1  H21A 3679   1.600   6.065   6.936  0.8825 -0.3002 -0.0677
   50CHL1  H21B 3680   1.432   6.066   6.989 -0.3835  0.2897  2.5513
   50CHL1  H21C 3681   1.570   6.003   7.094  2.7667  0.2684 -0.5219
   50CHL1   C22 3682   1.474   6.221   7.223 -0.7544 -0.5602  0.5507
   50CHL1  H22A 3683   1.365   6.209   7.207 -0.5681 -1.0464 -0.3702
   50CHL1  H22B 3684   1.490   6.123   7.272  0.4667  1.2897  4.0387
   50CHL1   C23 3685   1.521   6.318   7.337  0.8807 -0.0427 -0.3059
   50CHL1  H23A 3686   1.617   6.280   7.378  0.5079 -0.4542  0.1925
   50CHL1  H23B 3687   1.537   6.423   7.305  1.0733  0.0138 -0.0312
   50CHL1   C24 3688   1.407   6.344   7.437 -0.2424 -0.0178 -0.0819
   50CHL1  H24A 3689   1.322   6.387   7.380  0.5808  1.1535 -0.4492
   50CHL1  H24B 3690   1.377   6.245   7.478  0.7115 -0.3235 -0.1249
   50CHL1   C25 3691   1.443   6.437   7.555  0.4959 -0.0931 -0.0772
   50CHL1   H25 3692   1.532   6.385   7.598 -0.5396 -0.1245  2.1282
   50CHL1   C26 3693   1.485   6.582   7.525  0.1586  0.3148  0.0094
   50CHL1  H26A 3694   1.519   6.593   7.420  4.9177  1.8470  1.6097
   50CHL1  H26B 3695   1.391   6.641   7.533 -0.3228 -0.5882  1.0619
   50CHL1  H26C 3696   1.551   6.621   7.605 -0.5640  1.5496  0.0254
   50CHL1   C27 3697   1.331   6.442   7.664  0.1490  0.1474  0.2997
   50CHL1  H27A 3698   1.241   6.490   7.620  0.0632 -1.3845 -1.2427
   50CHL1  H27B 3699   1.319   6.338   7.698  0.3439  1.2101  3.7689
   50CHL1  H27C 3700   1.358   6.501   7.754  1.4803  0.2050 -0.1337
   51CHL1    C3 3701   2.104   7.022   6.201  0.7054  0.6908 -0.2449
   51CHL1    H3 3702   2.163   7.090   6.267 -1.3216  0.0825  2.2663
   51CHL1    O3 3703   2.074   7.090   6.085 -0.0797  0.0722  0.1194
   51CHL1   H3' 3704   2.004   7.036   6.049  1.0653 -2.5069  1.6325
   51CHL1    C4 3705   2.191   6.902   6.167  0.1719  0.4373  0.3904
   51CHL1   H4A 3706   2.136   6.843   6.090  0.2974  0.2564  0.4404
   51CHL1   H4B 3707   2.282   6.943   6.119  0.1252 -0.1384 -0.2006
   51CHL1    C5 3708   2.210   6.823   6.303 -0.2618  0.4487 -0.7132
   51CHL1    C6 3709   2.331   6.808   6.350  0.6560 -0.2436  0.0342
   51CHL1    H6 3710   2.418   6.850   6.297 -0.2873 -0.7209 -1.9288
   51CHL1    C7 3711   2.369   6.733   6.473 -0.1248  0.0499 -0.0361
   51CHL1   H7A 3712   2.461   6.677   6.448 -1.1012 -1.7233  0.2241
   51CHL1   H7B 3713   2.397   6.809   6.549 -0.4520  0.2702 -0.1313
   51CHL1    C8 3714   2.256   6.636   6.524 -0.2249 -0.7807  0.0184
   51CHL1    H8 3715   2.255   6.553   6.450 -0.3493 -0.0843 -0.7752
   51CHL1   C14 3716   2.284   6.586   6.666  0.8893  0.5912  0.5515
   51CHL1   H14 3717   2.272   6.667   6.740 -1.0187  0.1995  0.6999
   51CHL1   C15 3718   2.417   6.513   6.700  0.4267 -0.0058 -0.1848
   51CHL1  H15A 3719   2.439   6.434   6.626 -0.2507 -0.9741  0.6277
   51CHL1  H15B 3720   2.499   6.587   6.701 -0.1396  0.6294  0.2003
   51CHL1   C16 3721   2.391   6.454   6.832 -0.4281 -0.9518 -1.2967
   51CHL1  H16A 3722   2.429   6.350   6.841 -0.3156 -0.7771  0.3226
   51CHL1  H16B 3723   2.435   6.519   6.910 -0.4828  0.1293 -2.1496
   51CHL1   C17 3724   2.237   6.464   6.856  0.0042 -1.0731  0.0995
   51CHL1   H17 3725   2.218   6.553   6.919  0.9997 -0.7669 -0.0328
   51CHL1   C13 3726   2.174   6.494   6.720 -0.5153 -0.0167  0.4463
   51CHL1   C18 3727   2.159   6.367   6.632  0.0143  0.9130  0.1549
   51CHL1  H18A 3728   2.103   6.394   6.539  1.1351  1.5288 -0.3571
   51CHL1  H18B 3729   2.263   6.340   6.601 -1.1264 -2.2005 -1.2130
   51CHL1  H18C 3730   2.115   6.297   6.705  2.6738 -0.0357  0.9221
   51CHL1   C12 3731   2.051   6.574   6.720 -0.0121  0.1686 -0.5665
   51CHL1  H12A 3732   1.969   6.512   6.760 -1.4109  0.6487 -2.6031
   51CHL1  H12B 3733   2.068   6.659   6.789  1.7837  0.0984 -0.8945
   51CHL1   C11 3734   2.013   6.621   6.582 -0.3564 -0.5054 -0.3496
   51CHL1  H11A 3735   1.979   6.540   6.515  1.3687 -1.5946  0.0504
   51CHL1  H11B 3736   1.924   6.688   6.588  0.6369  0.7612  0.5909
   51CHL1    C9 3737   2.124   6.711   6.517 -0.1019  0.0623 -0.2927
   51CHL1    H9 3738   2.132   6.804   6.577  1.9211 -0.1906 -0.1118
   51CHL1   C10 3739   2.089   6.773   6.380  0.0328  0.3267  0.0144
   51CHL1   C19 3740   2.022   6.660   6.293  0.0132  0.1759 -0.4892
   51CHL1  H19A 3741   2.004   6.684   6.186  1.6950  0.3251 -0.7620
   51CHL1  H19B 3742   2.078   6.564   6.306 -1.4064 -0.3046  2.2580
   51CHL1  H19C 3743   1.922   6.644   6.337  0.3915 -0.0735  0.2803
   51CHL1    C1 3744   1.989   6.894   6.399 -0.6793 -0.4308  0.6110
   51CHL1   H1A 3745   1.893   6.862   6.445 -1.5045 -0.8295 -1.3482
   51CHL1   H1B 3746   2.045   6.966   6.463  1.8846 -1.9091  0.0944
   51CHL1    C2 3747   1.974   6.978   6.270 -0.3590 -0.0208  0.1870
   51CHL1   H2A 3748   1.913   7.069   6.287  1.3425  0.7493  2.3515
   51CHL1   H2B 3749   1.913   6.914   6.202 -0.1980  0.7689 -0.7228
   51CHL1   C20 3750   2.191   6.351   6.957  0.0673  0.8133  0.3180
   51CHL1   H20 3751   2.213   6.254   6.908 -1.5793 -0.0939  1.3084
   51CHL1   C21 3752   2.050   6.377   7.013 -0.0244  0.1520 -0.1052
   51CHL1  H21A 3753   2.055   6.466   7.079 -1.2410 -0.2554  0.5564
   51CHL1  H21B 3754   2.036   6.296   7.088  1.2675 -1.8860 -1.9995
   51CHL1  H21C 3755   1.972   6.379   6.934  0.5045  2.7559 -0.5854
   51CHL1   C22 3756   2.278   6.348   7.085 -0.2030  0.8847  0.5483
   51CHL1  H22A 3757   2.383   6.357   7.051  0.5919 -2.0690  2.0802
   51CHL1  H22B 3758   2.254   6.435   7.151  1.0110  3.3776 -2.1931
   51CHL1   C23 3759   2.281   6.222   7.172  0.3973 -0.6141  0.5899
   51CHL1  H23A 3760   2.176   6.215   7.210  0.4653  0.4409  1.0126
   51CHL1  H23B 3761   2.302   6.136   7.106  3.6236  2.3804 -2.4764
   51CHL1   C24 3762   2.372   6.216   7.298  0.7084  0.0246  0.2181
   51CHL1  H24A 3763   2.350   6.304   7.362  0.5776 -0.9387  1.5065
   51CHL1  H24B 3764   2.376   6.129   7.366 -1.7150 -0.3776 -0.1094
   51CHL1   C25 3765   2.523   6.228   7.259 -0.4741  0.1911  0.6039
   51CHL1   H25 3766   2.534   6.319   7.196  0.3564 -0.5290 -0.3168
   51CHL1   C26 3767   2.610   6.237   7.387 -1.0012 -0.7810 -0.3890
   51CHL1  H26A 3768   2.577   6.326   7.445 -0.4513 -1.2561  0.6708
   51CHL1  H26B 3769   2.592   6.151   7.455 -1.8348  0.6630  1.2489
   51CHL1  H26C 3770   2.715   6.260   7.360 -0.6658  0.0041  1.5413
   51CHL1   C27 3771   2.567   6.122   7.158  0.2408 -0.7932 -0.0648
   51CHL1  H27A 3772   2.541   6.017   7.183  2.0532 -1.4758 -0.9122
   51CHL1  H27B 3773   2.517   6.151   7.064 -1.0819 -0.7490  0.6334
   51CHL1  H27C 3774   2.676   6.127   7.138  0.4210 -0.6242  0.9069
   52CHL1    C3 3775   5.782   0.629   6.209 -0.8099 -0.2588 -0.1446
   52CHL1    H3 3776   5.745   0.733   6.201 -2.7910 -1.0419 -1.4694
   52CHL1    O3 3777   5.853   0.586   6.100  0.1821  0.7326  0.3845
   52CHL1   H3' 3778   5.880   0.496   6.122  0.2538  0.6856  0.1003
   52CHL1    C4 3779   5.878   0.642   6.324  0.1233  0.4447 -0.0845
   52CHL1   H4A 3780   5.935   0.547   6.333  0.0139  0.1739 -2.0177
   52CHL1   H4B 3781   5.952   0.725   6.314 -1.1301  1.6226  0.2594
   52CHL1    C5 3782   5.802   0.657   6.462  0.4900 -0.2382 -0.3261
   52CHL1    C6 3783   5.842   0.750   6.554 -0.0310 -0.2908 -0.1994
   52CHL1    H6 3784   5.925   0.816   6.524 -1.5185  1.1388 -1.2874
   52CHL1    C7 3785   5.776   0.783   6.683 -0.6032 -0.0474  0.3940
   52CHL1   H7A 3786   5.858   0.789   6.757  0.9461  0.2777 -1.3200
   52CHL1   H7B 3787   5.721   0.878   6.668  0.4262  0.6648  1.0431
   52CHL1    C8 3788   5.696   0.661   6.729 -0.3606 -0.7445 -0.0252
   52CHL1    H8 3789   5.760   0.578   6.764 -2.6751 -2.5180  0.1021
   52CHL1   C14 3790   5.604   0.697   6.848 -0.2371  0.2429  0.4808
   52CHL1   H14 3791   5.524   0.764   6.808 -1.0355 -1.0792 -0.1768
   52CHL1   C15 3792   5.659   0.773   6.970  0.4335  0.1823  0.0798
   52CHL1  H15A 3793   5.763   0.739   6.984 -0.0897 -1.7248 -0.4592
   52CHL1  H15B 3794   5.653   0.883   6.958 -1.8320  0.2099  1.1237
   52CHL1   C16 3795   5.564   0.732   7.084 -0.2437  1.0135 -0.6900
   52CHL1  H16A 3796   5.619   0.674   7.161 -0.4037 -2.0603 -2.7861
   52CHL1  H16B 3797   5.532   0.823   7.139  0.1875 -0.6645  2.4580
   52CHL1   C17 3798   5.442   0.658   7.017  0.6061 -0.3710  0.0212
   52CHL1   H17 3799   5.378   0.737   6.972 -0.7677 -1.1882  0.5248
   52CHL1   C13 3800   5.510   0.583   6.904 -0.6053  0.3085 -0.6010
   52CHL1   C18 3801   5.587   0.468   6.963 -0.0430  0.2546  0.5692
   52CHL1  H18A 3802   5.523   0.392   7.012 -0.1865 -2.0388 -3.0295
   52CHL1  H18B 3803   5.650   0.417   6.887 -1.5358 -1.4710  0.4764
   52CHL1  H18C 3804   5.663   0.499   7.038  1.5735 -0.1580 -0.8615
   52CHL1   C12 3805   5.426   0.525   6.784 -0.3763  0.5624  0.1886
   52CHL1  H12A 3806   5.379   0.432   6.822 -3.7181  0.8927 -2.8067
   52CHL1  H12B 3807   5.360   0.611   6.758  1.3221  1.0953 -2.5334
   52CHL1   C11 3808   5.509   0.486   6.662 -0.2369 -0.1021 -0.0803
   52CHL1  H11A 3809   5.567   0.394   6.684  0.4056 -0.3444 -2.6673
   52CHL1  H11B 3810   5.444   0.458   6.577  1.0580  0.4552 -1.2700
   52CHL1    C9 3811   5.604   0.604   6.614 -0.4904 -0.5670  0.0236
   52CHL1    H9 3812   5.531   0.684   6.593  0.2634  0.2249  0.4049
   52CHL1   C10 3813   5.683   0.562   6.482 -0.4186 -0.8232  0.1727
   52CHL1   C19 3814   5.731   0.415   6.503 -0.1129  0.9625 -0.5650
   52CHL1  H19A 3815   5.644   0.347   6.496  0.0527  0.7033 -0.1198
   52CHL1  H19B 3816   5.817   0.382   6.442 -0.1703  1.1261 -0.7341
   52CHL1  H19C 3817   5.765   0.412   6.609 -0.1198  0.9028 -0.5648
   52CHL1    C1 3818   5.594   0.563   6.360 -0.4178  0.8564 -0.9965
   52CHL1   H1A 3819   5.514   0.490   6.383 -0.1283  1.1885  1.1775
   52CHL1   H1B 3820   5.544   0.661   6.342  0.6447  1.1759 -2.3071
   52CHL1    C2 3821   5.670   0.530   6.231  0.8095 -0.2318  1.1140
   52CHL1   H2A 3822   5.594   0.527   6.150  1.2120  2.4908  0.5937
   52CHL1   H2B 3823   5.700   0.423   6.242  0.7323 -0.2558  1.0909
   52CHL1   C20 3824   5.344   0.583   7.116 -0.1440 -0.1285 -0.1420
   52CHL1   H20 3825   5.400   0.498   7.160 -2.6430 -1.7346  0.0387
   52CHL1   C21 3826   5.220   0.521   7.046  0.0757 -0.2788  0.4206
   52CHL1  H21A 3827   5.143   0.492   7.121 -0.6000  0.4214  0.0026
   52CHL1  H21B 3828   5.255   0.441   6.977  0.2446 -0.5080  0.7676
   52CHL1  H21C 3829   5.172   0.600   6.985  2.8778  0.1404 -1.3630
   52CHL1   C22 3830   5.311   0.679   7.232 -0.0931 -0.5765  0.5679
   52CHL1  H22A 3831   5.391   0.743   7.275 -0.8682 -0.1197  1.3381
   52CHL1  H22B 3832   5.225   0.746   7.214  1.2987  1.5462  1.7125
   52CHL1   C23 3833   5.263   0.607   7.365  0.1521  0.8395  0.3831
   52CHL1  H23A 3834   5.177   0.538   7.350  1.6713 -1.0622  0.2511
   52CHL1  H23B 3835   5.338   0.531   7.397  0.0868  0.2871 -0.7374
   52CHL1   C24 3836   5.244   0.690   7.490  0.6669 -0.1969  0.4586
   52CHL1  H24A 3837   5.327   0.764   7.491 -0.5338  1.1902 -0.4678
   52CHL1  H24B 3838   5.148   0.745   7.484 -0.6817 -2.6067 -0.5558
   52CHL1   C25 3839   5.238   0.621   7.630  0.1292  0.0259  0.1039
   52CHL1   H25 3840   5.161   0.541   7.637  1.0913 -0.7881  1.5941
   52CHL1   C26 3841   5.364   0.546   7.668  0.0687  0.8852  0.0266
   52CHL1  H26A 3842   5.382   0.485   7.577 -0.7002  0.5656  0.0764
   52CHL1  H26B 3843   5.454   0.610   7.675  0.7563 -0.0355 -0.2704
   52CHL1  H26C 3844   5.362   0.489   7.764  1.1979 -1.9625 -1.6076
   52CHL1   C27 3845   5.206   0.727   7.736 -0.2033  0.9684  0.4973
   52CHL1  H27A 3846   5.139   0.801   7.687 -0.7290  1.2813  1.6757
   52CHL1  H27B 3847   5.159   0.682   7.826 -1.6629  1.1138 -0.1646
   52CHL1  H27C 3848   5.301   0.779   7.760  0.8257 -1.2105  1.2903
   53CHL1    C3 3849   7.031   6.347   6.379  0.2085  0.0525 -0.0172
   53CHL1    H3 3850   6.942   6.408   6.350  0.7245  1.4099  1.1904
   53CHL1    O3 3851   7.096   6.293   6.261 -0.3304 -0.1443 -0.8141
   53CHL1   H3' 3852   7.184   6.271   6.292 -0.8106 -0.2679  0.4889
   53CHL1    C4 3853   7.122   6.431   6.457  0.7077 -0.2242 -0.0961
   53CHL1   H4A 3854   7.219   6.377   6.464  0.0620 -1.1528  2.2560
   53CHL1   H4B 3855   7.139   6.518   6.390  1.6014 -1.5633 -1.6316
   53CHL1    C5 3856   7.073   6.481   6.595  0.1106 -0.7607 -0.1304
   53CHL1    C6 3857   7.070   6.609   6.624 -0.3164 -0.4031 -0.0186
   53CHL1    H6 3858   7.118   6.684   6.560 -2.1070  1.7452  1.0865
   53CHL1    C7 3859   7.037   6.659   6.765  0.2952  0.7730  0.3497
   53CHL1   H7A 3860   7.117   6.726   6.803  1.2647  1.4411 -2.6855
   53CHL1   H7B 3861   6.942   6.714   6.751  0.4289  0.6427 -1.2067
   53CHL1    C8 3862   7.013   6.548   6.870  0.1042 -0.3626 -0.3218
   53CHL1    H8 3863   7.117   6.518   6.897 -0.0348 -1.6664 -1.2034
   53CHL1   C14 3864   6.936   6.594   6.989  0.7508  0.6930 -0.2501
   53CHL1   H14 3865   6.842   6.633   6.945  2.2218  2.2958 -2.0743
   53CHL1   C15 3866   6.996   6.716   7.057  1.1162 -0.4102 -0.7319
   53CHL1  H15A 3867   7.106   6.716   7.042  1.1754  1.2381 -0.3814
   53CHL1  H15B 3868   6.968   6.808   7.002  0.0637 -0.7494 -0.7602
   53CHL1   C16 3869   6.929   6.717   7.196 -0.5246  1.0666 -0.2283
   53CHL1  H16A 3870   7.010   6.735   7.269 -1.6659 -2.0092  1.8956
   53CHL1  H16B 3871   6.854   6.798   7.210 -0.6417  1.3911 -2.5148
   53CHL1   C17 3872   6.866   6.577   7.218 -0.8390 -0.7557 -0.2078
   53CHL1   H17 3873   6.759   6.597   7.197 -0.4937  0.7525 -0.6046
   53CHL1   C13 3874   6.920   6.488   7.092  0.3284 -0.2396 -0.7528
   53CHL1   C18 3875   7.061   6.436   7.136  0.5715  0.5825 -0.0691
   53CHL1  H18A 3876   7.123   6.517   7.180  1.8482 -1.5175  2.1316
   53CHL1  H18B 3877   7.057   6.364   7.221 -2.8004 -1.6790 -2.0560
   53CHL1  H18C 3878   7.114   6.394   7.048 -0.1531 -0.0679 -0.2000
   53CHL1   C12 3879   6.830   6.376   7.030 -0.3837 -0.1353  0.0958
   53CHL1  H12A 3880   6.809   6.289   7.095  2.1023 -1.0565 -0.2658
   53CHL1  H12B 3881   6.727   6.410   7.010  0.0262  1.6615  0.9325
   53CHL1   C11 3882   6.890   6.323   6.906 -0.2873 -0.2511 -0.2410
   53CHL1  H11A 3883   6.981   6.266   6.934 -0.7468  0.1920  2.3169
   53CHL1  H11B 3884   6.831   6.243   6.856 -0.2053  0.9837 -2.3660
   53CHL1    C9 3885   6.937   6.424   6.804 -0.2441  0.6576  0.7736
   53CHL1    H9 3886   6.840   6.465   6.767 -1.1838  1.1183  3.6109
   53CHL1   C10 3887   7.010   6.363   6.681 -0.1953 -0.2082  0.6295
   53CHL1   C19 3888   7.130   6.273   6.734 -0.2896  0.6556  0.4051
   53CHL1  H19A 3889   7.184   6.239   6.643 -0.8212 -1.5584  0.9121
   53CHL1  H19B 3890   7.203   6.341   6.784  0.6260 -0.4434  0.5620
   53CHL1  H19C 3891   7.097   6.189   6.797 -1.2229 -0.3833 -1.4236
   53CHL1    C1 3892   6.912   6.270   6.594 -0.5370  0.0874  0.1625
   53CHL1   H1A 3893   6.885   6.183   6.657  0.7064 -0.5655 -0.1790
   53CHL1   H1B 3894   6.828   6.335   6.565  0.2631  0.8528 -0.4481
   53CHL1    C2 3895   6.984   6.228   6.468 -0.1627 -0.1533  0.4174
   53CHL1   H2A 3896   6.914   6.166   6.408  0.8102 -0.5190 -0.3642
   53CHL1   H2B 3897   7.069   6.160   6.490  0.4101 -0.5529 -2.8109
   53CHL1   C20 3898   6.875   6.521   7.354 -0.7852 -0.8954  0.5666
   53CHL1   H20 3899   6.982   6.492   7.366 -0.7103 -0.7936  0.1613
   53CHL1   C21 3900   6.793   6.392   7.366 -0.1396  0.6212 -0.5396
   53CHL1  H21A 3901   6.807   6.349   7.468  2.0744  0.8695 -0.7223
   53CHL1  H21B 3902   6.837   6.311   7.305  1.7715 -0.4019  2.0914
   53CHL1  H21C 3903   6.688   6.398   7.328 -0.0717  0.2564 -0.7906
   53CHL1   C22 3904   6.828   6.614   7.470 -0.2095  0.3119 -0.2312
   53CHL1  H22A 3905   6.864   6.719   7.459 -0.0535  0.3077  0.2453
   53CHL1  H22B 3906   6.718   6.630   7.461  0.0256  2.1632 -0.0267
   53CHL1   C23 3907   6.860   6.566   7.613 -0.2166  0.1783 -0.4662
   53CHL1  H23A 3908   6.809   6.472   7.641  0.7375 -0.4341 -0.7653
   53CHL1  H23B 3909   6.970   6.552   7.614 -0.3610 -0.9036  0.5944
   53CHL1   C24 3910   6.808   6.663   7.730  0.0085 -0.3425 -0.2799
   53CHL1  H24A 3911   6.837   6.769   7.713  0.4423 -0.6935 -1.7390
   53CHL1  H24B 3912   6.698   6.644   7.733 -0.0804  0.2420  0.5080
   53CHL1   C25 3913   6.860   6.634   7.875  0.1444  0.3367 -0.2197
   53CHL1   H25 3914   6.829   6.722   7.935  0.9039 -0.3959  1.2639
   53CHL1   C26 3915   6.803   6.510   7.944  0.0805  0.0348  0.2147
   53CHL1  H26A 3916   6.843   6.509   8.048 -1.9042  1.0105  1.0129
   53CHL1  H26B 3917   6.692   6.515   7.939  0.0560 -0.9202 -0.1154
   53CHL1  H26C 3918   6.830   6.417   7.891  0.4177  1.3262 -1.9464
   53CHL1   C27 3919   7.011   6.634   7.893 -0.1887  0.1032 -0.0724
   53CHL1  H27A 3920   7.049   6.672   7.991 -0.3516 -0.2816  0.1409
   53CHL1  H27B 3921   7.054   6.533   7.874 -1.1717 -0.3039 -0.1280
   53CHL1  H27C 3922   7.052   6.709   7.822 -1.8493 -0.4097 -1.5837
   54CHL1    C3 3923   0.918   6.490   6.192 -0.6559 -0.5129  0.1250
   54CHL1    H3 3924   0.838   6.545   6.246 -0.4561  0.0566 -0.1448
   54CHL1    O3 3925   0.936   6.530   6.053 -0.7705 -0.3671 -0.2737
   54CHL1   H3' 3926   0.984   6.613   6.055  0.8063 -1.2805  0.8988
   54CHL1    C4 3927   1.060   6.511   6.261  0.9243  0.7572 -0.4220
   54CHL1   H4A 3928   1.141   6.456   6.208  1.1436  0.8792 -0.2134
   54CHL1   H4B 3929   1.094   6.617   6.255  3.0674  0.0751 -0.7819
   54CHL1    C5 3930   1.046   6.452   6.397  0.0044  0.3257 -0.0060
   54CHL1    C6 3931   1.073   6.524   6.505  0.9181 -0.2798 -0.4959
   54CHL1    H6 3932   1.109   6.627   6.491  1.1210 -0.4171 -0.9573
   54CHL1    C7 3933   1.069   6.483   6.649  1.2486 -0.0726 -0.0518
   54CHL1   H7A 3934   1.162   6.520   6.697 -0.3564  2.7982  0.9586
   54CHL1   H7B 3935   0.982   6.539   6.690  0.4631  0.2069 -2.0393
   54CHL1    C8 3936   1.063   6.329   6.655 -0.7557  0.6422 -0.3350
   54CHL1    H8 3937   1.168   6.293   6.649 -0.9669  0.2354 -1.7620
   54CHL1   C14 3938   1.016   6.284   6.800  0.2961  0.2535  0.0479
   54CHL1   H14 3939   0.909   6.315   6.810  0.8433  1.8891  0.9731
   54CHL1   C15 3940   1.085   6.352   6.913 -0.3271  0.5486  0.1840
   54CHL1  H15A 3941   1.195   6.345   6.896 -0.0864  1.0888  1.4647
   54CHL1  H15B 3942   1.066   6.459   6.935  1.7755  1.0607 -0.3303
   54CHL1   C16 3943   1.044   6.260   7.026 -0.3975 -0.0598  0.3488
   54CHL1  H16A 3944   1.141   6.247   7.079 -0.9492 -3.3021  0.6526
   54CHL1  H16B 3945   0.971   6.312   7.093 -1.3448 -1.7310  0.6576
   54CHL1   C17 3946   0.978   6.128   6.970  0.0164 -0.2228 -0.4240
   54CHL1   H17 3947   0.869   6.149   6.971  0.0993  0.2963 -1.4241
   54CHL1   C13 3948   1.018   6.132   6.825  0.2544 -0.5565  0.1449
   54CHL1   C18 3949   1.160   6.080   6.804 -0.0512 -0.4016  0.9915
   54CHL1  H18A 3950   1.169   5.970   6.816 -1.1602 -0.7163 -0.9015
   54CHL1  H18B 3951   1.199   6.105   6.703 -0.6483 -1.7910  0.4128
   54CHL1  H18C 3952   1.219   6.122   6.889  0.9677 -2.7819  1.5276
   54CHL1   C12 3953   0.904   6.080   6.733 -0.5068 -0.8711 -0.3248
   54CHL1  H12A 3954   0.886   5.971   6.743 -0.9336 -0.5075  3.4075
   54CHL1  H12B 3955   0.819   6.145   6.761 -0.0922 -1.2111  1.7631
   54CHL1   C11 3956   0.945   6.104   6.583  0.4307  0.2243  0.1311
   54CHL1  H11A 3957   1.037   6.044   6.567  0.7989  0.7665  0.2155
   54CHL1  H11B 3958   0.856   6.074   6.523  0.2046  0.7865  0.1768
   54CHL1    C9 3959   0.966   6.263   6.555 -0.8376  0.1435 -0.0454
   54CHL1    H9 3960   0.866   6.302   6.582  0.0288  0.9441  2.1384
   54CHL1   C10 3961   0.999   6.298   6.409 -0.2647 -0.2843  0.0750
   54CHL1   C19 3962   1.116   6.206   6.359  0.3049 -0.2902 -0.2638
   54CHL1  H19A 3963   1.202   6.210   6.429 -1.8595  0.6809  2.4581
   54CHL1  H19B 3964   1.085   6.100   6.360 -2.7634  0.5554  0.3699
   54CHL1  H19C 3965   1.140   6.229   6.253  0.8454 -1.3761 -0.3839
   54CHL1    C1 3966   0.870   6.282   6.313 -0.4995  0.5432 -0.3971
   54CHL1   H1A 3967   0.848   6.173   6.312 -1.7523  0.8119 -1.9724
   54CHL1   H1B 3968   0.793   6.331   6.376 -1.3125  0.0976 -1.0344
   54CHL1    C2 3969   0.879   6.347   6.175 -0.0026 -0.0034  0.0192
   54CHL1   H2A 3970   0.785   6.325   6.120 -0.3731 -2.3313  1.4870
   54CHL1   H2B 3971   0.958   6.287   6.125  1.8127  2.1630  0.1843
   54CHL1   C20 3972   1.015   6.011   7.063 -0.0208 -0.0412  0.1958
   54CHL1   H20 3973   1.125   6.003   7.069  0.2462  3.0819  0.4977
   54CHL1   C21 3974   0.959   5.882   6.997 -0.7047 -0.5862  0.3656
   54CHL1  H21A 3975   0.973   5.798   7.068  1.2205  0.6121  1.4438
   54CHL1  H21B 3976   1.003   5.860   6.897 -1.2090 -1.0486  0.2446
   54CHL1  H21C 3977   0.850   5.891   6.981 -0.5200  0.9677 -0.1209
   54CHL1   C22 3978   0.958   6.032   7.210 -0.0153  0.0326  0.4017
   54CHL1  H22A 3979   1.020   6.115   7.251  0.1096  0.2722 -0.2666
   54CHL1  H22B 3980   0.851   6.059   7.215 -0.0945 -0.3749  1.0847
   54CHL1   C23 3981   0.973   5.904   7.304  0.1668  0.5951  0.1799
   54CHL1  H23A 3982   0.895   5.827   7.286  1.7592 -0.8019 -0.8615
   54CHL1  H23B 3983   1.063   5.842   7.284  0.8109  1.7847 -0.6930
   54CHL1   C24 3984   0.957   5.922   7.457  0.7235  0.4711  0.2411
   54CHL1  H24A 3985   0.850   5.947   7.473  0.9800  1.4851  0.3726
   54CHL1  H24B 3986   0.969   5.820   7.501  0.3569  1.1375  1.9118
   54CHL1   C25 3987   1.060   6.017   7.525  0.6812  0.6482  0.0075
   54CHL1   H25 3988   1.082   6.105   7.461  2.0725  1.3431  1.4202
   54CHL1   C26 3989   0.997   6.062   7.653 -0.2058 -0.2665 -0.0469
   54CHL1  H26A 3990   0.987   5.974   7.720 -1.0495  0.1670  0.3991
   54CHL1  H26B 3991   1.059   6.136   7.709 -0.9823  0.1843  0.2257
   54CHL1  H26C 3992   0.895   6.105   7.641  0.3110  0.9517 -0.2016
   54CHL1   C27 3993   1.194   5.955   7.550 -0.1811 -0.5442 -0.3332
   54CHL1  H27A 3994   1.262   6.028   7.600 -0.0701  0.1480 -1.4692
   54CHL1  H27B 3995   1.190   5.857   7.602 -1.7265 -0.3531 -0.0661
   54CHL1  H27C 3996   1.244   5.930   7.454  0.3693  1.3566 -0.5745
   55CHL1    C3 3997   0.215   1.539   6.314  0.7053  0.1415 -0.7266
   55CHL1    H3 3998   0.259   1.454   6.371 -0.5549  1.5184  2.4562
   55CHL1    O3 3999   0.177   1.507   6.186 -0.2291  0.7217  0.4963
   55CHL1   H3' 4000   0.166   1.586   6.133 -1.2283 -0.3762 -0.9501
   55CHL1    C4 4001   0.103   1.604   6.386 -0.6219  0.1922  0.1164
   55CHL1   H4A 4002   0.086   1.702   6.338  2.8366  2.0280  2.4275
   55CHL1   H4B 4003   0.005   1.552   6.384 -0.3478 -0.3157 -0.2561
   55CHL1    C5 4004   0.141   1.642   6.531  0.2359  0.2445 -0.8017
   55CHL1    C6 4005   0.089   1.591   6.645  0.2475  0.3051 -0.5655
   55CHL1    H6 4006   0.010   1.515   6.639 -1.3392  1.9705 -1.3407
   55CHL1    C7 4007   0.134   1.624   6.784 -0.5983  0.5495  0.0157
   55CHL1   H7A 4008   0.044   1.618   6.850  0.1077 -0.5034  0.9031
   55CHL1   H7B 4009   0.197   1.541   6.823 -0.9114  0.7222  0.9251
   55CHL1    C8 4010   0.215   1.754   6.793  0.1628  0.6619  0.2872
   55CHL1    H8 4011   0.148   1.840   6.771 -0.4527  0.6263  1.9709
   55CHL1   C14 4012   0.272   1.768   6.932 -0.1115 -0.6207  0.5253
   55CHL1   H14 4013   0.325   1.673   6.953  0.3830 -0.0510  1.9199
   55CHL1   C15 4014   0.184   1.770   7.055  0.6819 -0.4270 -0.3104
   55CHL1  H15A 4015   0.096   1.837   7.046  0.4685 -0.8246 -1.2521
   55CHL1  H15B 4016   0.145   1.669   7.079 -0.8974 -0.5641 -3.1854
   55CHL1   C16 4017   0.275   1.823   7.168  0.6528 -0.6854  0.1820
   55CHL1  H16A 4018   0.233   1.920   7.202  2.3228  0.1815 -0.2123
   55CHL1  H16B 4019   0.286   1.750   7.250  0.6709  0.8812  1.5992
   55CHL1   C17 4020   0.416   1.853   7.107  0.0902  0.2316  0.1125
   55CHL1   H17 4021   0.462   1.754   7.125  0.8328  0.4203 -0.7044
   55CHL1   C13 4022   0.382   1.874   6.951  0.2701 -0.0888 -0.8761
   55CHL1   C18 4023   0.319   2.012   6.932 -0.7043 -0.6088  0.2314
   55CHL1  H18A 4024   0.253   2.021   6.843 -1.1155 -1.5275  0.4351
   55CHL1  H18B 4025   0.264   2.039   7.025  0.7929  1.4683  0.5559
   55CHL1  H18C 4026   0.397   2.091   6.926 -0.9829 -0.3305  0.2795
   55CHL1   C12 4027   0.494   1.859   6.848 -0.2432  0.6498  0.0706
   55CHL1  H12A 4028   0.561   1.948   6.854 -0.1477  0.5174  1.1921
   55CHL1  H12B 4029   0.540   1.762   6.877  1.6215  1.7521  0.9342
   55CHL1   C11 4030   0.440   1.846   6.712  0.0196 -0.0747  0.5230
   55CHL1  H11A 4031   0.405   1.945   6.678  0.3796 -0.7130 -1.7631
   55CHL1  H11B 4032   0.526   1.834   6.643 -1.5839 -0.9051 -1.4049
   55CHL1    C9 4033   0.324   1.744   6.693  0.2784 -0.3627  0.1608
   55CHL1    H9 4034   0.373   1.649   6.725  0.6575 -0.4228 -0.5840
   55CHL1   C10 4035   0.267   1.735   6.546 -1.6352  0.1638  0.4885
   55CHL1   C19 4036   0.225   1.877   6.497 -0.6743  0.0220  0.3198
   55CHL1  H19A 4037   0.208   1.874   6.388 -0.0450 -0.6359  0.2386
   55CHL1  H19B 4038   0.139   1.921   6.552 -0.0904  0.4402  0.9094
   55CHL1  H19C 4039   0.307   1.951   6.511  1.2312 -1.7508 -1.2025
   55CHL1    C1 4040   0.370   1.678   6.448 -0.7670  0.0435  0.1705
   55CHL1   H1A 4041   0.454   1.750   6.446  1.4171 -2.3819  1.9088
   55CHL1   H1B 4042   0.413   1.588   6.498 -1.6686  0.2579  1.3796
   55CHL1    C2 4043   0.332   1.636   6.303 -0.3282  0.1616  0.3922
   55CHL1   H2A 4044   0.409   1.588   6.239  0.9926  0.9209  1.3698
   55CHL1   H2B 4045   0.297   1.714   6.232 -1.0841 -0.6917 -0.1715
   55CHL1   C20 4046   0.502   1.961   7.178  0.9463 -0.8640 -0.5150
   55CHL1   H20 4047   0.466   2.062   7.148  0.8777 -0.5371  0.6656
   55CHL1   C21 4048   0.652   1.955   7.133 -1.5283 -0.5195 -0.7762
   55CHL1  H21A 4049   0.715   2.040   7.168  1.8521 -3.2823  0.1634
   55CHL1  H21B 4050   0.655   1.935   7.024  1.5743 -4.1373 -0.1427
   55CHL1  H21C 4051   0.687   1.863   7.185 -1.7926  1.0937  2.4191
   55CHL1   C22 4052   0.486   1.961   7.335 -0.0356 -0.3349  0.3050
   55CHL1  H22A 4053   0.380   1.974   7.367  0.5584  0.2385  2.0724
   55CHL1  H22B 4054   0.520   1.863   7.374 -2.7143 -1.3269  0.2935
   55CHL1   C23 4055   0.550   2.076   7.408 -0.2539 -0.3361 -0.0162
   55CHL1  H23A 4056   0.563   2.050   7.515  1.7326  1.4061  0.1983
   55CHL1  H23B 4057   0.655   2.073   7.372 -0.4437 -0.0552 -0.6033
   55CHL1   C24 4058   0.492   2.220   7.384  0.1842 -0.4253 -0.4401
   55CHL1  H24A 4059   0.533   2.273   7.295 -0.5205  1.5719  0.3898
   55CHL1  H24B 4060   0.382   2.208   7.376  0.4022 -1.4786 -2.1171
   55CHL1   C25 4061   0.518   2.316   7.503 -0.2591 -0.1602  0.5728
   55CHL1   H25 4062   0.484   2.279   7.601 -0.2055 -1.0527  0.2536
   55CHL1   C26 4063   0.662   2.354   7.510 -0.4164  0.0279  0.2957
   55CHL1  H26A 4064   0.683   2.439   7.578 -1.6238  0.5630  0.0074
   55CHL1  H26B 4065   0.725   2.272   7.551 -1.2766 -0.1790  1.2393
   55CHL1  H26C 4066   0.704   2.384   7.412  1.8829  1.5459  1.7119
   55CHL1   C27 4067   0.443   2.445   7.476  0.1349 -0.4306  0.8311
   55CHL1  H27A 4068   0.450   2.508   7.567  2.8919  2.6720 -1.4000
   55CHL1  H27B 4069   0.496   2.497   7.394  1.0099 -0.4747  1.3641
   55CHL1  H27C 4070   0.336   2.435   7.448 -0.1790  1.1553  1.3983
   56CHL1    C3 4071   0.270   0.228   6.286 -0.4125 -0.2396 -0.0736
   56CHL1    H3 4072   0.166   0.222   6.323 -0.0351  0.1585  1.0739
   56CHL1    O3 4073   0.285   0.231   6.143 -0.2483 -0.0877 -0.0912
   56CHL1   H3' 4074   0.324   0.317   6.128 -0.4400 -0.1617 -1.1009
   56CHL1    C4 4075   0.332   0.356   6.343 -0.0940  0.0552 -0.7804
   56CHL1   H4A 4076   0.434   0.357   6.301  0.2477 -3.0928 -0.1590
   56CHL1   H4B 4077   0.271   0.437   6.298 -2.0538 -0.9938 -0.0760
   56CHL1    C5 4078   0.336   0.368   6.491  0.4521  0.5217 -0.0179
   56CHL1    C6 4079   0.281   0.476   6.551 -0.5371  0.7125  0.7037
   56CHL1    H6 4080   0.231   0.547   6.484  0.8650  0.6361 -0.4422
   56CHL1    C7 4081   0.276   0.486   6.702  0.1551  1.0522  0.4072
   56CHL1   H7A 4082   0.337   0.572   6.740  0.7291  0.8415 -0.0362
   56CHL1   H7B 4083   0.171   0.488   6.739  0.6053 -1.8935  1.9509
   56CHL1    C8 4084   0.355   0.373   6.777 -0.1724  0.1391 -0.0009
   56CHL1    H8 4085   0.461   0.408   6.777 -0.5368  1.4256  2.8977
   56CHL1   C14 4086   0.301   0.362   6.917 -0.7980 -0.1413 -0.2240
   56CHL1   H14 4087   0.195   0.328   6.914 -1.2226  1.0537  0.9823
   56CHL1   C15 4088   0.288   0.493   6.991 -0.0623 -0.1227 -0.1673
   56CHL1  H15A 4089   0.379   0.557   6.988  0.5415 -0.7729  2.3161
   56CHL1  H15B 4090   0.204   0.555   6.952 -0.2976 -1.5020 -1.8884
   56CHL1   C16 4091   0.271   0.454   7.138  0.5067  1.0165 -0.0136
   56CHL1  H16A 4092   0.337   0.506   7.210  0.3142 -1.3061  1.9162
   56CHL1  H16B 4093   0.166   0.455   7.173 -0.5175  1.8800 -2.9210
   56CHL1   C17 4094   0.312   0.301   7.145  0.3554 -0.4900  0.1682
   56CHL1   H17 4095   0.219   0.241   7.143 -0.3157  0.5642 -0.2475
   56CHL1   C13 4096   0.385   0.271   7.011 -0.1010 -0.2019 -0.2348
   56CHL1   C18 4097   0.527   0.331   7.025  0.6733 -0.1651 -0.0831
   56CHL1  H18A 4098   0.589   0.276   7.099  2.9201  2.4220  0.0737
   56CHL1  H18B 4099   0.582   0.332   6.929  0.0311  1.6238 -0.4535
   56CHL1  H18C 4100   0.531   0.438   7.057 -0.7996 -0.1300  0.0050
   56CHL1   C12 4101   0.380   0.131   6.948  0.1495  0.6001  0.2861
   56CHL1  H12A 4102   0.430   0.057   7.014 -1.1243  0.5830  1.2732
   56CHL1  H12B 4103   0.274   0.097   6.942  1.2187 -2.6563 -0.9939
   56CHL1   C11 4104   0.430   0.137   6.801  0.6062  0.0277 -0.2754
   56CHL1  H11A 4105   0.536   0.168   6.799  0.0679  1.9839 -0.1539
   56CHL1  H11B 4106   0.419   0.035   6.760 -1.0201 -0.3667  1.0864
   56CHL1    C9 4107   0.348   0.238   6.713  0.6213  0.1130 -0.2615
   56CHL1    H9 4108   0.241   0.207   6.714  0.4632  0.5421 -1.9033
   56CHL1   C10 4109   0.391   0.246   6.566 -0.3081  0.1918 -0.2598
   56CHL1   C19 4110   0.543   0.251   6.556  0.0311 -0.6565  0.2770
   56CHL1  H19A 4111   0.573   0.261   6.449 -0.4866  2.0386  0.3594
   56CHL1  H19B 4112   0.581   0.345   6.600 -0.2365 -1.4558  2.2490
   56CHL1  H19C 4113   0.593   0.171   6.615  1.0813  0.5643  1.0591
   56CHL1    C1 4114   0.345   0.114   6.500 -0.6292 -0.0378  0.2584
   56CHL1   H1A 4115   0.407   0.034   6.545  1.7944  2.4785  1.5277
   56CHL1   H1B 4116   0.241   0.089   6.530  0.5460 -1.8185  3.0614
   56CHL1    C2 4117   0.349   0.110   6.347  0.6537  0.5193 -0.2566
   56CHL1   H2A 4118   0.313   0.013   6.306 -1.2395  1.7259 -1.5390
   56CHL1   H2B 4119   0.454   0.110   6.313  0.9085 -1.7822  0.4372
   56CHL1   C20 4120   0.380   0.263   7.279  0.9674 -0.9410  0.4034
   56CHL1   H20 4121   0.471   0.327   7.289  1.2212 -1.3121  0.4884
   56CHL1   C21 4122   0.421   0.110   7.280 -1.0733 -0.0927 -0.0942
   56CHL1  H21A 4123   0.467   0.088   7.379  0.8819 -1.7345 -1.3426
   56CHL1  H21B 4124   0.504   0.094   7.209 -1.0955  0.3020 -0.2135
   56CHL1  H21C 4125   0.339   0.043   7.246  0.5437 -1.4804 -1.3597
   56CHL1   C22 4126   0.290   0.288   7.404 -0.5873  0.3840  0.4124
   56CHL1  H22A 4127   0.212   0.366   7.390  0.9547  2.2752  2.0112
   56CHL1  H22B 4128   0.239   0.192   7.430  0.4842 -0.5781 -0.9422
   56CHL1   C23 4129   0.365   0.335   7.533  0.0961  0.4180  0.2100
   56CHL1  H23A 4130   0.437   0.254   7.561 -1.5047 -1.3081 -0.5526
   56CHL1  H23B 4131   0.434   0.419   7.512  0.3903  0.4817  1.4028
   56CHL1   C24 4132   0.270   0.353   7.653  0.2985 -0.0375  0.4728
   56CHL1  H24A 4133   0.186   0.418   7.622  1.5660  0.9898 -0.9002
   56CHL1  H24B 4134   0.221   0.256   7.676  3.3451 -2.5224 -2.7388
   56CHL1   C25 4135   0.333   0.407   7.786  0.4564  0.2123  0.1480
   56CHL1   H25 4136   0.405   0.330   7.821 -1.1805 -0.6254  1.7334
   56CHL1   C26 4137   0.420   0.538   7.771 -0.1244  0.2670  0.8277
   56CHL1  H26A 4138   0.510   0.518   7.709 -1.8192 -0.1834 -1.5047
   56CHL1  H26B 4139   0.436   0.588   7.870  2.2020  0.6046  0.3091
   56CHL1  H26C 4140   0.364   0.614   7.712  2.9132  1.6104 -0.4366
   56CHL1   C27 4141   0.222   0.432   7.884  0.0402  0.0391 -0.6420
   56CHL1  H27A 4142   0.269   0.463   7.979 -0.3478 -1.5557  0.1041
   56CHL1  H27B 4143   0.160   0.517   7.848 -1.1569 -1.1035 -1.3390
   56CHL1  H27C 4144   0.167   0.337   7.904  0.1563  0.1133  0.0321
   57SAPC     N 4145   3.217   2.758   9.980  0.5952  0.2270 -0.4179
   57SAPC   C12 4146   3.136   2.846   9.884  1.0704  0.3303  0.3229
   57SAPC  H12A 4147   3.146   2.803   9.785 -1.6060  0.4324 -0.0287
   57SAPC  H12B 4148   3.192   2.938   9.876  1.1306  0.2264 -0.5910
   57SAPC   C13 4149   3.270   2.839  10.097 -0.5879  0.1228  0.3874
   57SAPC  H13A 4150   3.329   2.780  10.164 -0.6912  0.4699  0.7815
   57SAPC  H13B 4151   3.329   2.923  10.062 -0.9423 -0.0730 -0.7292
   57SAPC  H13C 4152   3.186   2.880  10.152 -2.3384 -1.7403 -0.8300
   57SAPC   C14 4153   3.132   2.645  10.036 -0.1616  0.7087 -0.9845
   57SAPC  H14A 4154   3.041   2.688  10.075  1.1737  0.1675  2.9542
   57SAPC  H14B 4155   3.094   2.572   9.967  0.7064 -2.4682  1.7324
   57SAPC  H14C 4156   3.194   2.593  10.108  0.8053 -0.0604 -2.3522
   57SAPC   C15 4157   3.329   2.687   9.906  0.1693  0.3815 -0.1412
   57SAPC  H15A 4158   3.398   2.749   9.852  1.7606 -1.6746 -0.5226
   57SAPC  H15B 4159   3.390   2.636   9.979 -1.7531  1.4482  2.3260
   57SAPC  H15C 4160   3.291   2.622   9.828 -0.6240  0.7887 -0.1062
   57SAPC   C11 4161   2.990   2.883   9.909  0.6168  0.2947  0.3065
   57SAPC  H11A 4162   2.936   2.788   9.927  1.1866  0.0015  0.5014
   57SAPC  H11B 4163   2.947   2.930   9.819  0.3891  0.5154  0.5314
   57SAPC     P 4164   2.975   3.118  10.013  0.1978  0.1466 -0.0257
   57SAPC   O13 4165   2.852   3.152   9.939 -0.0178 -0.0809  0.3974
   57SAPC   O14 4166   2.992   3.179  10.146  0.0922  0.8296 -0.0233
   57SAPC   O12 4167   2.977   2.966  10.025 -0.3348  0.3556 -0.1738
   57SAPC   O11 4168   3.100   3.150   9.926 -0.0158  0.0794  0.3122
   57SAPC    C1 4169   3.109   3.282   9.871 -0.4323 -0.6736  0.0949
   57SAPC    HA 4170   3.168   3.271   9.778  0.8983  2.6549  0.4668
   57SAPC    HB 4171   3.017   3.331   9.831 -0.6633 -1.5886 -0.4938
   57SAPC    C2 4172   3.199   3.381   9.950  1.0773 -0.0307 -0.2921
   57SAPC    HS 4173   3.138   3.419  10.035  0.4265  0.0285 -0.7731
   57SAPC   O21 4174   3.227   3.488   9.861  0.0062  0.1142 -0.0180
   57SAPC   C21 4175   3.134   3.581   9.843  0.1599  0.1168 -0.2045
   57SAPC   O22 4176   3.028   3.595   9.899  0.2427  0.2585  0.1673
   57SAPC   C22 4177   3.194   3.689   9.758  0.3334 -0.2453  0.7322
   57SAPC   H2R 4178   3.228   3.766   9.829 -1.3728  1.1480  0.0777
   57SAPC   H2S 4179   3.288   3.660   9.707 -0.5140  0.4437 -1.2714
   57SAPC    C3 4180   3.324   3.306  10.000 -0.0251 -0.3396  0.2761
   57SAPC    HX 4181   3.290   3.225  10.068 -0.0945  0.9587  1.8075
   57SAPC    HY 4182   3.383   3.381  10.058 -0.1436 -0.6045  0.7398
   57SAPC   O31 4183   3.404   3.248   9.894 -0.5601  0.1285 -0.3649
   57SAPC   C31 4184   3.506   3.331   9.854 -0.3198  0.6411 -0.1862
   57SAPC   O32 4185   3.530   3.439   9.900 -0.6300  0.4934 -0.0698
   57SAPC   C32 4186   3.590   3.252   9.750  0.2416 -0.4866 -0.6476
   57SAPC   H2X 4187   3.556   3.147   9.739  1.7789 -1.0099 -0.5159
   57SAPC   H2Y 4188   3.690   3.240   9.796 -0.5870 -1.8674  0.8057
   57SAPC   C23 4189   3.094   3.757   9.661  0.8925  0.0071  0.1856
   57SAPC   H3R 4190   3.123   3.854   9.615 -1.0507  1.4102  1.8187
   57SAPC   H3S 4191   3.002   3.774   9.721  1.4057 -2.5350  1.7513
   57SAPC   C24 4192   3.042   3.659   9.549  0.1422  1.2572 -0.5188
   57SAPC   H4R 4193   3.131   3.620   9.496 -0.4501 -0.0620 -0.5470
   57SAPC   H4S 4194   2.991   3.725   9.476  0.8998  1.5559 -0.7797
   57SAPC   C25 4195   2.951   3.546   9.593 -0.3803 -0.6464  0.0741
   57SAPC   H5R 4196   2.953   3.516   9.699  3.8715  1.0285  0.5360
   57SAPC   C26 4197   2.876   3.478   9.503 -0.8803  0.0317 -0.0746
   57SAPC   H6R 4198   2.806   3.402   9.541 -0.6020 -0.6049 -0.8197
   57SAPC   C27 4199   2.868   3.490   9.352 -0.0325  0.3649 -0.4852
   57SAPC   H7R 4200   2.932   3.418   9.298 -0.9150  0.6750 -1.9929
   57SAPC   H7S 4201   2.912   3.592   9.341  0.0591  0.9050  3.8254
   57SAPC   C28 4202   2.723   3.485   9.311  0.0519  0.5041  0.1800
   57SAPC   H8R 4203   2.650   3.542   9.371  0.4571 -1.8498  2.9802
   57SAPC   C29 4204   2.680   3.425   9.193  0.3979 -0.3919 -0.1009
   57SAPC   H9R 4205   2.575   3.418   9.160  0.3114 -0.2032  0.1382
   57SAPC  C210 4206   2.773   3.369   9.088 -0.1756  0.4459  0.1889
   57SAPC  H10R 4207   2.714   3.305   9.019  0.0936  1.2535 -0.8033
   57SAPC  H10S 4208   2.838   3.291   9.133  0.2917  0.6894 -0.0556
   57SAPC  C211 4209   2.846   3.473   9.013 -0.4336  0.1192  1.0215
   57SAPC  H11R 4210   2.823   3.580   9.031  3.1578  1.0360  0.6045
   57SAPC  C212 4211   2.942   3.457   8.918 -0.2834  0.1517 -0.2757
   57SAPC  H12R 4212   2.996   3.541   8.872 -0.7460  0.6435  0.0723
   57SAPC  C213 4213   3.005   3.325   8.866  0.5853 -0.1189 -0.3236
   57SAPC  H13R 4214   2.971   3.237   8.924 -1.3954 -0.5487 -2.0788
   57SAPC  H13S 4215   3.116   3.325   8.875  0.4884  0.2794  0.9802
   57SAPC  C214 4216   2.971   3.288   8.721  0.2549 -0.0622 -0.0596
   57SAPC  H14R 4217   2.863   3.290   8.701 -0.0601 -1.4926  1.4148
   57SAPC  C215 4218   3.050   3.289   8.609 -0.2210  0.4079  0.1497
   57SAPC  H15R 4219   3.001   3.275   8.511 -0.9424  1.0482  0.4148
   57SAPC  C216 4220   3.196   3.319   8.598  0.7542  0.0208 -0.7604
   57SAPC  H16R 4221   3.251   3.235   8.550  0.5688 -0.9660  0.7046
   57SAPC  H16S 4222   3.244   3.324   8.698 -1.7982  1.0161  0.4686
   57SAPC  C217 4223   3.208   3.447   8.515  0.2347  1.3460  0.2456
   57SAPC  H17R 4224   3.179   3.535   8.576 -2.5413  0.8345 -0.2847
   57SAPC  H17S 4225   3.152   3.440   8.420  1.8916  0.2138 -0.6747
   57SAPC  C218 4226   3.356   3.474   8.473  0.5858  0.2808 -0.2000
   57SAPC  H18R 4227   3.421   3.475   8.563  0.1303  1.5910  0.1351
   57SAPC  H18S 4228   3.376   3.571   8.422  2.2888 -0.6146 -1.2760
   57SAPC  C219 4229   3.416   3.373   8.374 -0.2254 -0.4610  0.1546
   57SAPC  H19R 4230   3.352   3.379   8.283  0.5519 -1.9768 -0.5114
   57SAPC  H19S 4231   3.420   3.269   8.413  3.7991 -0.4035  0.1010
   57SAPC  C220 4232   3.554   3.406   8.322 -0.0218 -0.5087 -0.7738
   57SAPC  H20R 4233   3.604   3.323   8.267  0.2172  0.3478 -1.8642
   57SAPC  H20S 4234   3.621   3.426   8.408  0.0809  0.9097 -1.1798
   57SAPC  H20T 4235   3.547   3.494   8.255  0.2978 -0.3054 -0.5392
   57SAPC   C33 4236   3.610   3.324   9.613  0.1030  0.7352  0.2895
   57SAPC   H3X 4237   3.681   3.262   9.554  0.3629  1.5120 -0.2241
   57SAPC   H3Y 4238   3.660   3.422   9.625  1.7099 -0.2117  1.5657
   57SAPC   C34 4239   3.472   3.325   9.542  0.1497 -0.1191  0.6280
   57SAPC   H4X 4240   3.482   3.362   9.437  1.2474  0.0357  0.7784
   57SAPC   H4Y 4241   3.415   3.403   9.597 -1.1065  0.2300 -1.1006
   57SAPC   C35 4242   3.396   3.195   9.533 -1.0912  0.1553  0.2032
   57SAPC   H5X 4243   3.305   3.233   9.481 -0.6347  0.0575 -0.6948
   57SAPC   H5Y 4244   3.364   3.148   9.628 -0.4298 -0.6627  0.0276
   57SAPC   C36 4245   3.454   3.101   9.425  0.5741  0.3732  0.3072
   57SAPC   H6X 4246   3.374   3.026   9.408  0.6479  0.6074 -1.1565
   57SAPC   H6Y 4247   3.537   3.044   9.471  2.6705  1.8630 -1.5500
   57SAPC   C37 4248   3.500   3.154   9.287  0.7969  0.5105 -0.1266
   57SAPC   H7X 4249   3.599   3.202   9.301  0.9016  0.2009  0.2012
   57SAPC   H7Y 4250   3.430   3.237   9.266 -1.1987 -1.3104 -0.8817
   57SAPC   C38 4251   3.506   3.049   9.172  0.0982 -0.1337  0.0867
   57SAPC   H8X 4252   3.435   2.970   9.205 -1.3161  0.3562 -1.6714
   57SAPC   H8Y 4253   3.607   3.004   9.175 -0.0652 -0.4199  1.4810
   57SAPC   C39 4254   3.478   3.110   9.030 -0.0002 -0.4141  0.1637
   57SAPC   H9X 4255   3.549   3.190   9.002 -2.0167  0.6305 -2.1588
   57SAPC   H9Y 4256   3.376   3.155   9.030  0.5981  1.0551 -2.0949
   57SAPC  C310 4257   3.488   2.994   8.921  0.1532 -0.1029  0.4160
   57SAPC  H10X 4258   3.427   2.906   8.951 -0.7883  1.2762  2.6319
   57SAPC  H10Y 4259   3.594   2.961   8.908  0.1700  0.9522 -2.5463
   57SAPC  C311 4260   3.447   3.033   8.773  0.6192  0.7877  0.1719
   57SAPC  H11X 4261   3.522   3.098   8.722  0.3897 -1.0438 -2.5385
   57SAPC  H11Y 4262   3.353   3.091   8.776 -0.4589 -0.8136 -1.8014
   57SAPC  C312 4263   3.416   2.902   8.698 -0.6726 -0.2691  0.4116
   57SAPC  H12X 4264   3.326   2.846   8.731 -1.2477 -0.0113 -0.6956
   57SAPC  H12Y 4265   3.503   2.837   8.722 -0.2419  0.3648  0.5951
   57SAPC  C313 4266   3.396   2.912   8.544 -0.2522 -0.6602 -0.2098
   57SAPC  H13X 4267   3.327   2.998   8.530 -0.6822 -1.4637 -3.3346
   57SAPC  H13Y 4268   3.351   2.814   8.515  0.1365 -0.4285 -1.6294
   57SAPC  C314 4269   3.526   2.931   8.464  0.0333 -0.6383 -0.2928
   57SAPC  H14X 4270   3.584   2.837   8.477  1.1930  0.1351  0.2106
   57SAPC  H14Y 4271   3.573   3.025   8.501 -0.4589 -0.2817 -0.5744
   57SAPC  C315 4272   3.509   2.942   8.307  0.0478 -0.3884 -0.3563
   57SAPC  H15X 4273   3.611   2.940   8.264  0.7668 -1.4463  1.3538
   57SAPC  H15Y 4274   3.469   3.040   8.271  1.1001  1.0911  2.4152
   57SAPC  C316 4275   3.434   2.830   8.251  0.4436  0.5735 -0.3288
   57SAPC  H16X 4276   3.331   2.822   8.291  0.1546  0.0147 -1.1786
   57SAPC  H16Y 4277   3.501   2.746   8.281 -0.6318  0.6410  2.4342
   57SAPC  C317 4278   3.427   2.862   8.102 -0.0344 -0.3970 -0.1518
   57SAPC  H17X 4279   3.531   2.880   8.068  1.0117 -1.2943  2.3884
   57SAPC  H17Y 4280   3.366   2.951   8.078 -1.7682 -1.0724  1.6247
   57SAPC  C318 4281   3.381   2.739   8.013 -0.0641  0.2797 -0.3255
   57SAPC  H18X 4282   3.383   2.766   7.906  0.4869 -0.6474 -0.5509
   57SAPC  H18Y 4283   3.274   2.721   8.038  0.1376  0.2852  0.5576
   57SAPC  H18Z 4284   3.446   2.651   8.029 -1.0712 -0.9054 -2.5941
   58SAPC     N 4285   4.828   1.741  10.366  0.0329 -0.0449 -0.5609
   58SAPC   C12 4286   4.877   1.634  10.274 -0.3572 -0.7233 -0.0451
   58SAPC  H12A 4287   4.887   1.543  10.331 -0.2703 -1.1780 -0.7648
   58SAPC  H12B 4288   4.976   1.659  10.237 -0.7484  1.3613  0.2496
   58SAPC   C13 4289   4.796   1.857  10.291  0.2670 -0.8978  0.3403
   58SAPC  H13A 4290   4.880   1.923  10.273  1.3356 -1.8933  1.5780
   58SAPC  H13B 4291   4.746   1.852  10.195 -2.3621 -0.4014  1.6269
   58SAPC  H13C 4292   4.724   1.916  10.346 -0.9439 -0.0076 -2.1371
   58SAPC   C14 4293   4.697   1.695  10.435  0.4288  0.0860  0.6359
   58SAPC  H14A 4294   4.631   1.680  10.351  0.4774 -1.5827  0.8892
   58SAPC  H14B 4295   4.713   1.608  10.497  0.6720  0.9695  1.8258
   58SAPC  H14C 4296   4.661   1.771  10.503  0.3116  0.1952  0.4564
   58SAPC   C15 4297   4.932   1.772  10.470 -0.1130  0.5751  0.3292
   58SAPC  H15A 4298   4.933   1.697  10.548 -2.7715 -0.1995 -0.3277
   58SAPC  H15B 4299   5.031   1.779  10.429 -1.3460 -1.5174 -3.2668
   58SAPC  H15C 4300   4.898   1.861  10.521  1.5666  1.0158  0.7019
   58SAPC   C11 4301   4.798   1.596  10.147  0.7281  0.3735  0.0995
   58SAPC  H11A 4302   4.846   1.521  10.081  0.3119 -1.4434  1.8096
   58SAPC  H11B 4303   4.812   1.679  10.075 -0.0205  1.1425  0.8324
   58SAPC     P 4304   4.544   1.597  10.065  0.2694 -0.2792  0.2888
   58SAPC   O13 4305   4.423   1.623  10.151 -0.2679 -0.0928  0.3872
   58SAPC   O14 4306   4.588   1.714   9.980  0.2502  0.7015 -0.0625
   58SAPC   O12 4307   4.667   1.557  10.160 -0.0499 -0.3806 -0.4823
   58SAPC   O11 4308   4.515   1.465   9.986 -0.2440  0.2796 -0.1312
   58SAPC    C1 4309   4.611   1.400   9.901 -0.1968  0.0714  0.1987
   58SAPC    HA 4310   4.702   1.462   9.885 -0.1574 -0.1978 -0.6562
   58SAPC    HB 4311   4.643   1.306   9.952 -1.3083 -0.4958 -0.1392
   58SAPC    C2 4312   4.557   1.380   9.755 -0.0665 -0.6338 -0.1133
   58SAPC    HS 4313   4.611   1.300   9.700  1.0103  0.3995 -0.5709
   58SAPC   O21 4314   4.569   1.507   9.686  0.7815  0.2622  0.3284
   58SAPC   C21 4315   4.689   1.548   9.668  0.3259  0.3033  0.6829
   58SAPC   O22 4316   4.786   1.481   9.678  0.1251  0.5120 -0.4305
   58SAPC   C22 4317   4.704   1.693   9.623 -0.0374  0.0772  0.9882
   58SAPC   H2R 4318   4.711   1.756   9.715  1.0482  0.1251  0.8794
   58SAPC   H2S 4319   4.798   1.718   9.568 -1.2311  2.2913 -0.1099
   58SAPC    C3 4320   4.407   1.338   9.745  0.3895  0.0195  0.2461
   58SAPC    HX 4321   4.357   1.419   9.802  0.1245  0.0961 -0.0913
   58SAPC    HY 4322   4.387   1.248   9.806  0.8515 -0.8633 -0.8786
   58SAPC   O31 4323   4.364   1.322   9.598  0.2659  0.1362 -0.0527
   58SAPC   C31 4324   4.319   1.434   9.546 -0.0840 -0.1340 -0.6218
   58SAPC   O32 4325   4.303   1.539   9.607  0.6054 -0.1653 -0.7194
   58SAPC   C32 4326   4.316   1.422   9.392  0.0058  0.0653 -0.7551
   58SAPC   H2X 4327   4.421   1.438   9.359  0.6609  1.0632  1.6535
   58SAPC   H2Y 4328   4.254   1.509   9.364  0.8777  0.0777 -2.7070
   58SAPC   C23 4329   4.587   1.745   9.538 -0.3207 -0.3729 -0.1633
   58SAPC   H3R 4330   4.492   1.720   9.590  0.4938 -2.5187  0.3607
   58SAPC   H3S 4331   4.579   1.702   9.436  1.8289 -1.8714  0.2673
   58SAPC   C24 4332   4.588   1.896   9.526  0.1078 -0.0999 -0.2913
   58SAPC   H4R 4333   4.602   1.941   9.627 -0.6426 -0.4454 -0.0213
   58SAPC   H4S 4334   4.484   1.914   9.491 -0.3018 -1.3174  0.2797
   58SAPC   C25 4335   4.689   1.965   9.432  0.0126 -0.5539 -0.2110
   58SAPC   H5R 4336   4.793   1.977   9.465 -0.3033  1.0859  0.2396
   58SAPC   C26 4337   4.656   2.015   9.313 -0.1442 -0.4658  0.6895
   58SAPC   H6R 4338   4.734   2.063   9.253 -1.1780 -0.6871 -0.8599
   58SAPC   C27 4339   4.528   2.023   9.234  0.5144 -0.3872 -0.6543
   58SAPC   H7R 4340   4.474   2.117   9.258 -1.2453 -1.4482 -0.4138
   58SAPC   H7S 4341   4.455   1.944   9.260  0.6560  0.0973  1.2615
   58SAPC   C28 4342   4.550   2.012   9.082 -0.7987 -0.2615 -0.0363
   58SAPC   H8R 4343   4.596   1.914   9.064 -0.7540 -0.2069 -0.2206
   58SAPC   C29 4344   4.518   2.089   8.978 -0.5793  0.0858 -0.5041
   58SAPC   H9R 4345   4.557   2.054   8.881 -1.1975  0.9414 -1.0624
   58SAPC  C210 4346   4.446   2.223   8.973 -0.0651  1.1114 -0.5325
   58SAPC  H10R 4347   4.445   2.256   9.079  1.2629 -2.1063  0.5560
   58SAPC  H10S 4348   4.345   2.211   8.929  0.1542 -0.9151 -0.5663
   58SAPC  C211 4349   4.526   2.332   8.904 -0.5781 -0.5371  0.3566
   58SAPC  H11R 4350   4.579   2.409   8.962  0.5296  2.8823 -4.8617
   58SAPC  C212 4351   4.548   2.332   8.769 -0.0372 -0.4623  0.6304
   58SAPC  H12R 4352   4.600   2.420   8.729 -1.8447  0.4687  0.2858
   58SAPC  C213 4353   4.496   2.231   8.664 -0.6851 -0.3756  0.0659
   58SAPC  H13R 4354   4.388   2.258   8.668 -0.3336  1.6410 -2.6662
   58SAPC  H13S 4355   4.514   2.126   8.694  1.3702 -0.4793 -1.4128
   58SAPC  C214 4356   4.554   2.249   8.531  0.1040  0.1686  0.8107
   58SAPC  H14R 4357   4.661   2.226   8.523  0.0777  0.7185 -1.3933
   58SAPC  C215 4358   4.479   2.273   8.420 -0.0803 -0.2003 -0.4139
   58SAPC  H15R 4359   4.535   2.285   8.327 -1.0295  0.9911 -0.8306
   58SAPC  C216 4360   4.330   2.282   8.402  0.7371 -0.4976  0.4722
   58SAPC  H16R 4361   4.309   2.391   8.400  3.7010  0.0994 -0.5017
   58SAPC  H16S 4362   4.270   2.221   8.474 -2.2202 -0.3764 -1.8107
   58SAPC  C217 4363   4.294   2.225   8.263 -0.5000 -0.2660 -0.3957
   58SAPC  H17R 4364   4.361   2.138   8.242  0.8109  0.7220 -0.3591
   58SAPC  H17S 4365   4.314   2.299   8.183  2.1518 -0.7066 -0.1926
   58SAPC  C218 4366   4.143   2.183   8.244  0.7586  0.3475  0.6139
   58SAPC  H18R 4367   4.078   2.268   8.273  1.6329  1.1191  0.3599
   58SAPC  H18S 4368   4.120   2.102   8.317 -1.3381  0.3997  0.0270
   58SAPC  C219 4369   4.096   2.132   8.109  0.2158 -0.0706  0.6290
   58SAPC  H19R 4370   3.990   2.100   8.111  0.0902  0.2410 -0.4439
   58SAPC  H19S 4371   4.149   2.039   8.079  0.3390 -0.0764  0.8623
   58SAPC  C220 4372   4.115   2.231   7.996  0.2083  0.4784 -0.4264
   58SAPC  H20R 4373   4.050   2.193   7.915  0.1695 -0.2661 -0.0501
   58SAPC  H20S 4374   4.221   2.235   7.961  0.3152 -1.3253 -0.3238
   58SAPC  H20T 4375   4.078   2.334   8.017  1.2240  0.8340 -0.3339
   58SAPC   C33 4376   4.270   1.285   9.338  0.3372 -0.5363  0.1202
   58SAPC   H3X 4377   4.178   1.259   9.394 -0.0393  0.4805 -0.0297
   58SAPC   H3Y 4378   4.344   1.208   9.369  0.0610 -2.1068 -2.9132
   58SAPC   C34 4379   4.259   1.285   9.186  0.0689 -0.1823 -0.2348
   58SAPC   H4X 4380   4.183   1.360   9.155  0.8700  0.7116 -0.0516
   58SAPC   H4Y 4381   4.227   1.184   9.152  1.4613  0.6514 -4.3864
   58SAPC   C35 4382   4.392   1.313   9.115  0.0387 -1.0948  0.1321
   58SAPC   H5X 4383   4.470   1.300   9.194 -1.2765 -0.6548  1.5325
   58SAPC   H5Y 4384   4.395   1.419   9.083 -0.8155 -0.8289  0.9029
   58SAPC   C36 4385   4.433   1.219   8.998 -0.1740 -0.5213  0.3203
   58SAPC   H6X 4386   4.452   1.116   9.036 -0.8475 -0.6561  0.2866
   58SAPC   H6Y 4387   4.521   1.266   8.949 -1.7974  0.0554 -2.1411
   58SAPC   C37 4388   4.319   1.188   8.897 -0.4444  0.5507  0.4135
   58SAPC   H7X 4389   4.236   1.140   8.953 -1.0821 -0.0600 -1.0375
   58SAPC   H7Y 4390   4.363   1.119   8.822  1.3231  1.1544  0.8739
   58SAPC   C38 4391   4.262   1.309   8.822  0.4969  0.1343 -0.5895
   58SAPC   H8X 4392   4.341   1.365   8.766 -0.4886 -0.8888 -3.0563
   58SAPC   H8Y 4393   4.231   1.373   8.907  1.8904 -1.8125  1.4321
   58SAPC   C39 4394   4.156   1.270   8.723  0.1608  0.6178 -0.3948
   58SAPC   H9X 4395   4.059   1.230   8.758  0.2060 -1.4775 -2.5294
   58SAPC   H9Y 4396   4.215   1.192   8.671  1.3217  0.1043  1.6288
   58SAPC  C310 4397   4.107   1.382   8.627  0.0366 -0.0642  0.1223
   58SAPC  H10X 4398   4.091   1.340   8.525 -1.1790 -1.5059  0.8722
   58SAPC  H10Y 4399   4.185   1.461   8.624 -0.1007  0.0478 -0.4310
   58SAPC  C311 4400   3.963   1.438   8.658 -0.5116  0.2234  0.1436
   58SAPC  H11X 4401   3.960   1.470   8.764  1.9608 -1.8650  0.9054
   58SAPC  H11Y 4402   3.888   1.357   8.645 -0.4909  0.1717  0.3400
   58SAPC  C312 4403   3.928   1.554   8.569 -0.0240 -0.1249  0.3556
   58SAPC  H12X 4404   3.912   1.521   8.464  0.0843 -1.3614  0.7120
   58SAPC  H12Y 4405   4.010   1.627   8.581 -0.6848  0.4596  1.5032
   58SAPC  C313 4406   3.796   1.620   8.617  1.0602 -0.1751  0.4460
   58SAPC  H13X 4407   3.807   1.632   8.727 -0.9066  0.5299  0.5970
   58SAPC  H13Y 4408   3.716   1.549   8.587  0.9809  1.1309 -2.5636
   58SAPC  C314 4409   3.790   1.755   8.555  0.3217  0.0503 -0.2434
   58SAPC  H14X 4410   3.872   1.811   8.604  0.4204 -0.7891  0.5751
   58SAPC  H14Y 4411   3.695   1.801   8.588 -0.5355  0.0027 -2.5404
   58SAPC  C315 4412   3.807   1.766   8.401  0.2222 -1.6520  0.3212
   58SAPC  H15X 4413   3.910   1.742   8.367  0.8854  0.1580  0.9776
   58SAPC  H15Y 4414   3.799   1.874   8.375  0.9902 -1.6487  0.0918
   58SAPC  C316 4415   3.685   1.705   8.330 -0.0738  0.2341 -0.5712
   58SAPC  H16X 4416   3.590   1.738   8.378 -1.2955 -0.6192 -2.3278
   58SAPC  H16Y 4417   3.694   1.595   8.344  0.3810  0.1941 -1.1537
   58SAPC  C317 4418   3.681   1.745   8.184  0.1719 -0.7260  0.9644
   58SAPC  H17X 4419   3.779   1.715   8.139 -0.4009 -3.6464  1.5732
   58SAPC  H17Y 4420   3.671   1.855   8.177  2.7206 -0.6072 -2.2920
   58SAPC  C318 4421   3.578   1.662   8.105 -0.2149 -0.2613 -0.2383
   58SAPC  H18X 4422   3.474   1.699   8.117 -0.0842  0.5032 -1.3642
   58SAPC  H18Y 4423   3.573   1.555   8.134 -1.8868 -0.2091 -0.2588
   58SAPC  H18Z 4424   3.597   1.655   7.995  0.2771  0.4105 -0.2011
   59SAPC     N 4425   6.173   1.706   9.931  0.3245 -0.0858  0.2743
   59SAPC   C12 4426   6.292   1.785   9.887  0.1791  0.0761  0.2734
   59SAPC  H12A 4427   6.264   1.847   9.803 -1.5766 -0.5910  0.3488
   59SAPC  H12B 4428   6.360   1.710   9.850 -0.9316 -1.3068  0.9924
   59SAPC   C13 4429   6.063   1.799   9.961  0.4248 -0.5161 -0.4401
   59SAPC  H13A 4430   5.973   1.746   9.988  1.3832 -0.3981  3.1749
   59SAPC  H13B 4431   6.096   1.875  10.030 -0.6836  1.5907 -2.1461
   59SAPC  H13C 4432   6.022   1.847   9.872 -0.2214 -1.4372 -0.6409
   59SAPC   C14 4433   6.128   1.610   9.826  0.5574 -0.1791 -0.2486
   59SAPC  H14A 4434   6.056   1.537   9.859 -2.0639  2.1534 -0.5786
   59SAPC  H14B 4435   6.079   1.670   9.750  0.3657  0.2306  0.2014
   59SAPC  H14C 4436   6.207   1.555   9.777 -1.2973 -0.2958 -3.2525
   59SAPC   C15 4437   6.205   1.617  10.053  0.8867 -0.0492  0.2316
   59SAPC  H15A 4438   6.132   1.539  10.069 -0.5523  0.9047 -1.3910
   59SAPC  H15B 4439   6.304   1.574  10.050  0.1193 -1.8297  0.0781
   59SAPC  H15C 4440   6.210   1.683  10.138  0.0589  1.2840 -0.7240
   59SAPC   C11 4441   6.384   1.880   9.980 -0.1166 -0.2258  0.0437
   59SAPC  H11A 4442   6.464   1.920   9.915 -1.4029  2.6236  0.1381
   59SAPC  H11B 4443   6.439   1.825  10.060  0.2003 -1.2918 -0.8885
   59SAPC     P 4444   6.282   2.110   9.940 -0.4932  0.0071 -0.2366
   59SAPC   O13 4445   6.159   2.171   9.988  0.7826 -0.0881 -0.4117
   59SAPC   O14 4446   6.406   2.189   9.942  0.1410 -0.2017 -0.1293
   59SAPC   O12 4447   6.317   1.987  10.039 -1.2875 -0.1547  0.0579
   59SAPC   O11 4448   6.271   2.042   9.796  0.4726  0.3232  0.1762
   59SAPC    C1 4449   6.257   2.128   9.678 -0.1579 -0.0616 -0.2575
   59SAPC    HA 4450   6.310   2.224   9.694  0.5470 -0.4896  0.0350
   59SAPC    HB 4451   6.325   2.078   9.605 -0.9627 -0.5950 -0.6563
   59SAPC    C2 4452   6.110   2.139   9.623 -0.5420  0.2632  0.2115
   59SAPC    HS 4453   6.032   2.143   9.702 -1.0122 -0.1563 -0.2249
   59SAPC   O21 4454   6.090   2.039   9.523 -0.5116 -0.1871 -0.4823
   59SAPC   C21 4455   6.073   1.919   9.567  0.2059 -0.1168 -0.0282
   59SAPC   O22 4456   6.016   1.887   9.671  0.2957 -1.1495  0.3345
   59SAPC   C22 4457   6.121   1.817   9.450 -0.6173 -0.9840  0.3980
   59SAPC   H2R 4458   6.133   1.713   9.489  0.2422 -0.9194  0.3193
   59SAPC   H2S 4459   6.032   1.822   9.384 -0.9395 -1.2902  0.8100
   59SAPC    C3 4460   6.097   2.273   9.549  0.0536  0.4179  0.3817
   59SAPC    HX 4461   6.127   2.358   9.614  0.5133 -1.0390  2.1216
   59SAPC    HY 4462   5.988   2.283   9.529  0.2795 -0.7493 -1.5693
   59SAPC   O31 4463   6.177   2.276   9.430 -0.4481 -0.3850  0.0867
   59SAPC   C31 4464   6.134   2.353   9.333  0.3141  0.4575 -0.6045
   59SAPC   O32 4465   6.031   2.419   9.332  0.9970  0.2296  0.0061
   59SAPC   C32 4466   6.232   2.366   9.213  0.9102 -0.1668 -0.9912
   59SAPC   H2X 4467   6.269   2.266   9.182  3.2084 -0.8027  3.3366
   59SAPC   H2Y 4468   6.322   2.418   9.251  0.1769 -0.3413  1.0165
   59SAPC   C23 4469   6.247   1.865   9.371  0.0204  0.0799  0.3890
   59SAPC   H3R 4470   6.341   1.866   9.430 -0.2692  1.1833  0.8653
   59SAPC   H3S 4471   6.232   1.969   9.335 -1.6311 -1.3695 -3.3726
   59SAPC   C24 4472   6.259   1.799   9.234 -0.3989  0.1263 -0.0760
   59SAPC   H4R 4473   6.158   1.817   9.192 -0.8484  0.2528  1.0503
   59SAPC   H4S 4474   6.280   1.690   9.234 -1.9356 -0.1735 -0.8305
   59SAPC   C25 4475   6.360   1.865   9.143 -0.4543  0.1606  0.4490
   59SAPC   H5R 4476   6.466   1.871   9.169 -0.4571  1.5521  0.1827
   59SAPC   C26 4477   6.326   1.918   9.023  0.0046 -0.2308  1.2023
   59SAPC   H6R 4478   6.414   1.970   8.980  0.8521 -1.5617  1.3016
   59SAPC   C27 4479   6.193   1.922   8.954 -0.0648  0.2301  0.5659
   59SAPC   H7R 4480   6.139   1.826   8.962 -0.1989  0.3055  0.5706
   59SAPC   H7S 4481   6.217   1.927   8.845  0.0318  2.9239  0.6721
   59SAPC   C28 4482   6.106   2.052   8.974 -0.1143 -0.1175  0.9034
   59SAPC   H8R 4483   6.155   2.139   9.019  1.5244 -0.0588 -0.9185
   59SAPC   C29 4484   5.972   2.041   8.960  0.5149  0.8207 -0.7036
   59SAPC   H9R 4485   5.907   2.130   8.960 -1.2229 -0.4082  1.1975
   59SAPC  C210 4486   5.903   1.914   8.925  0.2338  0.2644 -0.5164
   59SAPC  H10R 4487   5.793   1.929   8.936  0.6536  2.3336  1.2560
   59SAPC  H10S 4488   5.937   1.850   9.009  0.9026  1.0048 -0.2208
   59SAPC  C211 4489   5.916   1.842   8.790 -0.1835  0.6722  0.4326
   59SAPC  H11R 4490   5.913   1.733   8.800  0.0868  0.6449  0.2145
   59SAPC  C212 4491   5.919   1.881   8.659 -0.4582 -0.4295 -0.8086
   59SAPC  H12R 4492   5.926   1.812   8.574 -0.6245  0.1236 -1.2787
   59SAPC  C213 4493   5.919   2.019   8.609  0.5107 -0.1614  0.0311
   59SAPC  H13R 4494   5.963   2.026   8.508  1.6073  0.6054  0.5480
   59SAPC  H13S 4495   5.980   2.078   8.681 -0.3488  0.1160  0.5471
   59SAPC  C214 4496   5.773   2.063   8.609  0.2054  0.0114 -0.7780
   59SAPC  H14R 4497   5.723   2.065   8.707  3.0191  0.3791  0.6714
   59SAPC  C215 4498   5.694   2.078   8.502 -0.1758  0.4512  0.5046
   59SAPC  H15R 4499   5.595   2.124   8.513  0.6522  2.7580 -1.3542
   59SAPC  C216 4500   5.728   2.051   8.359 -0.5297 -1.3158  0.5674
   59SAPC  H16R 4501   5.796   1.963   8.356  1.0610 -0.0765 -1.0917
   59SAPC  H16S 4502   5.796   2.123   8.309 -3.1032 -0.7044 -2.1728
   59SAPC  C217 4503   5.615   2.045   8.255 -0.1730  0.2090  0.0775
   59SAPC  H17R 4504   5.553   1.963   8.298 -2.9641  1.1617 -2.0504
   59SAPC  H17S 4505   5.663   2.016   8.159 -0.3607 -2.8798  0.8356
   59SAPC  C218 4506   5.527   2.172   8.239  0.9045 -0.3348 -1.8102
   59SAPC  H18R 4507   5.530   2.232   8.333 -1.0722 -3.6456  0.5172
   59SAPC  H18S 4508   5.419   2.149   8.226  0.9104 -2.9310  1.7046
   59SAPC  C219 4509   5.584   2.261   8.119  0.3894  0.2952  0.0968
   59SAPC  H19R 4510   5.576   2.200   8.026 -0.1501  0.4576  0.0364
   59SAPC  H19S 4511   5.691   2.275   8.148  0.7711 -4.3958  1.5422
   59SAPC  C220 4512   5.511   2.392   8.100  0.1380  0.2079  0.6576
   59SAPC  H20R 4513   5.540   2.460   8.183  1.5667  1.0212 -0.4770
   59SAPC  H20S 4514   5.401   2.379   8.092  0.1559 -0.2586  1.1480
   59SAPC  H20T 4515   5.543   2.447   8.008  0.4152  0.0245  0.6428
   59SAPC   C33 4516   6.187   2.453   9.092  0.3112 -0.1783 -0.8941
   59SAPC   H3X 4517   6.133   2.541   9.132 -2.3714 -1.2806 -2.0010
   59SAPC   H3Y 4518   6.116   2.402   9.024 -1.6752  0.2765  0.8033
   59SAPC   C34 4519   6.308   2.501   9.006 -0.1317  0.5926 -0.5560
   59SAPC   H4X 4520   6.365   2.410   8.978 -0.6986  0.5871 -1.7281
   59SAPC   H4Y 4521   6.371   2.566   9.071 -0.4257 -1.1904  1.6179
   59SAPC   C35 4522   6.284   2.566   8.878  0.3221 -0.1664 -0.7359
   59SAPC   H5X 4523   6.242   2.666   8.901  0.3908 -0.1186 -0.8169
   59SAPC   H5Y 4524   6.220   2.510   8.806 -0.6021 -0.5823  0.3878
   59SAPC   C36 4525   6.419   2.585   8.805 -0.3981  0.1455  0.4483
   59SAPC   H6X 4526   6.477   2.493   8.782  0.1201  1.2248 -2.8295
   59SAPC   H6Y 4527   6.467   2.657   8.875  0.5717  0.3003 -0.3610
   59SAPC   C37 4528   6.402   2.674   8.680 -0.0405 -0.8626 -0.0993
   59SAPC   H7X 4529   6.504   2.698   8.642 -0.0295  1.3157  1.2778
   59SAPC   H7Y 4530   6.348   2.765   8.713  4.6734  1.0220  3.0138
   59SAPC   C38 4531   6.331   2.596   8.569  0.4397 -0.4119 -1.1573
   59SAPC   H8X 4532   6.230   2.580   8.612  1.3068  0.0762  1.1634
   59SAPC   H8Y 4533   6.369   2.492   8.560 -0.4609 -0.6979 -1.6868
   59SAPC   C39 4534   6.313   2.673   8.441 -0.1689  0.5898  0.1381
   59SAPC   H9X 4535   6.410   2.685   8.387 -0.6943 -0.9930 -1.2116
   59SAPC   H9Y 4536   6.285   2.776   8.473 -1.6602  0.5494 -0.9768
   59SAPC  C310 4537   6.188   2.627   8.356 -0.3436  0.6370  0.5834
   59SAPC  H10X 4538   6.131   2.554   8.418  2.2772 -1.6957  0.3437
   59SAPC  H10Y 4539   6.230   2.576   8.266  1.4222 -0.2821  1.9003
   59SAPC  C311 4540   6.091   2.744   8.327 -0.7525  0.1834  0.0787
   59SAPC  H11X 4541   6.157   2.799   8.257 -1.1550 -1.0565 -1.3113
   59SAPC  H11Y 4542   6.083   2.802   8.421 -1.6986  0.5517 -0.2338
   59SAPC  C312 4543   5.962   2.699   8.266 -0.3758  0.0827  0.4551
   59SAPC  H12X 4544   5.922   2.612   8.322  1.9432 -1.6059 -0.4161
   59SAPC  H12Y 4545   5.982   2.657   8.165  0.6324 -1.4791  1.2870
   59SAPC  C313 4546   5.855   2.804   8.235 -0.5093  0.7556  0.6232
   59SAPC  H13X 4547   5.810   2.854   8.323  0.1535 -0.9581  1.9596
   59SAPC  H13Y 4548   5.780   2.743   8.179  0.2160  0.0211  0.4367
   59SAPC  C314 4549   5.914   2.910   8.151 -0.4740  0.4901 -0.2169
   59SAPC  H14X 4550   5.970   2.870   8.064 -1.2337  1.0583 -0.9853
   59SAPC  H14Y 4551   5.988   2.972   8.206 -0.7968  0.8941 -0.2288
   59SAPC  C315 4552   5.807   3.001   8.084 -0.4886  0.2834 -0.1115
   59SAPC  H15X 4553   5.740   2.938   8.022  1.2196 -0.8243 -0.8627
   59SAPC  H15Y 4554   5.862   3.068   8.015  1.9976  0.7352  2.1916
   59SAPC  C316 4555   5.717   3.079   8.183 -0.7786 -0.6372  0.2180
   59SAPC  H16X 4556   5.785   3.110   8.265 -0.0794  1.7890 -1.2114
   59SAPC  H16Y 4557   5.649   3.006   8.231  0.0228 -2.7225 -1.6872
   59SAPC  C317 4558   5.649   3.198   8.122  0.1449  0.0138  0.1346
   59SAPC  H17X 4559   5.567   3.168   8.053 -1.0269 -0.8815  1.8788
   59SAPC  H17Y 4560   5.717   3.256   8.056  1.3371 -2.7283 -1.1224
   59SAPC  C318 4561   5.595   3.283   8.226  0.0294  0.0771  0.7350
   59SAPC  H18X 4562   5.532   3.367   8.191  1.1222  0.3149 -0.7096
   59SAPC  H18Y 4563   5.679   3.305   8.295  1.2599 -1.4708 -0.2200
   59SAPC  H18Z 4564   5.530   3.225   8.296 -0.1367 -0.8778 -0.1982
   60SAPC     N 4565   5.878   1.033  10.147 -0.5214 -0.3393  0.8848
   60SAPC   C12 4566   5.916   1.154  10.233  0.1748  0.6855 -0.0902
   60SAPC  H12A 4567   5.971   1.134  10.323  0.4850  1.3533 -0.1285
   60SAPC  H12B 4568   5.827   1.207  10.264 -1.2306 -1.6882  0.0482
   60SAPC   C13 4569   5.992   0.938  10.141  0.5025 -0.3822  0.2200
   60SAPC  H13A 4570   6.080   0.982  10.095  1.2460 -0.2168  1.7615
   60SAPC  H13B 4571   6.023   0.916  10.242  0.2974 -0.5209  0.2539
   60SAPC  H13C 4572   5.969   0.847  10.088 -0.3582 -0.4294  0.6792
   60SAPC   C14 4573   5.756   0.965  10.210 -0.4049 -0.4365 -0.0484
   60SAPC  H14A 4574   5.766   0.963  10.318  0.5857 -2.5999 -0.1477
   60SAPC  H14B 4575   5.668   1.023  10.190 -1.4619 -2.4502 -1.3765
   60SAPC  H14C 4576   5.729   0.869  10.170 -2.7328 -0.5752  1.8108
   60SAPC   C15 4577   5.854   1.068  10.003 -0.2718  0.0521  0.2787
   60SAPC  H15A 4578   5.773   1.138   9.986  0.3924  0.6317 -0.5413
   60SAPC  H15B 4579   5.943   1.118   9.968 -0.1254 -1.2264 -1.2012
   60SAPC  H15C 4580   5.838   0.983   9.939 -2.2630  1.3010 -0.9480
   60SAPC   C11 4581   6.017   1.263  10.169 -0.8205  0.3777 -0.9180
   60SAPC  H11A 4582   6.102   1.207  10.124 -1.4090  1.0881 -2.9826
   60SAPC  H11B 4583   6.057   1.328  10.250 -3.7240  0.7590  0.2729
   60SAPC     P 4584   5.828   1.432  10.108 -0.3799 -0.2127 -0.1080
   60SAPC   O13 4585   5.773   1.399  10.236  0.5896 -0.0573 -0.1429
   60SAPC   O14 4586   5.878   1.569  10.082  0.4455 -0.3028 -0.3066
   60SAPC   O12 4587   5.949   1.333  10.066 -0.4585 -0.5974  0.0608
   60SAPC   O11 4588   5.719   1.408   9.995 -0.1185  0.2201  0.0734
   60SAPC    C1 4589   5.615   1.498   9.959  0.3373 -0.1756 -0.0525
   60SAPC    HA 4590   5.522   1.470  10.013 -0.6278  0.5427 -1.3028
   60SAPC    HB 4591   5.637   1.595  10.009  0.6843  0.5598 -1.6103
   60SAPC    C2 4592   5.595   1.529   9.809  0.5518 -0.1521  0.0090
   60SAPC    HS 4593   5.509   1.599   9.800 -1.4654 -2.5683 -0.0135
   60SAPC   O21 4594   5.594   1.411   9.727  0.3458 -0.3393 -0.3838
   60SAPC   C21 4595   5.480   1.361   9.729 -0.0666 -0.0352  0.1246
   60SAPC   O22 4596   5.375   1.394   9.781 -0.1897  0.3067 -0.4144
   60SAPC   C22 4597   5.473   1.244   9.620  0.0679  0.7415  0.2766
   60SAPC   H2R 4598   5.528   1.158   9.664 -1.2127  0.4361  1.3149
   60SAPC   H2S 4599   5.369   1.205   9.619  0.7253 -1.1604 -3.8147
   60SAPC    C3 4600   5.711   1.632   9.767  0.0320  0.1533 -0.1327
   60SAPC    HX 4601   5.807   1.589   9.805  0.3902  0.2681 -0.8902
   60SAPC    HY 4602   5.684   1.725   9.820 -2.0329 -0.9564  0.7978
   60SAPC   O31 4603   5.711   1.665   9.623 -0.0766  0.2405  0.5570
   60SAPC   C31 4604   5.814   1.615   9.553 -0.9444 -0.2912  0.0853
   60SAPC   O32 4605   5.896   1.537   9.593 -0.0667 -0.0531 -0.0225
   60SAPC   C32 4606   5.796   1.652   9.406 -0.1649 -0.5017  1.0091
   60SAPC   H2X 4607   5.831   1.757   9.400  0.0204 -0.5523  1.1903
   60SAPC   H2Y 4608   5.687   1.654   9.384  0.3656  0.0804 -1.6674
   60SAPC   C23 4609   5.517   1.290   9.476 -0.1909  0.7751 -0.0528
   60SAPC   H3R 4610   5.540   1.399   9.482  0.5310  0.5321  2.1025
   60SAPC   H3S 4611   5.433   1.265   9.408 -0.4678  1.4527  0.0311
   60SAPC   C24 4612   5.636   1.213   9.424  0.5192  0.3240 -0.6747
   60SAPC   H4R 4613   5.652   1.239   9.318  0.6357 -0.1434 -0.7753
   60SAPC   H4S 4614   5.608   1.105   9.423 -3.2350  1.2607 -1.1524
   60SAPC   C25 4615   5.759   1.220   9.519  0.0112 -1.0493  0.1588
   60SAPC   H5R 4616   5.770   1.308   9.583  2.7372 -0.2361 -1.3389
   60SAPC   C26 4617   5.854   1.130   9.530  0.4540  0.2219 -0.1176
   60SAPC   H6R 4618   5.934   1.144   9.604  0.3108  1.0094 -0.1137
   60SAPC   C27 4619   5.881   0.999   9.464 -0.1586  0.0307 -0.4835
   60SAPC   H7R 4620   5.825   1.000   9.368  1.1104  2.2208 -1.2408
   60SAPC   H7S 4621   5.829   0.912   9.509  0.4915 -0.8648 -1.4426
   60SAPC   C28 4622   6.032   0.975   9.438  0.4499  0.0408  0.7093
   60SAPC   H8R 4623   6.091   0.997   9.529  1.8133 -0.5149 -0.0206
   60SAPC   C29 4624   6.096   0.934   9.326 -0.4382  0.2677  0.2832
   60SAPC   H9R 4625   6.203   0.911   9.338 -0.7906 -1.2953  0.5490
   60SAPC  C210 4626   6.034   0.902   9.190  0.0648  0.5861 -0.4113
   60SAPC  H10R 4627   6.094   0.953   9.112  1.2556  0.1501  0.2140
   60SAPC  H10S 4628   5.928   0.937   9.189  0.1976  1.1051  1.2346
   60SAPC  C211 4629   6.008   0.751   9.177  0.3488  0.1567 -0.1055
   60SAPC  H11R 4630   6.012   0.692   9.270  0.7362 -1.3443 -1.0369
   60SAPC  C212 4631   5.966   0.695   9.061  0.3361 -0.1292 -0.0759
   60SAPC  H12R 4632   5.931   0.591   9.053 -1.8250  0.6602 -1.3709
   60SAPC  C213 4633   5.948   0.768   8.928 -0.2531  0.3909  0.6748
   60SAPC  H13R 4634   5.949   0.879   8.943  0.2330  0.3166  1.2377
   60SAPC  H13S 4635   5.848   0.747   8.884  0.4380  0.2298 -0.8346
   60SAPC  C214 4636   6.054   0.728   8.826 -0.5817 -0.4301 -0.1608
   60SAPC  H14R 4637   6.047   0.620   8.806  1.7698 -0.9703  1.6617
   60SAPC  C215 4638   6.139   0.804   8.752 -0.0811 -0.1895  0.0141
   60SAPC  H15R 4639   6.219   0.753   8.696  1.5886  1.6904  0.6427
   60SAPC  C216 4640   6.147   0.954   8.748  0.6015 -0.2101 -0.6836
   60SAPC  H16R 4641   6.224   0.999   8.814  0.3282  1.5605 -1.5278
   60SAPC  H16S 4642   6.048   0.996   8.775  0.3841  0.7487 -2.8646
   60SAPC  C217 4643   6.152   1.013   8.607  0.1993 -0.6409  0.1700
   60SAPC  H17R 4644   6.069   0.990   8.537  0.6822  1.7656 -1.2527
   60SAPC  H17S 4645   6.247   0.980   8.559 -0.6194 -1.7555 -0.7557
   60SAPC  C218 4646   6.138   1.165   8.620  0.0997 -0.8552 -0.3627
   60SAPC  H18R 4647   6.205   1.198   8.702  0.2644 -1.8669 -0.0816
   60SAPC  H18S 4648   6.035   1.165   8.661 -0.1707  0.1520 -1.0281
   60SAPC  C219 4649   6.159   1.247   8.487 -0.5086  0.4370  0.0920
   60SAPC  H19R 4650   6.075   1.202   8.431  0.2335 -1.4051  0.4384
   60SAPC  H19S 4651   6.257   1.211   8.449  0.9658  2.1094  2.1690
   60SAPC  C220 4652   6.156   1.397   8.495 -0.0931 -0.2307 -0.5521
   60SAPC  H20R 4653   6.257   1.432   8.525  1.0505 -1.6356 -2.6507
   60SAPC  H20S 4654   6.081   1.422   8.572  1.5952 -1.4333  1.5417
   60SAPC  H20T 4655   6.133   1.434   8.393  2.0154  0.0349 -0.9615
   60SAPC   C33 4656   5.875   1.559   9.321 -1.1603 -0.0459  0.5625
   60SAPC   H3X 4657   5.837   1.455   9.333 -2.1103  0.2230 -0.0077
   60SAPC   H3Y 4658   5.982   1.571   9.350 -0.7302 -1.0635 -0.5877
   60SAPC   C34 4659   5.862   1.603   9.167 -0.4723  0.2764 -0.3473
   60SAPC   H4X 4660   5.955   1.594   9.108 -0.4189  1.0955 -0.4029
   60SAPC   H4Y 4661   5.840   1.712   9.166 -0.2545  0.3814  2.6645
   60SAPC   C35 4662   5.755   1.524   9.104  0.6359  0.3472  0.2956
   60SAPC   H5X 4663   5.651   1.542   9.137  0.3976  0.0549 -0.2929
   60SAPC   H5Y 4664   5.776   1.420   9.135  0.4138  0.3802  0.5639
   60SAPC   C36 4665   5.754   1.520   8.952  0.0204 -0.2229  0.6853
   60SAPC   H6X 4666   5.861   1.516   8.921  0.4338 -1.4421  2.1984
   60SAPC   H6Y 4667   5.721   1.617   8.909  1.1916  0.8817  2.1944
   60SAPC   C37 4668   5.697   1.395   8.887  0.2243  0.0334 -0.2934
   60SAPC   H7X 4669   5.589   1.373   8.897 -0.1671  2.3714  1.1415
   60SAPC   H7Y 4670   5.756   1.309   8.926 -1.9126 -1.3860 -0.1123
   60SAPC   C38 4671   5.719   1.400   8.733  0.2908  0.8356  0.6181
   60SAPC   H8X 4672   5.732   1.302   8.681  1.3858 -0.0426  2.4788
   60SAPC   H8Y 4673   5.808   1.463   8.715  0.7907 -0.1160 -0.2899
   60SAPC   C39 4674   5.611   1.481   8.654 -0.8904 -0.8771  0.0729
   60SAPC   H9X 4675   5.589   1.569   8.718 -2.7921 -1.4503  0.2402
   60SAPC   H9Y 4676   5.524   1.414   8.642 -1.7460  0.2977 -0.3175
   60SAPC  C310 4677   5.647   1.535   8.510  0.7642  0.9207  0.2933
   60SAPC  H10X 4678   5.643   1.452   8.436  0.6078  0.1410  1.1659
   60SAPC  H10Y 4679   5.748   1.580   8.502  1.3032 -0.6021 -1.7610
   60SAPC  C311 4680   5.540   1.632   8.460  0.6069 -0.3668  0.2285
   60SAPC  H11X 4681   5.577   1.642   8.356  1.1642 -0.6117  0.3971
   60SAPC  H11Y 4682   5.550   1.724   8.522 -0.9280  0.3077 -0.4946
   60SAPC  C312 4683   5.399   1.574   8.469 -0.3978  1.1209  0.3399
   60SAPC  H12X 4684   5.359   1.559   8.571  1.8819  3.0133  1.5645
   60SAPC  H12Y 4685   5.399   1.472   8.425 -0.9550  1.7162 -1.0692
   60SAPC  C313 4686   5.310   1.656   8.376  0.2144  0.6321  0.3569
   60SAPC  H13X 4687   5.366   1.682   8.283  1.2699  1.1054  1.1117
   60SAPC  H13Y 4688   5.268   1.744   8.429 -0.0106 -0.4879  2.0654
   60SAPC  C314 4689   5.184   1.580   8.324  0.6330 -0.1865  0.4115
   60SAPC  H14X 4690   5.217   1.487   8.272  0.0204  0.6970 -1.6090
   60SAPC  H14Y 4691   5.124   1.640   8.253  0.1600 -0.0700  0.9031
   60SAPC  C315 4692   5.083   1.534   8.431 -0.0568 -0.0927  0.0639
   60SAPC  H15X 4693   5.068   1.613   8.507  0.3432 -1.8122  1.9690
   60SAPC  H15Y 4694   5.119   1.442   8.481 -0.4807 -0.0888  0.3763
   60SAPC  C316 4695   4.941   1.525   8.376  0.0062 -0.2407 -0.3982
   60SAPC  H16X 4696   4.930   1.604   8.299  0.7798 -1.2077 -1.5260
   60SAPC  H16Y 4697   4.869   1.545   8.458 -0.0101 -1.3433 -0.1336
   60SAPC  C317 4698   4.894   1.386   8.325 -0.4053 -0.2833 -0.1832
   60SAPC  H17X 4699   4.898   1.321   8.416  1.6287  0.8259  0.5545
   60SAPC  H17Y 4700   4.964   1.340   8.252  1.3495 -0.4436  1.5427
   60SAPC  C318 4701   4.754   1.380   8.264  0.0366  1.1034 -0.4236
   60SAPC  H18X 4702   4.671   1.414   8.329 -0.0878  1.5767 -0.8255
   60SAPC  H18Y 4703   4.726   1.278   8.230 -1.1319  0.9278  1.0196
   60SAPC  H18Z 4704   4.752   1.433   8.166 -1.0670  0.5257 -0.7195
   61SAPC     N 4705   1.808   7.054   9.753 -0.5234 -0.6022 -0.2765
   61SAPC   C12 4706   1.832   6.928   9.678  0.0253 -0.2303  0.1922
   61SAPC  H12A 4707   1.923   6.946   9.623 -0.6877  0.1150 -0.9117
   61SAPC  H12B 4708   1.751   6.913   9.607  0.3304 -0.9031 -0.0251
   61SAPC   C13 4709   1.789   7.168   9.662 -0.2086 -0.5294 -0.3502
   61SAPC  H13A 4710   1.871   7.204   9.603  0.5725  0.1911  1.1390
   61SAPC  H13B 4711   1.706   7.154   9.595  0.3305  0.8637 -1.3196
   61SAPC  H13C 4712   1.778   7.251   9.730 -0.1677 -0.9984  0.2377
   61SAPC   C14 4713   1.679   7.051   9.834  0.2339 -0.0566 -0.6186
   61SAPC  H14A 4714   1.690   6.995   9.926 -0.1595 -0.6263 -0.9194
   61SAPC  H14B 4715   1.650   7.149   9.869  0.2627 -0.0523 -0.6065
   61SAPC  H14C 4716   1.594   7.017   9.777  0.7803 -1.2248 -0.7601
   61SAPC   C15 4717   1.927   7.074   9.847 -0.1566 -0.1630  0.6149
   61SAPC  H15A 4718   1.923   7.161   9.911 -1.1496 -0.4142  0.8878
   61SAPC  H15B 4719   1.938   6.987   9.909  0.6181  0.2443  1.0604
   61SAPC  H15C 4720   2.020   7.091   9.794 -1.3611  1.7360 -0.9448
   61SAPC   C11 4721   1.859   6.796   9.751 -0.3555 -0.8030  0.1409
   61SAPC  H11A 4722   1.944   6.811   9.820 -0.3958  1.3448 -0.2273
   61SAPC  H11B 4723   1.897   6.717   9.683  0.9465  1.6226 -2.0463
   61SAPC     P 4724   1.617   6.692   9.772  0.2173  0.1880 -0.1608
   61SAPC   O13 4725   1.625   6.546   9.748 -0.2865 -0.2123 -0.1391
   61SAPC   O14 4726   1.524   6.728   9.876 -0.3708 -0.5062 -0.5321
   61SAPC   O12 4727   1.748   6.752   9.834  0.2155  0.5468  0.0233
   61SAPC   O11 4728   1.609   6.767   9.639  0.4524  0.1744  0.1247
   61SAPC    C1 4729   1.483   6.827   9.593 -0.2338  0.2703  0.3278
   61SAPC    HA 4730   1.395   6.771   9.633 -0.4530  0.3310 -0.0741
   61SAPC    HB 4731   1.491   6.934   9.623  1.4880  1.0000 -2.5813
   61SAPC    C2 4732   1.462   6.826   9.438 -0.4309  0.4733  0.2036
   61SAPC    HS 4733   1.355   6.819   9.411 -0.7920  0.2540  1.6570
   61SAPC   O21 4734   1.528   6.717   9.381  0.2124 -0.9083  0.7430
   61SAPC   C21 4735   1.467   6.602   9.376  0.2871  0.3119  0.2677
   61SAPC   O22 4736   1.362   6.563   9.429 -0.4711 -0.6090 -0.1205
   61SAPC   C22 4737   1.554   6.521   9.280 -0.3758 -0.5303  0.9762
   61SAPC   H2R 4738   1.627   6.469   9.344  1.7907  0.4313 -0.6554
   61SAPC   H2S 4739   1.480   6.449   9.240 -0.9133 -0.4366  1.7883
   61SAPC    C3 4740   1.510   6.962   9.378 -0.1744  0.0191 -0.1285
   61SAPC    HX 4741   1.620   6.965   9.389 -0.2073 -1.2764  0.7108
   61SAPC    HY 4742   1.466   7.050   9.429  4.0915  0.5653  2.8689
   61SAPC   O31 4743   1.479   6.953   9.243 -0.5407 -0.4157  0.4325
   61SAPC   C31 4744   1.562   7.007   9.157  0.0804 -0.2351  0.4745
   61SAPC   O32 4745   1.647   7.088   9.184  0.6288 -0.5859 -0.4269
   61SAPC   C32 4746   1.495   6.962   9.019 -0.2063  0.1369  0.6390
   61SAPC   H2X 4747   1.407   7.029   9.007 -0.0698  0.0850 -0.7265
   61SAPC   H2Y 4748   1.464   6.858   9.042  0.9307 -0.4975 -0.5797
   61SAPC   C23 4749   1.638   6.598   9.179 -0.2428  0.1082  0.1420
   61SAPC   H3R 4750   1.680   6.681   9.240 -0.8957 -1.4283  2.7629
   61SAPC   H3S 4751   1.573   6.642   9.100 -2.3388  0.7893  2.1921
   61SAPC   C24 4752   1.745   6.511   9.113 -0.8305 -0.2274  0.0763
   61SAPC   H4R 4753   1.804   6.454   9.187 -0.5039 -1.5785 -1.2063
   61SAPC   H4S 4754   1.826   6.571   9.067 -0.1414 -1.9746 -1.0025
   61SAPC   C25 4755   1.693   6.405   9.017  0.4264 -0.5198 -0.1513
   61SAPC   H5R 4756   1.618   6.336   9.056  0.3075 -0.3950 -0.1583
   61SAPC   C26 4757   1.738   6.400   8.890 -0.3287 -0.6594 -0.2366
   61SAPC   H6R 4758   1.705   6.317   8.825 -0.1025  0.2770 -1.5705
   61SAPC   C27 4759   1.837   6.482   8.814 -0.5342  0.1288 -0.2207
   61SAPC   H7R 4760   1.856   6.582   8.859  0.2995 -0.3562  0.5263
   61SAPC   H7S 4761   1.784   6.500   8.718  0.2841 -1.3379 -0.9614
   61SAPC   C28 4762   1.969   6.405   8.804 -0.0993 -0.0738 -0.3200
   61SAPC   H8R 4763   1.964   6.296   8.821 -1.7908  0.3350  2.1114
   61SAPC   C29 4764   2.087   6.461   8.773 -0.6184  0.7864  0.7002
   61SAPC   H9R 4765   2.169   6.389   8.757 -0.2377  1.4611 -0.4734
   61SAPC  C210 4766   2.117   6.603   8.743 -1.0834 -0.0154 -0.0464
   61SAPC  H10R 4767   2.203   6.635   8.806 -2.7395  2.5750  0.9942
   61SAPC  H10S 4768   2.038   6.668   8.787 -0.5377 -0.2777  1.3433
   61SAPC  C211 4769   2.132   6.628   8.598 -0.2251  0.3129 -0.3731
   61SAPC  H11R 4770   2.042   6.676   8.556  1.1055  1.7980 -1.5888
   61SAPC  C212 4771   2.240   6.617   8.516 -0.0308  0.3625 -0.0703
   61SAPC  H12R 4772   2.224   6.646   8.411 -3.5764  2.3311  0.9497
   61SAPC  C213 4773   2.380   6.573   8.554  0.3681 -0.1552 -0.9478
   61SAPC  H13R 4774   2.408   6.480   8.501  1.6347 -0.1610 -0.2852
   61SAPC  H13S 4775   2.373   6.549   8.662  2.4958 -0.2714 -0.8048
   61SAPC  C214 4776   2.477   6.690   8.526  0.5655  0.2201 -0.3067
   61SAPC  H14R 4777   2.501   6.750   8.616 -0.0171  0.1966 -0.1343
   61SAPC  C215 4778   2.539   6.724   8.409 -0.5044 -0.0593  0.0973
   61SAPC  H15R 4779   2.602   6.815   8.405 -0.0186 -0.4586 -1.4571
   61SAPC  C216 4780   2.519   6.651   8.279 -0.8967  0.1631 -0.1902
   61SAPC  H16R 4781   2.478   6.719   8.201  1.5963  0.9355 -0.8713
   61SAPC  H16S 4782   2.446   6.568   8.290 -0.5623  0.1521  2.2575
   61SAPC  C217 4783   2.648   6.586   8.240  0.2737  0.1603  0.1981
   61SAPC  H17R 4784   2.677   6.519   8.324 -0.0766  1.9595  1.7983
   61SAPC  H17S 4785   2.724   6.667   8.236 -0.3202  0.7738  1.0127
   61SAPC  C218 4786   2.635   6.512   8.105 -0.1071 -0.3778 -0.8751
   61SAPC  H18R 4787   2.594   6.582   8.029 -0.0074 -0.5239 -1.0637
   61SAPC  H18S 4788   2.555   6.438   8.123 -1.9399  1.6922 -0.2864
   61SAPC  C219 4789   2.762   6.447   8.054  0.5711 -0.1551 -0.1855
   61SAPC  H19R 4790   2.830   6.535   8.054 -1.3023  1.3268  1.1156
   61SAPC  H19S 4791   2.740   6.406   7.953 -1.6537  1.2491 -0.3013
   61SAPC  C220 4792   2.837   6.346   8.140  0.2294 -0.4952 -1.0364
   61SAPC  H20R 4793   2.946   6.360   8.123  0.2243  0.7530 -0.0878
   61SAPC  H20S 4794   2.804   6.243   8.114  0.9083 -0.9039 -0.2694
   61SAPC  H20T 4795   2.822   6.360   8.249  1.4835  0.2067 -0.9354
   61SAPC   C33 4796   1.583   6.985   8.897 -0.2244 -0.2857 -0.5969
   61SAPC   H3X 4797   1.680   6.930   8.899  0.5067  0.8172 -3.1022
   61SAPC   H3Y 4798   1.605   7.094   8.899 -0.7981 -0.1661 -0.6044
   61SAPC   C34 4799   1.508   6.948   8.767  0.0877  0.1442  0.1228
   61SAPC   H4X 4800   1.577   6.962   8.682 -0.7109 -2.3755 -0.9826
   61SAPC   H4Y 4801   1.425   7.018   8.745 -0.1418 -0.0014  0.5173
   61SAPC   C35 4802   1.459   6.808   8.773 -0.0377 -0.6908  0.5862
   61SAPC   H5X 4803   1.368   6.797   8.837 -0.4983 -0.3169  0.0114
   61SAPC   H5Y 4804   1.535   6.744   8.822  1.8383  0.9246 -0.1805
   61SAPC   C36 4805   1.441   6.752   8.626  0.5429 -0.2874  0.4455
   61SAPC   H6X 4806   1.541   6.768   8.580 -0.5184  1.7308 -1.2630
   61SAPC   H6Y 4807   1.367   6.811   8.568  0.0511  2.1234  3.4010
   61SAPC   C37 4808   1.405   6.605   8.599  0.2917  0.3546 -0.3008
   61SAPC   H7X 4809   1.471   6.545   8.665 -0.7616 -1.5749 -0.9512
   61SAPC   H7Y 4810   1.422   6.585   8.491  0.3741 -1.4254  0.0265
   61SAPC   C38 4811   1.254   6.582   8.621  0.2688 -0.3268 -0.1289
   61SAPC   H8X 4812   1.197   6.669   8.582 -0.1787 -0.9650 -0.9113
   61SAPC   H8Y 4813   1.234   6.575   8.730 -0.1381 -1.5237 -0.2705
   61SAPC   C39 4814   1.197   6.455   8.555  0.3120  0.7835 -0.8548
   61SAPC   H9X 4815   1.093   6.436   8.590  0.6503  1.9844  0.8939
   61SAPC   H9Y 4816   1.257   6.369   8.592 -0.8179  0.1832 -0.3745
   61SAPC  C310 4817   1.196   6.460   8.402  0.1933  0.4878 -0.0463
   61SAPC  H10X 4818   1.291   6.499   8.361  1.1940  0.4602  2.1857
   61SAPC  H10Y 4819   1.116   6.532   8.372  0.4619  0.4309 -0.8915
   61SAPC  C311 4820   1.166   6.327   8.326 -0.0227 -0.0457 -0.6231
   61SAPC  H11X 4821   1.061   6.294   8.344 -0.4830  0.8427 -1.6653
   61SAPC  H11Y 4822   1.230   6.247   8.369 -1.0116 -1.2005 -1.2658
   61SAPC  C312 4823   1.206   6.319   8.183  0.2034  0.3098  0.5508
   61SAPC  H12X 4824   1.317   6.316   8.176  0.0139 -0.1483 -3.5025
   61SAPC  H12Y 4825   1.166   6.413   8.138 -4.7336 -1.2951  1.2661
   61SAPC  C313 4826   1.145   6.204   8.106  0.3041  0.1037  0.0358
   61SAPC  H13X 4827   1.036   6.227   8.105  0.5615  1.4996  1.2881
   61SAPC  H13Y 4828   1.161   6.103   8.149 -0.3196  0.7469  1.8343
   61SAPC  C314 4829   1.197   6.201   7.960 -0.4140  1.2217  0.1034
   61SAPC  H14X 4830   1.182   6.299   7.909 -1.5416  0.9570 -0.0788
   61SAPC  H14Y 4831   1.136   6.136   7.895  3.9855 -2.6460 -0.4222
   61SAPC  C315 4832   1.342   6.150   7.945 -0.0414  0.4969  0.1169
   61SAPC  H15X 4833   1.402   6.221   8.006  0.5107  0.5737 -0.5133
   61SAPC  H15Y 4834   1.381   6.141   7.841  1.7153  0.4359  0.7573
   61SAPC  C316 4835   1.375   6.015   8.025 -0.4935  0.0137 -0.1990
   61SAPC  H16X 4836   1.348   6.017   8.133  0.3655 -3.2005  0.1290
   61SAPC  H16Y 4837   1.483   5.992   8.013 -0.5629 -0.3441 -0.1635
   61SAPC  C317 4838   1.298   5.895   7.967  0.1250  1.1203  0.0631
   61SAPC  H17X 4839   1.333   5.876   7.864 -0.9248 -2.9728  0.3674
   61SAPC  H17Y 4840   1.194   5.934   7.956 -0.2680 -0.0076 -0.2368
   61SAPC  C318 4841   1.313   5.771   8.061  0.3838  0.1532 -1.1885
   61SAPC  H18X 4842   1.403   5.711   8.037 -0.8303 -1.9177 -0.7133
   61SAPC  H18Y 4843   1.233   5.699   8.030  2.3691 -2.5349 -0.2649
   61SAPC  H18Z 4844   1.310   5.795   8.169  0.0855 -2.5657 -0.5426
   62SAPC     N 4845   1.074   6.322  10.134 -0.1843  0.7251 -0.0557
   62SAPC   C12 4846   1.172   6.383  10.038 -0.6861  0.5143  0.6468
   62SAPC  H12A 4847   1.252   6.310  10.046 -1.6172 -0.4703  1.1790
   62SAPC  H12B 4848   1.208   6.480  10.068  1.7708 -0.7847  2.0215
   62SAPC   C13 4849   0.948   6.401  10.135 -0.1502  0.0502  0.1484
   62SAPC  H13A 4850   0.866   6.354  10.188  0.5037 -1.3397 -0.0405
   62SAPC  H13B 4851   0.962   6.499  10.177  0.4899 -0.0636  0.2039
   62SAPC  H13C 4852   0.910   6.413  10.035  1.0981  2.5463 -0.0561
   62SAPC   C14 4853   1.042   6.183  10.091 -0.2694 -0.8072  0.6318
   62SAPC  H14A 4854   1.133   6.125  10.085 -0.2714 -0.7438 -0.1150
   62SAPC  H14B 4855   0.968   6.134  10.152 -3.6766  0.4123 -2.3557
   62SAPC  H14C 4856   1.000   6.183   9.992 -0.5327 -0.4069  0.7437
   62SAPC   C15 4857   1.135   6.321  10.278  0.5785  0.4717  0.3128
   62SAPC  H15A 4858   1.163   6.420  10.309 -1.0716  1.2578 -0.6357
   62SAPC  H15B 4859   1.054   6.277  10.334 -0.0782 -0.0160 -0.9790
   62SAPC  H15C 4860   1.218   6.252  10.285  0.4178  0.4863  2.6043
   62SAPC   C11 4861   1.132   6.388   9.886  0.7873 -0.5185 -0.0878
   62SAPC  H11A 4862   1.113   6.282   9.858  1.7952 -0.8059  0.2882
   62SAPC  H11B 4863   1.215   6.421   9.820  1.5746  0.3657  1.3472
   62SAPC     P 4864   1.032   6.622   9.881  0.3989 -0.0654  0.0479
   62SAPC   O13 4865   1.119   6.667   9.988  0.4271 -0.4965  0.2846
   62SAPC   O14 4866   1.058   6.682   9.749  0.1666 -0.0186  0.4672
   62SAPC   O12 4867   1.020   6.466   9.868 -0.2909  0.1065 -0.0720
   62SAPC   O11 4868   0.888   6.674   9.921 -0.5627 -0.0424 -0.4399
   62SAPC    C1 4869   0.779   6.669   9.825 -0.3975 -0.3204 -0.2698
   62SAPC    HA 4870   0.771   6.754   9.755  0.9661  0.3346  0.3524
   62SAPC    HB 4871   0.778   6.574   9.767  0.5197 -0.8162  0.5063
   62SAPC    C2 4872   0.644   6.653   9.900 -0.0460  0.5093 -0.5844
   62SAPC    HS 4873   0.646   6.562   9.964 -3.7367  1.0723  0.4577
   62SAPC   O21 4874   0.547   6.643   9.796  0.3098 -0.6163 -0.2764
   62SAPC   C21 4875   0.438   6.582   9.817 -0.0496 -0.7113 -0.3438
   62SAPC   O22 4876   0.394   6.549   9.929 -0.4686  0.3486  0.0715
   62SAPC   C22 4877   0.359   6.569   9.687  0.6609  0.0884 -0.2987
   62SAPC   H2R 4878   0.416   6.507   9.614  1.8093  0.6050  0.1375
   62SAPC   H2S 4879   0.265   6.515   9.712 -0.2347  1.5452 -0.4866
   62SAPC    C3 4880   0.613   6.771   9.998  0.9308 -0.2974 -0.1988
   62SAPC    HX 4881   0.675   6.756  10.089 -1.1070 -0.4466  1.2011
   62SAPC    HY 4882   0.513   6.759  10.045  1.6925  1.6118  1.9895
   62SAPC   O31 4883   0.633   6.898   9.943  0.1375 -0.1344 -0.1102
   62SAPC   C31 4884   0.526   6.946   9.881 -0.2787 -0.0388  0.0275
   62SAPC   O32 4885   0.417   6.889   9.858 -0.2276 -0.0538 -1.0251
   62SAPC   C32 4886   0.561   7.086   9.822  0.7716  0.4706 -0.2673
   62SAPC   H2X 4887   0.670   7.096   9.839  0.7002 -1.0960  1.2075
   62SAPC   H2Y 4888   0.511   7.165   9.882 -3.2919 -1.0944 -1.4263
   62SAPC   C23 4889   0.325   6.703   9.618  0.2518  0.4943 -0.0945
   62SAPC   H3R 4890   0.414   6.754   9.576  0.0442  0.2183 -0.8737
   62SAPC   H3S 4891   0.284   6.773   9.694 -4.0286  1.0476 -2.7393
   62SAPC   C24 4892   0.235   6.678   9.495 -0.3194 -0.2723  0.5082
   62SAPC   H4R 4893   0.139   6.631   9.523  0.7186 -1.9444  1.3858
   62SAPC   H4S 4894   0.298   6.603   9.442 -1.6427  0.7611 -2.6252
   62SAPC   C25 4895   0.200   6.808   9.424 -0.1965 -1.0236  1.0958
   62SAPC   H5R 4896   0.136   6.875   9.483  0.6026 -0.3973  1.2500
   62SAPC   C26 4897   0.253   6.848   9.301  0.9050 -0.0454 -0.0711
   62SAPC   H6R 4898   0.216   6.944   9.263  1.5870 -0.4843 -1.9132
   62SAPC   C27 4899   0.347   6.776   9.208 -0.0682  0.3556  0.5301
   62SAPC   H7R 4900   0.305   6.763   9.106  0.0631  4.3391 -0.1032
   62SAPC   H7S 4901   0.364   6.673   9.246 -2.1341 -1.0532 -2.2000
   62SAPC   C28 4902   0.478   6.845   9.197 -0.0348 -0.1798  0.3181
   62SAPC   H8R 4903   0.501   6.916   9.278 -0.6127 -0.9658  1.1755
   62SAPC   C29 4904   0.563   6.838   9.096 -0.1616 -0.9121 -0.4965
   62SAPC   H9R 4905   0.648   6.908   9.104 -1.6770  0.8048  1.4800
   62SAPC  C210 4906   0.561   6.768   8.969  0.4435 -0.6939  0.3301
   62SAPC  H10R 4907   0.597   6.849   8.902  0.5162 -0.3440  0.7970
   62SAPC  H10S 4908   0.458   6.738   8.941 -0.1901  1.9020 -0.1946
   62SAPC  C211 4909   0.652   6.651   8.960 -0.2984 -0.1443 -0.6899
   62SAPC  H11R 4910   0.660   6.589   9.051 -1.5948 -1.8761 -1.7278
   62SAPC  C212 4911   0.720   6.596   8.858  0.0951 -0.0633 -0.6809
   62SAPC  H12R 4912   0.775   6.502   8.872 -1.1189 -0.7732 -0.6869
   62SAPC  C213 4913   0.718   6.640   8.715  0.1567 -0.4289 -0.3769
   62SAPC  H13R 4914   0.683   6.746   8.714  1.2929 -0.0532 -0.4771
   62SAPC  H13S 4915   0.639   6.577   8.669 -1.8311  1.5813  0.1898
   62SAPC  C214 4916   0.851   6.631   8.641 -0.1223 -0.2840 -0.8441
   62SAPC  H14R 4917   0.943   6.601   8.692 -1.1915 -0.2102  1.2069
   62SAPC  C215 4918   0.868   6.657   8.509  0.1691 -0.0591 -0.7085
   62SAPC  H15R 4919   0.967   6.646   8.461  1.8745 -1.1510  2.8972
   62SAPC  C216 4920   0.758   6.694   8.412 -0.2280 -0.6977 -0.5046
   62SAPC  H16R 4921   0.792   6.774   8.342  1.4421  0.6007  1.7165
   62SAPC  H16S 4922   0.669   6.736   8.463 -0.8420  0.8571 -2.7729
   62SAPC  C217 4923   0.713   6.578   8.312  0.4165  0.0905 -1.1697
   62SAPC  H17R 4924   0.610   6.600   8.274  0.1504  2.9241  1.0133
   62SAPC  H17S 4925   0.692   6.490   8.376 -0.8872  0.3365 -1.2280
   62SAPC  C218 4926   0.808   6.538   8.201 -0.2944 -0.0784 -0.3874
   62SAPC  H18R 4927   0.910   6.517   8.239 -0.0625 -0.8093 -1.3867
   62SAPC  H18S 4928   0.807   6.634   8.144  0.0389 -0.6935 -1.4470
   62SAPC  C219 4929   0.754   6.428   8.117 -0.4376  0.0048 -0.6506
   62SAPC  H19R 4930   0.812   6.412   8.023  0.9042  1.0239 -0.0015
   62SAPC  H19S 4931   0.647   6.449   8.098 -1.0025 -0.9660  1.3129
   62SAPC  C220 4932   0.765   6.298   8.195  0.2739  0.2675  1.0078
   62SAPC  H20R 4933   0.746   6.209   8.131  0.7673  0.5313  0.4851
   62SAPC  H20S 4934   0.692   6.297   8.278 -2.1319  2.4955 -0.9740
   62SAPC  H20T 4935   0.867   6.281   8.234  1.1465  0.3800 -1.1652
   62SAPC   C33 4936   0.504   7.099   9.680 -0.4595 -0.3094 -0.0373
   62SAPC   H3X 4937   0.510   7.201   9.638 -2.6118 -0.3413 -0.4518
   62SAPC   H3Y 4938   0.397   7.067   9.678 -0.4593 -0.4815  1.8467
   62SAPC   C34 4939   0.585   7.006   9.584  0.1231  0.1276  0.1784
   62SAPC   H4X 4940   0.538   7.018   9.484 -1.7092  0.6324  1.0852
   62SAPC   H4Y 4941   0.576   6.904   9.627 -1.6077 -0.1273 -0.7755
   62SAPC   C35 4942   0.739   7.034   9.567  1.0844  0.0401 -0.0990
   62SAPC   H5X 4943   0.777   7.012   9.669  1.0376 -0.9019 -0.2811
   62SAPC   H5Y 4944   0.758   7.141   9.546 -1.0179  0.3544 -0.5201
   62SAPC   C36 4945   0.789   6.951   9.443  0.5129 -0.2801 -0.6250
   62SAPC   H6X 4946   0.885   6.996   9.409  0.8516 -0.5592 -0.0579
   62SAPC   H6Y 4947   0.718   6.956   9.358 -1.6315 -1.9943  1.0022
   62SAPC   C37 4948   0.799   6.806   9.478 -0.2470  0.3583  0.1416
   62SAPC   H7X 4949   0.710   6.761   9.527  0.8090 -0.7162  1.1188
   62SAPC   H7Y 4950   0.884   6.798   9.549  2.2166 -0.4483 -2.8278
   62SAPC   C38 4951   0.818   6.721   9.356 -0.8321  0.5674 -0.4333
   62SAPC   H8X 4952   0.728   6.721   9.292 -0.2152  1.4698 -1.3099
   62SAPC   H8Y 4953   0.844   6.619   9.392  1.6053  1.0528 -0.7276
   62SAPC   C39 4954   0.944   6.765   9.274 -0.4315  0.3721  0.1321
   62SAPC   H9X 4955   1.017   6.808   9.345  0.4520 -2.4448  1.0133
   62SAPC   H9Y 4956   0.931   6.846   9.199 -0.1371  0.1921 -0.1157
   62SAPC  C310 4957   1.000   6.657   9.183  0.2763  0.2084 -0.3139
   62SAPC  H10X 4958   0.926   6.642   9.102  0.4612  1.4798 -0.7360
   62SAPC  H10Y 4959   1.012   6.568   9.248  0.1928 -0.6239 -1.4236
   62SAPC  C311 4960   1.141   6.696   9.126 -0.2139 -0.7227 -0.3083
   62SAPC  H11X 4961   1.196   6.753   9.204 -0.0993 -1.0977 -0.1141
   62SAPC  H11Y 4962   1.122   6.765   9.041 -2.8678 -0.5298  0.3988
   62SAPC  C312 4963   1.236   6.582   9.091 -1.0736  0.2266 -0.5268
   62SAPC  H12X 4964   1.259   6.533   9.188 -0.9992  0.3340 -0.4900
   62SAPC  H12Y 4965   1.335   6.609   9.048 -0.0464 -2.6447 -0.1078
   62SAPC  C313 4966   1.192   6.464   9.002 -0.3068  0.4699 -0.3022
   62SAPC  H13X 4967   1.158   6.501   8.902  0.8373  1.7066 -0.2438
   62SAPC  H13Y 4968   1.106   6.419   9.056  1.0737  0.7571  2.1807
   62SAPC  C314 4969   1.309   6.372   8.988 -0.3837  0.3584  0.1838
   62SAPC  H14X 4970   1.349   6.349   9.089 -1.3653 -1.6540  0.1525
   62SAPC  H14Y 4971   1.382   6.432   8.930 -0.2510 -1.0632 -1.1526
   62SAPC  C315 4972   1.280   6.240   8.920 -0.5049  0.1373  0.0107
   62SAPC  H15X 4973   1.216   6.260   8.831 -2.6515 -2.6671  0.8266
   62SAPC  H15Y 4974   1.210   6.175   8.977  0.1981 -0.8432 -0.2205
   62SAPC  C316 4975   1.411   6.166   8.887 -0.2652  0.2580  0.2114
   62SAPC  H16X 4976   1.452   6.116   8.977 -0.4724 -0.6974 -0.2185
   62SAPC  H16Y 4977   1.487   6.237   8.849 -0.5269 -0.5800 -1.9915
   62SAPC  C317 4978   1.381   6.058   8.786  0.6086  0.1078 -0.2946
   62SAPC  H17X 4979   1.305   5.987   8.826  1.0913 -0.3610 -0.2034
   62SAPC  H17Y 4980   1.474   5.999   8.769  1.9809  2.2255 -0.3206
   62SAPC  C318 4981   1.325   6.102   8.654 -0.0197 -0.0911  0.4651
   62SAPC  H18X 4982   1.314   6.016   8.584  3.5238  0.5100 -0.9295
   62SAPC  H18Y 4983   1.392   6.173   8.602  0.9258 -0.0971  1.6568
   62SAPC  H18Z 4984   1.229   6.156   8.670  0.3432  0.5509  0.4974
   63SAPC     N 4985   3.803   4.364   5.811 -0.8483  0.9516 -0.0374
   63SAPC   C12 4986   3.917   4.451   5.761  0.7617 -0.4165 -0.3778
   63SAPC  H12A 4987   3.897   4.552   5.792 -0.2980 -0.8001  0.2114
   63SAPC  H12B 4988   3.921   4.451   5.653 -0.0687 -0.4367 -0.4079
   63SAPC   C13 4989   3.785   4.377   5.957 -0.5640 -0.6609  0.4748
   63SAPC  H13A 4990   3.694   4.327   5.987 -0.0098 -2.1791 -0.3317
   63SAPC  H13B 4991   3.862   4.336   6.020  0.3028  0.4455  0.1494
   63SAPC  H13C 4992   3.770   4.481   5.980 -0.8552 -0.4748 -0.5146
   63SAPC   C14 4993   3.676   4.412   5.750 -0.8297  0.3867  0.0459
   63SAPC  H14A 4994   3.595   4.376   5.812  0.0572 -0.6261  0.6196
   63SAPC  H14B 4995   3.667   4.520   5.759 -0.9335  0.3116  0.8328
   63SAPC  H14C 4996   3.652   4.380   5.649 -0.3863 -0.3942  0.1853
   63SAPC   C15 4997   3.818   4.218   5.768  0.1082 -0.3154  0.6637
   63SAPC  H15A 4998   3.737   4.149   5.785 -0.6100  0.1018 -1.0116
   63SAPC  H15B 4999   3.845   4.209   5.664 -0.8675 -0.1677  0.3986
   63SAPC  H15C 5000   3.901   4.183   5.828  0.9668 -0.6217 -0.6939
   63SAPC   C11 5001   4.054   4.409   5.810 -0.1575 -0.1853 -0.1072
   63SAPC  H11A 5002   4.130   4.444   5.736  0.4645 -1.9905 -0.3318
   63SAPC  H11B 5003   4.068   4.301   5.789 -0.4502 -0.8355  2.9150
   63SAPC     P 5004   4.074   4.594   5.995 -0.1364 -0.0558  0.3060
   63SAPC   O13 5005   4.199   4.627   6.063 -0.5179  0.6449 -0.2794
   63SAPC   O14 5006   4.042   4.676   5.874  0.1500  0.0357 -0.1121
   63SAPC   O12 5007   4.081   4.447   5.953  0.2035 -0.6789  0.7831
   63SAPC   O11 5008   3.956   4.607   6.105  0.5661 -0.0916  0.2986
   63SAPC    C1 5009   3.961   4.544   6.232 -0.0425  0.9869 -0.1381
   63SAPC    HA 5010   3.870   4.483   6.247 -1.5861  3.3115  0.2428
   63SAPC    HB 5011   4.039   4.465   6.235 -0.7756  0.1918 -1.3009
   63SAPC    C2 5012   3.955   4.643   6.349 -0.2192 -0.4013  0.3679
   63SAPC    HS 5013   3.882   4.723   6.329 -0.2316 -0.4147  0.3597
   63SAPC   O21 5014   4.091   4.691   6.360 -0.3577 -0.0246  0.3022
   63SAPC   C21 5015   4.098   4.797   6.432  0.5834 -0.2349  0.5344
   63SAPC   O22 5016   4.008   4.859   6.485  0.2313  0.7091 -0.1456
   63SAPC   C22 5017   4.248   4.829   6.472  0.2008  0.7279 -0.5991
   63SAPC   H2R 5018   4.278   4.918   6.412  0.6614 -0.5977 -2.3981
   63SAPC   H2S 5019   4.249   4.873   6.573  0.6424 -0.3412 -0.1280
   63SAPC    C3 5020   3.896   4.577   6.482 -0.1612 -0.2615 -0.1300
   63SAPC    HX 5021   3.794   4.534   6.471  0.3498 -1.4400 -0.3308
   63SAPC    HY 5022   3.881   4.660   6.555  1.6352  0.0340 -0.0780
   63SAPC   O31 5023   3.989   4.484   6.535  0.2445 -0.0643 -0.2537
   63SAPC   C31 5024   3.965   4.353   6.511  0.6463  0.3198 -0.2676
   63SAPC   O32 5025   3.871   4.306   6.458  0.3963  0.7055  0.4779
   63SAPC   C32 5026   4.090   4.273   6.565  0.0313  0.7358  0.3936
   63SAPC   H2X 5027   4.180   4.334   6.587  1.6636 -0.9928 -1.2449
   63SAPC   H2Y 5028   4.119   4.204   6.483  0.0533  1.5270 -0.2736
   63SAPC   C23 5029   4.348   4.717   6.439  1.0247  0.1117 -0.2368
   63SAPC   H3R 5030   4.452   4.754   6.452  0.4823  1.1653  1.1290
   63SAPC   H3S 5031   4.351   4.685   6.332  1.2856  0.7776 -0.4350
   63SAPC   C24 5032   4.342   4.588   6.535 -0.5542 -0.3650 -0.2794
   63SAPC   H4R 5033   4.235   4.564   6.552 -0.1278  1.0402  5.0970
   63SAPC   H4S 5034   4.377   4.621   6.635  1.8575  1.1737 -1.5700
   63SAPC   C25 5035   4.419   4.470   6.493 -0.1448  0.9964  0.9372
   63SAPC   H5R 5036   4.390   4.439   6.391  1.1924 -0.4265  0.9673
   63SAPC   C26 5037   4.522   4.409   6.554  0.4276  0.6939 -0.2715
   63SAPC   H6R 5038   4.549   4.309   6.517  0.0437 -0.3082  2.0873
   63SAPC   C27 5039   4.577   4.460   6.684 -0.3320 -0.4353 -0.2500
   63SAPC   H7R 5040   4.495   4.457   6.758 -0.0367  0.8311  0.1423
   63SAPC   H7S 5041   4.609   4.566   6.676 -0.7556 -0.3213 -0.4373
   63SAPC   C28 5042   4.690   4.371   6.733 -0.6120  0.1390 -0.1619
   63SAPC   H8R 5043   4.794   4.406   6.720  0.5559 -2.3718  1.7904
   63SAPC   C29 5044   4.675   4.246   6.790  0.1857 -0.2735  0.1704
   63SAPC   H9R 5045   4.768   4.202   6.828  1.3800 -0.8074 -3.1973
   63SAPC  C210 5046   4.547   4.172   6.819  0.1964  0.0349  0.2434
   63SAPC  H10R 5047   4.460   4.241   6.825  0.9448  1.2217 -2.0624
   63SAPC  H10S 5048   4.564   4.132   6.922  1.8592  0.1288  0.0078
   63SAPC  C211 5049   4.513   4.070   6.717 -0.2012  0.2709 -0.0634
   63SAPC  H11R 5050   4.496   4.109   6.616  0.7394  0.8557 -0.0066
   63SAPC  C212 5051   4.494   3.941   6.748  0.8467 -0.2310  0.1231
   63SAPC  H12R 5052   4.463   3.874   6.666  0.6505 -0.3337  0.2800
   63SAPC  C213 5053   4.500   3.865   6.875 -0.3255  0.1815  0.0036
   63SAPC  H13R 5054   4.605   3.863   6.912  0.6229 -1.4730 -2.6407
   63SAPC  H13S 5055   4.466   3.760   6.863 -0.2634  0.0006  1.3754
   63SAPC  C214 5056   4.400   3.905   6.977  0.0145  0.3567  0.4947
   63SAPC  H14R 5057   4.300   3.930   6.939 -0.3202 -1.8869 -0.2081
   63SAPC  C215 5058   4.411   3.897   7.109  0.0059 -0.0226  0.0949
   63SAPC  H15R 5059   4.323   3.933   7.166  0.1731  0.2769  0.1678
   63SAPC  C216 5060   4.522   3.852   7.186 -0.0144 -0.1844 -1.5502
   63SAPC  H16R 5061   4.610   3.840   7.119  0.2809 -0.9318 -1.0279
   63SAPC  H16S 5062   4.499   3.751   7.225 -0.2142  0.8312  1.0213
   63SAPC  C217 5063   4.569   3.948   7.293  0.1467 -0.7093 -0.6557
   63SAPC  H17R 5064   4.611   4.036   7.240 -2.5554  1.8758  1.3225
   63SAPC  H17S 5065   4.648   3.890   7.345  0.9234  0.1364 -0.8775
   63SAPC  C218 5066   4.458   3.993   7.399  0.3458  0.2771 -0.4409
   63SAPC  H18R 5067   4.422   3.898   7.444  2.1991  0.7237  2.0755
   63SAPC  H18S 5068   4.364   4.031   7.353  0.2232  2.1751  1.2918
   63SAPC  C219 5069   4.509   4.082   7.508 -0.9822  0.0107 -0.1803
   63SAPC  H19R 5070   4.540   4.176   7.459  0.0437 -0.5061 -0.5491
   63SAPC  H19S 5071   4.596   4.039   7.563 -1.4730 -1.1430 -0.2950
   63SAPC  C220 5072   4.401   4.114   7.610 -0.3227 -0.9735  0.2241
   63SAPC  H20R 5073   4.334   4.194   7.572  0.0533 -0.6841  0.1741
   63SAPC  H20S 5074   4.447   4.146   7.706 -3.0841 -2.1258  2.0107
   63SAPC  H20T 5075   4.336   4.026   7.631  2.3660 -3.0073  0.3537
   63SAPC   C33 5076   4.035   4.190   6.676 -0.1401  0.0456 -0.2358
   63SAPC   H3X 5077   4.102   4.103   6.693 -1.3363 -0.9426 -0.5208
   63SAPC   H3Y 5078   3.938   4.151   6.639  0.3403 -2.7637  1.3173
   63SAPC   C34 5079   4.043   4.268   6.808 -0.1568 -0.1708 -0.5175
   63SAPC   H4X 5080   3.989   4.205   6.882  0.1667 -1.6064 -1.4964
   63SAPC   H4Y 5081   3.999   4.370   6.797  0.9980  0.1250 -2.6966
   63SAPC   C35 5082   4.182   4.287   6.860 -0.1937 -0.7386 -0.4799
   63SAPC   H5X 5083   4.242   4.362   6.805  1.6069 -0.5754  1.6223
   63SAPC   H5Y 5084   4.238   4.192   6.847  0.4429 -0.6842  1.6552
   63SAPC   C36 5085   4.195   4.327   7.013 -0.9586 -0.8224  0.8025
   63SAPC   H6X 5086   4.126   4.263   7.072 -0.3745 -2.9325 -0.7760
   63SAPC   H6Y 5087   4.148   4.426   7.035 -0.1348 -0.7736  2.3929
   63SAPC   C37 5088   4.336   4.309   7.069  0.5179  0.4855 -0.3477
   63SAPC   H7X 5089   4.419   4.369   7.026  0.2560  1.9591  1.1396
   63SAPC   H7Y 5090   4.377   4.208   7.051  2.6207  1.4325 -1.0035
   63SAPC   C38 5091   4.350   4.327   7.221 -0.6334  0.5086 -0.4225
   63SAPC   H8X 5092   4.456   4.333   7.255 -0.9572  3.1024  0.2603
   63SAPC   H8Y 5093   4.293   4.250   7.277  0.5576 -0.3950 -0.4294
   63SAPC   C39 5094   4.300   4.462   7.255  0.0101  0.1027  0.2750
   63SAPC   H9X 5095   4.189   4.472   7.256  0.0766  0.8201  1.3058
   63SAPC   H9Y 5096   4.334   4.529   7.173  1.4872 -0.1118  0.7038
   63SAPC  C310 5097   4.378   4.525   7.376  1.4605 -0.3784  0.4415
   63SAPC  H10X 5098   4.390   4.635   7.369  0.0147 -0.2344  0.2249
   63SAPC  H10Y 5099   4.486   4.497   7.381  1.1926 -1.2665  1.4131
   63SAPC  C311 5100   4.319   4.508   7.511 -0.1206 -0.1752  0.8517
   63SAPC  H11X 5101   4.387   4.556   7.584 -0.2993  2.2407 -0.4871
   63SAPC  H11Y 5102   4.318   4.405   7.551 -0.1242 -0.1616  0.8868
   63SAPC  C312 5103   4.178   4.562   7.538  0.0900  0.6325  0.0536
   63SAPC  H12X 5104   4.103   4.494   7.493  0.8501  0.7680 -1.4769
   63SAPC  H12Y 5105   4.165   4.662   7.490 -0.6573  1.8559  2.7321
   63SAPC  C313 5106   4.138   4.594   7.685 -0.0021 -0.1220 -0.9321
   63SAPC  H13X 5107   4.036   4.638   7.684  0.8669  1.9563 -0.6510
   63SAPC  H13Y 5108   4.197   4.672   7.738 -0.7947 -0.8385  1.0265
   63SAPC  C314 5109   4.121   4.467   7.774 -0.5791 -0.0100  0.6020
   63SAPC  H14X 5110   4.212   4.404   7.765 -2.0477 -2.4224  2.2632
   63SAPC  H14Y 5111   4.044   4.406   7.723 -0.0929 -0.8978  0.9150
   63SAPC  C315 5112   4.080   4.494   7.917  0.4413 -0.0946  0.6417
   63SAPC  H15X 5113   4.160   4.516   7.990  1.5580  2.8665 -1.3480
   63SAPC  H15Y 5114   4.042   4.394   7.947  3.0292 -1.0032  1.0302
   63SAPC  C316 5115   3.962   4.584   7.946 -0.4750 -0.1488 -0.2495
   63SAPC  H16X 5116   3.895   4.586   7.858  0.1267  1.2586 -0.6903
   63SAPC  H16Y 5117   3.986   4.688   7.975 -0.3744 -0.4136  0.6579
   63SAPC  C317 5118   3.866   4.531   8.054  0.4302 -0.3507 -0.3614
   63SAPC  H17X 5119   3.919   4.507   8.148 -0.5974  0.6663  0.4980
   63SAPC  H17Y 5120   3.823   4.442   8.004  1.7571 -1.1997 -0.0037
   63SAPC  C318 5121   3.742   4.618   8.084  0.0506 -0.2958 -0.4080
   63SAPC  H18X 5122   3.782   4.707   8.138 -2.7287  0.7871 -0.0854
   63SAPC  H18Y 5123   3.671   4.566   8.152  1.5332 -1.9938 -0.1001
   63SAPC  H18Z 5124   3.693   4.643   7.988  1.9547  1.8758 -0.8693
   64SAPC     N 5125   3.564   5.906   5.697 -0.7306 -0.5381  0.0249
   64SAPC   C12 5126   3.640   5.901   5.840 -0.3299 -0.0160  0.2580
   64SAPC  H12A 5127   3.631   6.002   5.879 -2.1315  0.1358 -0.4839
   64SAPC  H12B 5128   3.744   5.883   5.820  0.0176 -1.2429  2.8999
   64SAPC   C13 5129   3.548   5.772   5.642  0.5601  0.7198  0.2212
   64SAPC  H13A 5130   3.505   5.774   5.543 -3.2090  0.7640  1.7786
   64SAPC  H13B 5131   3.647   5.728   5.646  0.3467  0.2160 -0.0130
   64SAPC  H13C 5132   3.491   5.717   5.715  0.3455 -0.4584 -0.8162
   64SAPC   C14 5133   3.426   5.965   5.720  0.4181 -0.2986  0.2121
   64SAPC  H14A 5134   3.362   5.906   5.783  1.6225 -1.7233  0.1415
   64SAPC  H14B 5135   3.449   6.053   5.779  0.7844  0.6928 -1.3565
   64SAPC  H14C 5136   3.383   5.991   5.624  3.5120  4.0728 -0.1581
   64SAPC   C15 5137   3.636   6.000   5.610  0.7152 -0.2397  0.1740
   64SAPC  H15A 5138   3.658   6.093   5.660  1.0421  0.4582 -1.2437
   64SAPC  H15B 5139   3.727   5.955   5.573 -0.5786 -0.9804 -2.2487
   64SAPC  H15C 5140   3.583   6.013   5.517  2.3871  0.3014 -0.7043
   64SAPC   C11 5141   3.596   5.790   5.936  0.7209  0.2352 -0.0163
   64SAPC  H11A 5142   3.652   5.792   6.032 -0.3066  0.1600  0.5859
   64SAPC  H11B 5143   3.607   5.685   5.900  0.2667 -0.0248  0.5916
   64SAPC     P 5144   3.416   5.890   6.096 -0.1470 -0.3739 -0.2386
   64SAPC   O13 5145   3.282   5.941   6.075  0.4260  0.2756 -0.2715
   64SAPC   O14 5146   3.447   5.806   6.213 -0.5353  0.2445  0.2867
   64SAPC   O12 5147   3.451   5.801   5.968  0.1480  0.0699  0.3693
   64SAPC   O11 5148   3.500   6.019   6.081  0.5497  0.3123 -0.3502
   64SAPC    C1 5149   3.482   6.134   6.174  0.6643  0.7193  0.2105
   64SAPC    HA 5150   3.387   6.187   6.150 -0.1525 -0.4192  0.8808
   64SAPC    HB 5151   3.487   6.100   6.279  0.8079 -1.2402 -0.4065
   64SAPC    C2 5152   3.593   6.239   6.145 -0.2206 -0.3049 -0.0765
   64SAPC    HS 5153   3.594   6.252   6.035  0.0376  0.3043  0.0007
   64SAPC   O21 5154   3.713   6.202   6.204 -0.4111 -0.3098 -0.1526
   64SAPC   C21 5155   3.782   6.124   6.122  0.2495  0.0153 -0.0026
   64SAPC   O22 5156   3.760   6.085   6.011  0.1499  0.1568 -0.0722
   64SAPC   C22 5157   3.914   6.078   6.203 -1.1142  0.6693  0.0607
   64SAPC   H2R 5158   4.002   6.107   6.142  0.9669 -2.9437  1.2182
   64SAPC   H2S 5159   3.915   6.140   6.296 -0.0999  2.0390 -0.8411
   64SAPC    C3 5160   3.544   6.377   6.205 -0.3803  0.3794 -0.0441
   64SAPC    HX 5161   3.438   6.390   6.173 -0.5326 -0.9361 -0.1136
   64SAPC    HY 5162   3.615   6.452   6.165  2.0216 -1.0835  1.3609
   64SAPC   O31 5163   3.527   6.371   6.355 -0.4222 -0.3697 -0.4873
   64SAPC   C31 5164   3.637   6.407   6.423  0.7337 -0.3279  0.8398
   64SAPC   O32 5165   3.741   6.456   6.374  0.2350 -0.4957 -0.0554
   64SAPC   C32 5166   3.610   6.384   6.574 -0.2025 -0.1303 -0.0625
   64SAPC   H2X 5167   3.634   6.277   6.589  0.6771  0.2662  1.4770
   64SAPC   H2Y 5168   3.501   6.391   6.593  0.3740  2.4411  2.7442
   64SAPC   C23 5169   3.928   5.933   6.245  1.0612  0.4194  0.0622
   64SAPC   H3R 5170   4.032   5.896   6.236  1.9633  2.4080  1.8688
   64SAPC   H3S 5171   3.860   5.877   6.177 -0.0849  1.0072  0.7056
   64SAPC   C24 5172   3.887   5.886   6.388 -0.3138 -0.2501 -0.0294
   64SAPC   H4R 5173   3.957   5.916   6.468 -1.7446 -1.1628  1.6119
   64SAPC   H4S 5174   3.897   5.775   6.390 -0.8765 -0.3100 -0.3630
   64SAPC   C25 5175   3.750   5.933   6.414  0.9936 -0.4579 -0.2429
   64SAPC   H5R 5176   3.670   5.907   6.344 -0.2877 -2.0005  1.7177
   64SAPC   C26 5177   3.714   5.979   6.535 -0.2407  0.6815 -0.2329
   64SAPC   H6R 5178   3.620   6.034   6.546  0.4178  1.2057  3.3477
   64SAPC   C27 5179   3.800   5.995   6.661 -0.1668 -0.2351  0.0197
   64SAPC   H7R 5180   3.738   6.061   6.725  1.7377  2.4188 -0.7557
   64SAPC   H7S 5181   3.899   6.042   6.640  1.5833 -3.1808  1.2999
   64SAPC   C28 5182   3.832   5.861   6.725  0.0862 -0.6397  0.8570
   64SAPC   H8R 5183   3.830   5.775   6.657 -0.3266  0.8417 -1.0481
   64SAPC   C29 5184   3.857   5.823   6.850 -0.0053  0.0744 -0.2885
   64SAPC   H9R 5185   3.884   5.718   6.869  0.1081  0.5549  2.4902
   64SAPC  C210 5186   3.863   5.927   6.970  0.1194  0.0423  0.6285
   64SAPC  H10R 5187   3.761   5.922   7.015 -0.2775  0.3609 -0.2311
   64SAPC  H10S 5188   3.883   6.024   6.920 -1.3061 -0.4172 -0.9129
   64SAPC  C211 5189   3.971   5.875   7.067 -0.8144  0.8367  0.3835
   64SAPC  H11R 5190   4.064   5.843   7.018 -0.5046 -0.1596  1.6129
   64SAPC  C212 5191   3.954   5.853   7.194 -0.8447 -0.2466 -0.6545
   64SAPC  H12R 5192   4.043   5.819   7.248 -2.4041 -2.0391  0.8162
   64SAPC  C213 5193   3.823   5.870   7.273  0.1227 -0.2644  0.0768
   64SAPC  H13R 5194   3.780   5.768   7.274  0.1998 -0.3044 -0.4691
   64SAPC  H13S 5195   3.755   5.938   7.218  1.8068  0.4804 -1.1447
   64SAPC  C214 5196   3.824   5.925   7.416  0.0596  0.2962  0.3648
   64SAPC  H14R 5197   3.886   6.016   7.425 -0.8845  0.9931 -0.1288
   64SAPC  C215 5198   3.788   5.866   7.529 -0.0970 -0.0788  0.0880
   64SAPC  H15R 5199   3.801   5.933   7.616  0.5473 -0.8712  0.6017
   64SAPC  C216 5200   3.727   5.730   7.554 -0.3287  0.2812  0.2570
   64SAPC  H16R 5201   3.802   5.658   7.594 -0.7710  0.0119  0.6054
   64SAPC  H16S 5202   3.683   5.694   7.459 -1.0940 -1.4080  1.2266
   64SAPC  C217 5203   3.602   5.741   7.646 -0.9459 -0.7194 -0.1442
   64SAPC  H17R 5204   3.532   5.811   7.595  0.4701  0.9791  0.1778
   64SAPC  H17S 5205   3.627   5.782   7.746 -1.6555  1.7040 -0.9050
   64SAPC  C218 5206   3.525   5.615   7.687  0.4797  0.5580 -0.6260
   64SAPC  H18R 5207   3.585   5.539   7.742 -2.8147 -1.9394 -0.3502
   64SAPC  H18S 5208   3.489   5.560   7.597 -2.2030  0.6447  0.3775
   64SAPC  C219 5209   3.415   5.648   7.784 -0.7375  0.0919  0.2131
   64SAPC  H19R 5210   3.341   5.723   7.747 -2.1440 -1.8411 -0.9870
   64SAPC  H19S 5211   3.462   5.692   7.875  2.8194  1.1107 -2.0170
   64SAPC  C220 5212   3.329   5.526   7.818 -0.4480 -0.2066  0.3638
   64SAPC  H20R 5213   3.276   5.497   7.725  0.1696 -1.2758  0.3270
   64SAPC  H20S 5214   3.266   5.553   7.905  0.7900 -0.9772  1.5350
   64SAPC  H20T 5215   3.393   5.439   7.846 -0.8314 -1.2745 -1.9470
   64SAPC   C33 5216   3.696   6.478   6.666 -0.2503  0.5450 -1.2056
   64SAPC   H3X 5217   3.676   6.587   6.658 -0.2723  0.5966 -0.5120
   64SAPC   H3Y 5218   3.799   6.466   6.626 -0.1858  1.2542 -1.2545
   64SAPC   C34 5219   3.678   6.437   6.815  0.4658  0.7101  0.0075
   64SAPC   H4X 5220   3.712   6.333   6.834 -2.2367  0.3146  3.2539
   64SAPC   H4Y 5221   3.571   6.445   6.843  0.3225  0.4079 -0.4622
   64SAPC   C35 5222   3.747   6.529   6.913 -0.4510  0.1328 -0.1615
   64SAPC   H5X 5223   3.703   6.630   6.918 -1.4090 -0.3191  0.6953
   64SAPC   H5Y 5224   3.851   6.528   6.874 -0.4425 -2.2222 -0.1836
   64SAPC   C36 5225   3.766   6.477   7.053 -0.2148  0.3612 -0.1146
   64SAPC   H6X 5226   3.664   6.470   7.096  0.3744 -1.1048  1.0967
   64SAPC   H6Y 5227   3.829   6.546   7.112 -2.0400  0.0875  2.2064
   64SAPC   C37 5228   3.826   6.330   7.062  0.3732  0.1706 -0.0677
   64SAPC   H7X 5229   3.925   6.333   7.011  1.8041  0.8263  2.6451
   64SAPC   H7Y 5230   3.763   6.254   7.012 -2.7459  0.2735  3.4763
   64SAPC   C38 5231   3.847   6.280   7.205 -0.1310 -0.4962 -0.0027
   64SAPC   H8X 5232   3.846   6.169   7.211 -0.9072 -0.5420 -0.8315
   64SAPC   H8Y 5233   3.770   6.316   7.275 -0.4286  1.7745 -1.4352
   64SAPC   C39 5234   3.980   6.328   7.271  0.1641 -0.4606  0.4140
   64SAPC   H9X 5235   3.984   6.439   7.271  1.8399 -0.5036 -0.0339
   64SAPC   H9Y 5236   4.060   6.286   7.207  0.9849 -0.2148  1.2695
   64SAPC  C310 5237   4.006   6.266   7.409  0.2265 -0.3219 -0.4962
   64SAPC  H10X 5238   4.105   6.295   7.449 -0.1223 -1.7975  1.4658
   64SAPC  H10Y 5239   4.023   6.158   7.391 -0.1572 -0.0225 -2.9204
   64SAPC  C311 5240   3.905   6.294   7.524 -0.6113  0.1029  0.4488
   64SAPC  H11X 5241   3.801   6.265   7.499 -0.0214 -1.4031 -0.3174
   64SAPC  H11Y 5242   3.907   6.405   7.534  0.8588  0.0245  1.3351
   64SAPC  C312 5243   3.940   6.211   7.647 -0.2205  0.1270 -0.5766
   64SAPC  H12X 5244   4.030   6.259   7.692 -0.2408 -0.2633 -0.1247
   64SAPC  H12Y 5245   3.962   6.109   7.611  0.3200 -0.1071  0.4155
   64SAPC  C313 5246   3.824   6.209   7.747  0.1341  0.3933 -0.6410
   64SAPC  H13X 5247   3.852   6.144   7.833  0.9469  0.4881 -0.8308
   64SAPC  H13Y 5248   3.732   6.164   7.703  1.1033 -1.2728 -0.9764
   64SAPC  C314 5249   3.788   6.354   7.797  0.3472  0.0246  0.1576
   64SAPC  H14X 5250   3.751   6.413   7.710 -0.7118  0.3343  0.8097
   64SAPC  H14Y 5251   3.888   6.390   7.827  0.1947  0.6960 -0.1323
   64SAPC  C315 5252   3.694   6.368   7.921 -0.1575  0.1369  0.8781
   64SAPC  H15X 5253   3.702   6.281   7.989  0.0840  1.0691  2.0677
   64SAPC  H15Y 5254   3.590   6.380   7.886  0.4514  1.0802 -0.6858
   64SAPC  C316 5255   3.726   6.493   8.005  0.3194 -0.7048  0.6445
   64SAPC  H16X 5256   3.696   6.584   7.950  0.7471 -1.1897 -0.4036
   64SAPC  H16Y 5257   3.833   6.480   8.032  0.4431  0.5992  0.8066
   64SAPC  C317 5258   3.647   6.491   8.136 -0.2979  0.5466 -0.0311
   64SAPC  H17X 5259   3.692   6.417   8.206  2.2164  1.8954 -0.1562
   64SAPC  H17Y 5260   3.543   6.471   8.104 -0.5764  0.9037  0.6359
   64SAPC  C318 5261   3.647   6.635   8.202 -0.3470  0.2795  0.4619
   64SAPC  H18X 5262   3.613   6.630   8.308  0.9459  0.1692  0.8726
   64SAPC  H18Y 5263   3.593   6.710   8.140 -0.2714 -3.2277 -4.1341
   64SAPC  H18Z 5264   3.748   6.677   8.217 -1.4913  3.6251 -0.7719
   65SAPC     N 5265   4.987   6.564   5.904  0.7905  0.4248  0.0640
   65SAPC   C12 5266   4.885   6.617   5.997  0.3750 -0.5029 -0.1426
   65SAPC  H12A 5267   4.842   6.710   5.965 -1.5505 -0.3997  2.5310
   65SAPC  H12B 5268   4.935   6.649   6.087 -0.4630  0.1631  0.0872
   65SAPC   C13 5269   4.928   6.542   5.767  0.4103 -0.2154 -0.1921
   65SAPC  H13A 5270   4.873   6.630   5.737 -1.7524 -1.1230  0.9755
   65SAPC  H13B 5271   5.004   6.521   5.693  1.7832 -0.2922  1.2002
   65SAPC  H13C 5272   4.855   6.463   5.773  1.0751 -0.8482 -0.4976
   65SAPC   C14 5273   5.094   6.660   5.902 -0.5160 -0.1217 -0.4467
   65SAPC  H14A 5274   5.140   6.656   5.999  1.6832 -1.8816 -1.5097
   65SAPC  H14B 5275   5.166   6.631   5.827 -0.5759 -0.6047 -0.3137
   65SAPC  H14C 5276   5.061   6.761   5.882  0.6214  0.5210  0.8562
   65SAPC   C15 5277   5.031   6.433   5.950 -0.3764  0.0577 -0.3594
   65SAPC  H15A 5278   5.075   6.443   6.048 -0.6022  5.3532 -0.6602
   65SAPC  H15B 5279   4.947   6.368   5.970  0.1781 -0.1608  1.2894
   65SAPC  H15C 5280   5.110   6.396   5.886 -0.5612  0.2426 -0.7025
   65SAPC   C11 5281   4.778   6.526   6.050 -0.1587 -0.4316 -0.5094
   65SAPC  H11A 5282   4.733   6.466   5.968  0.5800 -1.5480 -0.1042
   65SAPC  H11B 5283   4.703   6.587   6.105 -0.1579 -1.9710  1.2163
   65SAPC     P 5284   4.792   6.284   6.172  0.6280 -0.0636  0.3202
   65SAPC   O13 5285   4.651   6.276   6.220 -0.0418  0.4554 -0.3364
   65SAPC   O14 5286   4.831   6.216   6.044  0.4679  0.1181 -0.2697
   65SAPC   O12 5287   4.829   6.438   6.148 -0.7168  0.4183 -0.0760
   65SAPC   O11 5288   4.888   6.250   6.291  0.7913 -0.3535  0.2080
   65SAPC    C1 5289   4.862   6.317   6.419 -0.7443  0.0885 -0.3830
   65SAPC    HA 5290   4.755   6.346   6.427 -0.9586 -0.5025 -1.1049
   65SAPC    HB 5291   4.890   6.239   6.493  0.7906  1.5097  0.5794
   65SAPC    C2 5292   4.947   6.444   6.448  0.2476 -0.6286 -0.1662
   65SAPC    HS 5293   4.932   6.508   6.358 -1.3905 -1.7421 -0.7241
   65SAPC   O21 5294   5.079   6.405   6.460 -0.1895  0.2308  0.1735
   65SAPC   C21 5295   5.174   6.498   6.462  0.2415 -0.7217  0.0628
   65SAPC   O22 5296   5.164   6.621   6.441 -0.1188  0.3628  0.0575
   65SAPC   C22 5297   5.308   6.432   6.507  0.0158  0.3471 -0.0178
   65SAPC   H2R 5298   5.290   6.340   6.566 -0.0786 -0.8134 -1.8170
   65SAPC   H2S 5299   5.356   6.420   6.408  0.1686  1.1509 -0.0469
   65SAPC    C3 5300   4.908   6.514   6.581  0.1947  0.4911  0.4968
   65SAPC    HX 5301   4.798   6.530   6.584  0.0579 -0.5958  2.0694
   65SAPC    HY 5302   4.962   6.611   6.579 -0.8028  1.0635  0.8898
   65SAPC   O31 5303   4.945   6.430   6.699  0.2134  0.0366 -1.1698
   65SAPC   C31 5304   4.885   6.451   6.810 -0.4560  0.3405 -0.0366
   65SAPC   O32 5305   4.811   6.547   6.831 -0.0516 -0.2507 -0.0347
   65SAPC   C32 5306   4.923   6.351   6.910 -0.1744  0.7312  0.6053
   65SAPC   H2X 5307   5.017   6.300   6.880 -0.7527 -0.6403  1.0690
   65SAPC   H2Y 5308   4.847   6.270   6.909  0.3507  0.1636  3.7243
   65SAPC   C23 5309   5.395   6.535   6.578 -0.2320 -0.2134  0.4798
   65SAPC   H3R 5310   5.402   6.634   6.530 -1.8543 -0.1893  0.2713
   65SAPC   H3S 5311   5.499   6.495   6.586 -0.3662 -1.1321 -1.9142
   65SAPC   C24 5312   5.346   6.569   6.717  0.1474  0.3120  0.8160
   65SAPC   H4R 5313   5.256   6.632   6.700 -0.7916 -1.0895  0.5255
   65SAPC   H4S 5314   5.426   6.631   6.763  0.9753 -0.8625  0.9930
   65SAPC   C25 5315   5.319   6.449   6.807  0.3193  0.0792  0.2904
   65SAPC   H5R 5316   5.232   6.393   6.767  1.1907 -0.1619 -1.3226
   65SAPC   C26 5317   5.372   6.425   6.925 -0.1195  0.2079  0.5215
   65SAPC   H6R 5318   5.355   6.331   6.980 -0.1155  0.3592  0.7839
   65SAPC   C27 5319   5.479   6.510   6.994  0.8423  0.8742 -0.3903
   65SAPC   H7R 5320   5.427   6.599   7.036  0.2495  0.1390  0.4599
   65SAPC   H7S 5321   5.550   6.552   6.920 -0.5729  0.6387 -1.9196
   65SAPC   C28 5322   5.555   6.433   7.101 -0.3235 -0.6797  0.1160
   65SAPC   H8R 5323   5.657   6.402   7.071 -0.5441 -1.9339  0.6081
   65SAPC   C29 5324   5.510   6.388   7.218  0.3904 -0.9356  0.0425
   65SAPC   H9R 5325   5.598   6.350   7.271 -0.0326  2.4677  3.4551
   65SAPC  C210 5326   5.372   6.391   7.286  0.0103 -0.4978  0.1725
   65SAPC  H10R 5327   5.383   6.314   7.365  0.3126  0.3256  0.9410
   65SAPC  H10S 5328   5.296   6.361   7.211  0.0084 -1.1652  0.4312
   65SAPC  C211 5329   5.339   6.533   7.334  0.4775 -0.1308  0.6281
   65SAPC  H11R 5330   5.373   6.608   7.262  1.2804 -0.7548  0.3469
   65SAPC  C212 5331   5.292   6.567   7.451  0.3196  0.2601  0.5316
   65SAPC  H12R 5332   5.284   6.676   7.463  0.5546  0.4424 -0.9457
   65SAPC  C213 5333   5.252   6.465   7.554  0.0437  0.0006 -0.3386
   65SAPC  H13R 5334   5.329   6.449   7.633  1.1623 -3.4948 -2.0188
   65SAPC  H13S 5335   5.244   6.360   7.521  1.0983 -0.4078  0.6428
   65SAPC  C214 5336   5.127   6.516   7.616  0.4612 -0.3092 -0.4410
   65SAPC  H14R 5337   5.080   6.611   7.586 -0.0535 -1.2487 -2.6949
   65SAPC  C215 5338   5.075   6.456   7.726 -0.0586  0.4529 -0.4531
   65SAPC  H15R 5339   4.981   6.495   7.768  0.6275  0.4495  1.1264
   65SAPC  C216 5340   5.127   6.339   7.809  0.5576 -0.0685 -0.0083
   65SAPC  H16R 5341   5.214   6.375   7.868 -1.7771  0.2327  3.3786
   65SAPC  H16S 5342   5.170   6.263   7.741  0.5485 -1.0304  1.0341
   65SAPC  C217 5343   5.026   6.276   7.904 -0.8745 -0.5969  0.1890
   65SAPC  H17R 5344   5.080   6.194   7.956  0.5843  1.0305  1.3121
   65SAPC  H17S 5345   4.947   6.228   7.843 -0.0314 -2.1717  0.2990
   65SAPC  C218 5346   4.960   6.361   8.012  0.1088  0.1818 -0.2964
   65SAPC  H18R 5347   4.909   6.434   7.946 -0.7915  0.6506  0.9139
   65SAPC  H18S 5348   5.037   6.417   8.071 -1.5705  0.1812  1.9641
   65SAPC  C219 5349   4.868   6.274   8.097  0.3033  0.3715 -0.0339
   65SAPC  H19R 5350   4.850   6.186   8.031 -1.2654  1.0738 -0.5685
   65SAPC  H19S 5351   4.769   6.322   8.110  0.0492 -0.4221  1.0099
   65SAPC  C220 5352   4.930   6.237   8.232  0.1024  0.3876 -0.2797
   65SAPC  H20R 5353   5.032   6.195   8.236  0.1658  0.6983  3.2033
   65SAPC  H20S 5354   4.873   6.150   8.271 -0.0903  1.2346  1.3611
   65SAPC  H20T 5355   4.931   6.316   8.311 -2.7616 -0.9364  1.1580
   65SAPC   C33 5356   4.920   6.417   7.050 -0.1284  0.2299 -0.7105
   65SAPC   H3X 5357   4.841   6.494   7.060  0.6748  1.0839 -0.8565
   65SAPC   H3Y 5358   5.016   6.472   7.054  0.4611 -0.8808  2.4226
   65SAPC   C34 5359   4.910   6.317   7.169  0.5251  0.6997  0.4343
   65SAPC   H4X 5360   4.815   6.261   7.165  0.8410  0.2147 -0.3845
   65SAPC   H4Y 5361   4.916   6.379   7.262 -0.1447 -0.9710  1.6070
   65SAPC   C35 5362   5.022   6.211   7.172  0.0246 -0.0507  0.2195
   65SAPC   H5X 5363   5.127   6.246   7.167  0.1007 -0.3274 -0.1118
   65SAPC   H5Y 5364   5.003   6.157   7.077  0.9081 -0.9507  0.5462
   65SAPC   C36 5365   5.007   6.108   7.288  0.6007 -0.4627  0.8398
   65SAPC   H6X 5366   5.093   6.040   7.273  1.8623  1.6943 -2.3129
   65SAPC   H6Y 5367   4.919   6.040   7.274 -3.5159  4.5418  0.8842
   65SAPC   C37 5368   5.014   6.166   7.422  0.0306  0.2521  0.1830
   65SAPC   H7X 5369   4.925   6.228   7.449 -0.7311 -0.2221 -1.2186
   65SAPC   H7Y 5370   5.108   6.225   7.425  1.4840 -1.9746 -0.4977
   65SAPC   C38 5371   5.013   6.064   7.537  0.4325  0.4916 -0.3720
   65SAPC   H8X 5372   4.942   5.982   7.512  0.5147  1.0009 -2.4107
   65SAPC   H8Y 5373   4.989   6.113   7.634  3.2913 -1.1536  1.2256
   65SAPC   C39 5374   5.155   6.016   7.568  0.2935  0.8366  0.0424
   65SAPC   H9X 5375   5.230   6.097   7.559  0.3442  0.6052 -1.7581
   65SAPC   H9Y 5376   5.178   5.938   7.492  2.9385 -0.7484  2.3662
   65SAPC  C310 5377   5.166   5.947   7.704 -0.4522 -0.2552  0.5184
   65SAPC  H10X 5378   5.108   5.999   7.783 -2.0555 -1.6928  0.3009
   65SAPC  H10Y 5379   5.273   5.951   7.732 -0.0887 -3.2748 -0.2931
   65SAPC  C311 5380   5.117   5.800   7.699 -0.6770  0.4034 -0.2106
   65SAPC  H11X 5381   5.160   5.742   7.615 -0.8597  0.3022 -0.2333
   65SAPC  H11Y 5382   5.006   5.809   7.694 -0.5718  2.6154  0.6914
   65SAPC  C312 5383   5.125   5.729   7.840  0.4044 -0.6496 -0.0125
   65SAPC  H12X 5384   5.066   5.636   7.830 -0.1734 -0.2952  0.0957
   65SAPC  H12Y 5385   5.083   5.795   7.919  1.6159  2.3091 -1.7175
   65SAPC  C313 5386   5.274   5.714   7.875 -0.2210  0.1571 -0.1224
   65SAPC  H13X 5387   5.265   5.678   7.980 -2.8473  2.2694  0.4202
   65SAPC  H13Y 5388   5.324   5.812   7.888  2.4749 -1.2320  0.3116
   65SAPC  C314 5389   5.357   5.609   7.797  0.2162 -0.5038 -0.2736
   65SAPC  H14X 5390   5.350   5.639   7.690 -0.6095 -0.5805 -0.2469
   65SAPC  H14Y 5391   5.315   5.508   7.814 -0.4905 -0.2327 -0.4106
   65SAPC  C315 5392   5.497   5.605   7.847  0.6368 -0.6329 -0.4328
   65SAPC  H15X 5393   5.497   5.582   7.955 -2.9094  0.6901 -0.0935
   65SAPC  H15Y 5394   5.540   5.706   7.832 -1.9230  0.2333 -2.4407
   65SAPC  C316 5395   5.575   5.498   7.768 -0.2230  0.4217 -0.2540
   65SAPC  H16X 5396   5.534   5.396   7.777 -1.0511  0.9392  2.3840
   65SAPC  H16Y 5397   5.678   5.489   7.808 -0.1707  0.0414 -0.4763
   65SAPC  C317 5398   5.588   5.526   7.612 -0.4387  0.6465  0.2117
   65SAPC  H17X 5399   5.629   5.625   7.583  2.9672 -0.6441  0.3933
   65SAPC  H17Y 5400   5.486   5.512   7.571 -0.6191 -2.2683  1.4816
   65SAPC  C318 5401   5.686   5.423   7.538 -0.1846  0.0114  0.0305
   65SAPC  H18X 5402   5.643   5.323   7.520  0.5823  0.0613 -2.2037
   65SAPC  H18Y 5403   5.779   5.416   7.599 -0.3163 -1.9329  0.0369
   65SAPC  H18Z 5404   5.709   5.468   7.439  1.8069  1.8282  1.2492
   66SAPC     N 5405   2.196   5.456   5.920  0.6821 -0.1975  0.7953
   66SAPC   C12 5406   2.319   5.544   5.912  0.5977 -0.4446 -0.2291
   66SAPC  H12A 5407   2.398   5.482   5.951  0.3639  1.4790  3.5527
   66SAPC  H12B 5408   2.312   5.619   5.990  1.1955  0.9790 -1.5221
   66SAPC   C13 5409   2.069   5.528   5.911  0.5679  0.4745  0.1595
   66SAPC  H13A 5410   2.074   5.575   5.813  1.2199 -0.7907 -0.4192
   66SAPC  H13B 5411   1.977   5.471   5.916  1.4377 -0.7965  1.7281
   66SAPC  H13C 5412   2.069   5.594   5.996  0.9439 -1.6921  1.8802
   66SAPC   C14 5413   2.194   5.355   5.810 -0.3440  0.5303 -0.1112
   66SAPC  H14A 5414   2.276   5.284   5.807 -0.9343 -0.3377  2.7722
   66SAPC  H14B 5415   2.116   5.282   5.826 -0.6205  0.5831 -1.1903
   66SAPC  H14C 5416   2.181   5.411   5.719  2.5280  0.3942 -0.6562
   66SAPC   C15 5417   2.198   5.398   6.058 -0.1819  0.5446 -0.1427
   66SAPC  H15A 5418   2.258   5.309   6.043 -0.2189  0.6758 -1.1041
   66SAPC  H15B 5419   2.237   5.454   6.141 -2.3918  0.1348  1.2169
   66SAPC  H15C 5420   2.100   5.376   6.097  1.1987  1.6164  4.2559
   66SAPC   C11 5421   2.353   5.619   5.776  0.1337  0.0001 -0.3863
   66SAPC  H11A 5422   2.340   5.542   5.697  0.8943 -0.1292 -0.3923
   66SAPC  H11B 5423   2.463   5.638   5.779  0.0371  0.6763 -1.0167
   66SAPC     P 5424   2.269   5.850   5.862  0.0724 -0.0127 -0.2860
   66SAPC   O13 5425   2.408   5.894   5.890 -0.0275 -0.4596 -0.7385
   66SAPC   O14 5426   2.177   5.950   5.804 -0.5563 -0.3406  0.4898
   66SAPC   O12 5427   2.267   5.729   5.761 -0.0045 -0.5848 -0.0345
   66SAPC   O11 5428   2.221   5.799   5.998  0.1895  0.4438 -0.1210
   66SAPC    C1 5429   2.108   5.853   6.064  0.1477  0.0521 -0.1118
   66SAPC    HA 5430   2.022   5.877   5.998 -0.9588 -0.7469  1.0192
   66SAPC    HB 5431   2.073   5.777   6.137 -0.6521  0.8443  0.3249
   66SAPC    C2 5432   2.137   5.984   6.141 -0.3376  0.0494 -0.3541
   66SAPC    HS 5433   2.183   6.054   6.068 -2.0352  0.4168 -1.0931
   66SAPC   O21 5434   2.236   5.959   6.247  0.0619  0.7169  0.3462
   66SAPC   C21 5435   2.315   6.057   6.266  0.6789 -0.2751 -0.7009
   66SAPC   O22 5436   2.306   6.171   6.218  0.2501  0.5078 -0.3104
   66SAPC   C22 5437   2.427   6.011   6.350 -0.5193  0.0641  0.7959
   66SAPC   H2R 5438   2.484   5.941   6.285 -0.8381  1.9780 -1.6057
   66SAPC   H2S 5439   2.491   6.098   6.376  1.1561 -0.2949 -1.8706
   66SAPC    C3 5440   2.011   6.046   6.205 -0.4519 -0.3481  0.1279
   66SAPC    HX 5441   1.935   6.077   6.130 -0.2849 -1.5336 -0.5548
   66SAPC    HY 5442   2.048   6.142   6.248 -0.1090 -0.6966  0.6110
   66SAPC   O31 5443   1.951   5.960   6.311 -0.0935  0.1598 -0.2227
   66SAPC   C31 5444   1.822   5.934   6.299 -0.5197 -0.9589  0.1197
   66SAPC   O32 5445   1.753   5.937   6.200  0.3790 -0.2109  0.8376
   66SAPC   C32 5446   1.773   5.861   6.431 -0.4398  0.3787  0.8809
   66SAPC   H2X 5447   1.827   5.764   6.435 -1.1303 -0.0332  0.3777
   66SAPC   H2Y 5448   1.666   5.838   6.416 -0.8692  2.8833 -0.2044
   66SAPC   C23 5449   2.381   5.927   6.469  0.3560 -0.4680  0.0689
   66SAPC   H3R 5450   2.460   5.865   6.517 -1.0691 -1.2602  1.4238
   66SAPC   H3S 5451   2.302   5.856   6.437  1.3343 -1.3466 -0.4074
   66SAPC   C24 5452   2.308   6.009   6.577  0.0642 -0.6286  0.5493
   66SAPC   H4R 5453   2.232   5.950   6.633  0.2419 -0.1416  1.3071
   66SAPC   H4S 5454   2.255   6.091   6.524 -2.7124 -3.1530 -0.7280
   66SAPC   C25 5455   2.415   6.054   6.670 -0.0201  0.3920 -0.3429
   66SAPC   H5R 5456   2.490   6.118   6.621  0.3192  1.1287  1.1031
   66SAPC   C26 5457   2.426   6.014   6.799  0.3968  0.6592  0.3193
   66SAPC   H6R 5458   2.510   6.048   6.861  0.0422  2.1918 -0.0091
   66SAPC   C27 5459   2.335   5.928   6.885 -0.2365 -0.2297 -0.2456
   66SAPC   H7R 5460   2.234   5.913   6.841 -0.8160 -2.9952  1.8927
   66SAPC   H7S 5461   2.322   5.994   6.973  0.3340  2.2540 -1.9827
   66SAPC   C28 5462   2.399   5.794   6.908 -0.0147  0.0582  0.0563
   66SAPC   H8R 5463   2.463   5.750   6.830 -1.2858  0.1255 -1.0454
   66SAPC   C29 5464   2.381   5.729   7.026 -0.0340  0.4681 -0.6688
   66SAPC   H9R 5465   2.460   5.653   7.041  2.2494  3.0506  0.8101
   66SAPC  C210 5466   2.308   5.759   7.150  0.0808  0.0587 -0.9738
   66SAPC  H10R 5467   2.201   5.732   7.138 -0.0760 -0.2920  0.9560
   66SAPC  H10S 5468   2.303   5.870   7.155  0.2346  0.0121  0.3669
   66SAPC  C211 5469   2.356   5.697   7.278  0.1096 -0.1890  0.7056
   66SAPC  H11R 5470   2.442   5.629   7.269  1.4058  1.6040 -0.8428
   66SAPC  C212 5471   2.314   5.737   7.401  0.1955  0.0243  0.4651
   66SAPC  H12R 5472   2.371   5.696   7.485  1.9334  3.2339  0.9330
   66SAPC  C213 5473   2.222   5.846   7.436  0.4935  0.8057  0.1418
   66SAPC  H13R 5474   2.188   5.897   7.344  0.0554 -1.9223 -1.2622
   66SAPC  H13S 5475   2.287   5.915   7.494  0.2030  1.8283 -0.7350
   66SAPC  C214 5476   2.096   5.816   7.512 -0.5346 -0.0594  0.2350
   66SAPC  H14R 5477   2.027   5.752   7.454  1.2886 -1.7781 -0.0687
   66SAPC  C215 5478   2.074   5.851   7.636  0.1225  0.2255 -0.4347
   66SAPC  H15R 5479   1.992   5.805   7.693  0.2444  0.6212  0.0593
   66SAPC  C216 5480   2.171   5.933   7.716  0.2555  0.3117 -0.2288
   66SAPC  H16R 5481   2.246   5.992   7.658  0.6199  0.7984  0.7242
   66SAPC  H16S 5482   2.241   5.862   7.766  0.8443  0.4769 -0.8018
   66SAPC  C217 5483   2.101   6.020   7.818 -0.5038 -0.6001  0.2816
   66SAPC  H17R 5484   2.043   5.975   7.900 -1.1042 -0.0297  0.1739
   66SAPC  H17S 5485   2.025   6.082   7.766  1.3906  0.2091 -1.6542
   66SAPC  C218 5486   2.193   6.120   7.889 -0.1672  0.8402 -0.3029
   66SAPC  H18R 5487   2.277   6.139   7.819  0.5732 -1.8076 -0.1597
   66SAPC  H18S 5488   2.237   6.074   7.979 -2.1642 -0.5716 -0.0163
   66SAPC  C219 5489   2.130   6.258   7.927 -1.1805  0.0210 -0.0861
   66SAPC  H19R 5490   2.027   6.244   7.966 -0.0250 -0.3006  3.0003
   66SAPC  H19S 5491   2.112   6.312   7.832  1.7042  1.4240  0.1177
   66SAPC  C220 5492   2.210   6.346   8.028  0.4697  0.4322  0.4911
   66SAPC  H20R 5493   2.314   6.351   7.992  1.0736 -0.9209  1.9629
   66SAPC  H20S 5494   2.214   6.311   8.134  0.6712 -2.4423 -0.4275
   66SAPC  H20T 5495   2.158   6.444   8.017  0.8360  0.6120  0.3808
   66SAPC   C33 5496   1.791   5.941   6.557 -0.4102 -0.1001 -0.5587
   66SAPC   H3X 5497   1.727   5.881   6.625  0.4638 -0.4566 -0.0515
   66SAPC   H3Y 5498   1.731   6.035   6.561 -0.7053 -0.3218  0.3255
   66SAPC   C34 5499   1.928   5.943   6.616 -0.4431 -0.3265 -0.1253
   66SAPC   H4X 5500   1.991   6.022   6.570  0.0811 -0.2897  0.6463
   66SAPC   H4Y 5501   1.974   5.842   6.606 -2.0275 -1.0028 -0.6914
   66SAPC   C35 5502   1.913   5.984   6.760  0.1544 -0.5215  0.2948
   66SAPC   H5X 5503   1.834   6.061   6.770  0.6006 -0.1131  0.7074
   66SAPC   H5Y 5504   2.011   6.031   6.784 -0.4616  1.4393 -0.9020
   66SAPC   C36 5505   1.878   5.870   6.857  0.5854  0.0278 -0.1063
   66SAPC   H6X 5506   1.927   5.786   6.804 -0.8666 -1.9932  1.6614
   66SAPC   H6Y 5507   1.767   5.867   6.862  0.6083  0.1652  0.5526
   66SAPC   C37 5508   1.941   5.890   6.994 -0.9691 -0.0503  0.2537
   66SAPC   H7X 5509   2.051   5.874   6.981 -1.4048 -1.4288 -2.0693
   66SAPC   H7Y 5510   1.903   5.812   7.063  2.8635 -1.9142  0.3831
   66SAPC   C38 5511   1.915   6.026   7.061 -0.2860  0.0287  0.9144
   66SAPC   H8X 5512   1.810   6.059   7.046 -0.2551  0.0782  0.8081
   66SAPC   H8Y 5513   1.994   6.088   7.014 -0.0677  0.7930  2.2648
   66SAPC   C39 5514   1.938   6.041   7.211  0.4296  0.0872  0.4797
   66SAPC   H9X 5515   2.048   6.039   7.231  0.4553 -0.0464  0.3250
   66SAPC   H9Y 5516   1.892   5.953   7.260 -0.3813  0.4832  0.4339
   66SAPC  C310 5517   1.873   6.158   7.285  0.2901 -0.2883 -0.9171
   66SAPC  H10X 5518   1.764   6.175   7.268  0.4052  0.1393 -1.2667
   66SAPC  H10Y 5519   1.919   6.250   7.242 -0.2212 -0.6127 -2.2034
   66SAPC  C311 5520   1.894   6.153   7.441  0.8789 -0.3538 -0.0562
   66SAPC  H11X 5521   1.881   6.048   7.474 -3.0996  0.0724 -0.0291
   66SAPC  H11Y 5522   1.800   6.193   7.484  1.4765 -0.1249  1.0562
   66SAPC  C312 5523   2.012   6.228   7.501  0.4086 -0.0918  0.8571
   66SAPC  H12X 5524   2.101   6.174   7.462 -1.7872 -2.6397 -0.8414
   66SAPC  H12Y 5525   2.011   6.215   7.611  1.4406  0.0013  0.8811
   66SAPC  C313 5526   2.011   6.381   7.458  0.3218 -0.1599  0.1279
   66SAPC  H13X 5527   2.017   6.397   7.349  2.0474  0.4284  0.3077
   66SAPC  H13Y 5528   2.096   6.430   7.509  0.6094 -0.0853 -0.4284
   66SAPC  C314 5529   1.890   6.470   7.512 -0.2311  0.6964 -0.1084
   66SAPC  H14X 5530   1.897   6.480   7.623  2.0106 -1.5528 -0.0233
   66SAPC  H14Y 5531   1.803   6.405   7.490  0.0104  0.1105  0.6256
   66SAPC  C315 5532   1.851   6.597   7.437  1.0883 -0.2946  0.0525
   66SAPC  H15X 5533   1.931   6.668   7.469 -2.3701  3.1395  1.3456
   66SAPC  H15Y 5534   1.756   6.626   7.485  0.0485 -2.0287 -0.9020
   66SAPC  C316 5535   1.841   6.592   7.285  0.5846  0.0528  0.5551
   66SAPC  H16X 5536   1.768   6.518   7.247 -1.5436  1.6935  1.3496
   66SAPC  H16Y 5537   1.934   6.550   7.241  1.6833  0.6616  2.2462
   66SAPC  C317 5538   1.808   6.726   7.220 -0.2239  0.0770  0.2470
   66SAPC  H17X 5539   1.801   6.715   7.110  2.4931  1.6328 -0.1458
   66SAPC  H17Y 5540   1.885   6.805   7.236 -0.8777  0.1187  3.4515
   66SAPC  C318 5541   1.667   6.772   7.261  1.1248 -0.1239  0.6859
   66SAPC  H18X 5542   1.663   6.759   7.371  0.1730 -1.0349  0.5521
   66SAPC  H18Y 5543   1.594   6.702   7.214  1.1163 -0.2112  0.8293
   66SAPC  H18Z 5544   1.642   6.876   7.232 -0.4576 -0.4640  0.7650
   67SAPC     N 5545   6.918   2.660   5.832 -0.4655  0.1025  0.5097
   67SAPC   C12 5546   6.836   2.621   5.949  0.5348 -0.9203  0.6486
   67SAPC  H12A 5547   6.884   2.659   6.039  1.6967 -0.5779 -0.0964
   67SAPC  H12B 5548   6.844   2.516   5.971 -1.5039 -1.1975  0.1377
   67SAPC   C13 5549   7.059   2.619   5.848 -0.2341 -0.0926  0.8884
   67SAPC  H13A 5550   7.066   2.512   5.847  1.3696  0.0028  0.3182
   67SAPC  H13B 5551   7.119   2.658   5.767 -1.1400  1.5480  0.9878
   67SAPC  H13C 5552   7.090   2.660   5.943 -0.0109 -1.0695  1.2406
   67SAPC   C14 5553   6.859   2.602   5.706 -0.2099  0.7388 -0.1140
   67SAPC  H14A 5554   6.900   2.640   5.614  0.8355  0.8146  0.3763
   67SAPC  H14B 5555   6.887   2.498   5.711  1.0191  1.1109  0.9138
   67SAPC  H14C 5556   6.751   2.600   5.713 -0.1648  1.8484  1.1976
   67SAPC   C15 5557   6.920   2.814   5.820  0.7240 -0.7028 -0.3569
   67SAPC  H15A 5558   6.966   2.840   5.726 -3.2596  1.0651 -1.9272
   67SAPC  H15B 5559   6.819   2.852   5.820  0.8454 -0.3713 -0.5497
   67SAPC  H15C 5560   6.968   2.865   5.902 -1.9632  0.5037  0.5273
   67SAPC   C11 5561   6.685   2.653   5.946  0.3432  0.3879  0.4538
   67SAPC  H11A 5562   6.676   2.763   5.937  0.5482  0.6256  2.9142
   67SAPC  H11B 5563   6.639   2.634   6.045 -2.0468 -1.2420 -0.9119
   67SAPC     P 5564   6.580   2.427   5.872  0.0576  0.1100  0.0363
   67SAPC   O13 5565   6.443   2.413   5.912 -0.6586 -0.4194 -0.8419
   67SAPC   O14 5566   6.610   2.351   5.743  0.6322  0.0453 -0.8631
   67SAPC   O12 5567   6.614   2.579   5.848  0.4009  0.1113 -0.5925
   67SAPC   O11 5568   6.681   2.380   5.987 -0.2505 -0.3147 -0.0658
   67SAPC    C1 5569   6.796   2.293   5.974  0.2066  0.3162 -0.2263
   67SAPC    HA 5570   6.838   2.288   5.871  1.1863 -1.2701  0.2352
   67SAPC    HB 5571   6.879   2.320   6.042  0.3890 -0.4664 -0.1308
   67SAPC    C2 5572   6.754   2.143   6.006 -0.8117  0.2054 -0.6194
   67SAPC    HS 5573   6.689   2.108   5.922 -0.7965 -0.8659 -0.1979
   67SAPC   O21 5574   6.689   2.136   6.139  0.0317  0.1791 -0.0455
   67SAPC   C21 5575   6.612   2.030   6.154  0.2180  0.1629 -0.0237
   67SAPC   O22 5576   6.595   1.941   6.071  0.3703 -0.1580  0.3203
   67SAPC   C22 5577   6.555   2.035   6.296 -0.1349  0.7091 -0.4101
   67SAPC   H2R 5578   6.526   2.141   6.315  0.2002  0.6672  0.3700
   67SAPC   H2S 5579   6.468   1.967   6.302  0.7777 -0.6411 -1.9108
   67SAPC    C3 5580   6.876   2.050   6.017 -0.0390 -0.5706  0.1271
   67SAPC    HX 5581   6.936   2.069   5.926 -0.9515 -0.7006 -0.5117
   67SAPC    HY 5582   6.847   1.943   6.011  2.6065 -1.3119  0.0142
   67SAPC   O31 5583   6.952   2.065   6.135  0.0857 -0.2545  0.6929
   67SAPC   C31 5584   7.066   1.992   6.138  1.1438  0.6431 -0.4198
   67SAPC   O32 5585   7.095   1.919   6.047 -0.1898  0.1877 -0.3541
   67SAPC   C32 5586   7.129   2.000   6.280 -0.5948  0.5470 -0.0504
   67SAPC   H2X 5587   7.114   2.104   6.315 -2.4345 -0.0242  0.9122
   67SAPC   H2Y 5588   7.234   1.967   6.270 -0.9838 -0.7303 -0.0191
   67SAPC   C23 5589   6.661   1.974   6.396 -0.1079  0.4343 -0.0075
   67SAPC   H3R 5590   6.758   2.025   6.383 -0.8440  1.5300 -1.3207
   67SAPC   H3S 5591   6.669   1.865   6.380  1.8553  0.4824  0.5447
   67SAPC   C24 5592   6.612   1.986   6.543 -0.1803 -0.0413  0.7010
   67SAPC   H4R 5593   6.582   2.092   6.558  2.8825  0.6627  2.2437
   67SAPC   H4S 5594   6.705   1.962   6.598 -0.7534 -2.2615  0.7250
   67SAPC   C25 5595   6.507   1.883   6.578 -0.0428  0.2648 -0.3216
   67SAPC   H5R 5596   6.457   1.861   6.483 -0.8468  2.8876 -0.5418
   67SAPC   C26 5597   6.488   1.810   6.693  0.0179 -0.2710 -0.0510
   67SAPC   H6R 5598   6.405   1.738   6.694 -1.9622  1.9278  2.5976
   67SAPC   C27 5599   6.563   1.818   6.823 -0.3669 -0.3340  0.1280
   67SAPC   H7R 5600   6.575   1.923   6.857  2.0448 -0.3555 -0.5455
   67SAPC   H7S 5601   6.666   1.779   6.808 -0.0693  0.2987  0.4902
   67SAPC   C28 5602   6.510   1.741   6.934 -0.6364 -0.1013  0.9180
   67SAPC   H8R 5603   6.499   1.633   6.923 -1.4208  0.1487 -0.8074
   67SAPC   C29 5604   6.483   1.782   7.059 -0.7009 -0.1654 -0.0845
   67SAPC   H9R 5605   6.423   1.723   7.130 -1.1856  2.0251  1.3946
   67SAPC  C210 5606   6.494   1.923   7.114 -0.0458 -0.3180 -0.3358
   67SAPC  H10R 5607   6.430   1.942   7.202  1.9809 -0.5368  1.2091
   67SAPC  H10S 5608   6.456   2.000   7.042 -4.0099  0.3149  2.2942
   67SAPC  C211 5609   6.636   1.955   7.153 -0.1857  0.3594  0.0788
   67SAPC  H11R 5610   6.708   1.984   7.075  0.8744 -1.4643  0.3407
   67SAPC  C212 5611   6.680   1.976   7.282 -0.1709  0.5424  0.6638
   67SAPC  H12R 5612   6.781   2.014   7.304  0.7128 -1.7847  0.7547
   67SAPC  C213 5613   6.600   1.973   7.413  0.0850 -0.5272  0.5795
   67SAPC  H13R 5614   6.504   2.028   7.398  1.1121  1.5106  1.2328
   67SAPC  H13S 5615   6.656   2.023   7.495 -2.0220 -1.2459  2.5383
   67SAPC  C214 5616   6.563   1.826   7.440  0.2721 -0.1406 -0.3290
   67SAPC  H14R 5617   6.481   1.786   7.379  0.1117 -0.6021  0.1875
   67SAPC  C215 5618   6.614   1.755   7.540  0.2457 -0.0643  0.0214
   67SAPC  H15R 5619   6.568   1.657   7.560 -1.9025  0.7365 -0.7866
   67SAPC  C216 5620   6.711   1.794   7.648 -0.4813  0.1384  0.1320
   67SAPC  H16R 5621   6.752   1.896   7.633  0.4315 -0.6081 -2.7515
   67SAPC  H16S 5622   6.798   1.726   7.652 -0.1005  0.6456  0.5647
   67SAPC  C217 5623   6.644   1.789   7.785  0.2628 -0.5540  0.5080
   67SAPC  H17R 5624   6.621   1.682   7.803  1.1288 -0.4906  2.0901
   67SAPC  H17S 5625   6.547   1.844   7.781 -0.7975 -2.1724  2.8729
   67SAPC  C218 5626   6.730   1.842   7.906 -1.0475  0.3540  0.3131
   67SAPC  H18R 5627   6.774   1.940   7.875 -1.9075  0.3180 -1.0350
   67SAPC  H18S 5628   6.818   1.775   7.907  0.3790  2.1484 -0.4553
   67SAPC  C219 5629   6.663   1.851   8.045 -0.0290  0.3756 -0.0893
   67SAPC  H19R 5630   6.742   1.846   8.123 -0.1867  3.1500  0.2959
   67SAPC  H19S 5631   6.617   1.750   8.055 -1.3129  0.6331 -2.8926
   67SAPC  C220 5632   6.555   1.953   8.051 -0.2783  0.3962  0.5965
   67SAPC  H20R 5633   6.610   2.049   8.044  3.2161 -1.6220 -0.9583
   67SAPC  H20S 5634   6.503   1.956   8.149 -0.8110  1.0478  0.2984
   67SAPC  H20T 5635   6.485   1.945   7.965 -0.6935 -1.7462  1.0934
   67SAPC   C33 5636   7.068   1.912   6.402  0.5941  0.9818  0.7027
   67SAPC   H3X 5637   7.089   1.803   6.395  1.1063  1.1188  0.0861
   67SAPC   H3Y 5638   6.957   1.917   6.403  0.4911 -0.2833 -1.1181
   67SAPC   C34 5639   7.114   1.970   6.544  0.8787  0.0375  0.5711
   67SAPC   H4X 5640   7.094   2.079   6.551  0.2191  0.1047 -1.7474
   67SAPC   H4Y 5641   7.224   1.958   6.550  0.7792 -0.5847  1.2762
   67SAPC   C35 5642   7.061   1.903   6.674 -0.1799  0.2302  0.4300
   67SAPC   H5X 5643   7.093   1.797   6.668  1.0156  0.3715  3.5161
   67SAPC   H5Y 5644   6.951   1.900   6.683 -0.3818  0.0644 -1.8387
   67SAPC   C36 5645   7.112   1.971   6.799  0.7269  1.0108 -0.1371
   67SAPC   H6X 5646   7.082   2.078   6.805 -2.8044 -0.0237  2.2087
   67SAPC   H6Y 5647   7.222   1.986   6.796  0.7117  1.0221 -0.6942
   67SAPC   C37 5648   7.060   1.909   6.935  0.2529  0.7096 -0.4933
   67SAPC   H7X 5649   7.092   1.803   6.923 -0.0468  0.2320  2.5626
   67SAPC   H7Y 5650   6.951   1.927   6.919 -0.2042 -2.6904 -1.7398
   67SAPC   C38 5651   7.100   1.971   7.065  0.7251 -1.1698  0.5031
   67SAPC   H8X 5652   7.069   2.077   7.079  0.0750 -1.2466 -0.3386
   67SAPC   H8Y 5653   7.211   1.973   7.058  0.7569  0.9659  1.3399
   67SAPC   C39 5654   7.051   1.890   7.189 -0.5267  0.0942  0.2444
   67SAPC   H9X 5655   7.099   1.790   7.196 -0.0018  0.3283  0.0010
   67SAPC   H9Y 5656   6.944   1.863   7.181 -0.4066 -0.9278  1.9489
   67SAPC  C310 5657   7.057   1.962   7.324 -0.8057 -0.0547  0.0923
   67SAPC  H10X 5658   6.997   2.056   7.324  0.8635  1.0690 -2.5009
   67SAPC  H10Y 5659   7.161   1.998   7.336 -0.5458 -0.6519 -0.3739
   67SAPC  C311 5660   7.007   1.869   7.442 -0.2149 -0.7215  0.0529
   67SAPC  H11X 5661   7.046   1.766   7.429 -1.3311 -1.2274  0.6265
   67SAPC  H11Y 5662   6.897   1.873   7.434 -0.1018  0.5430 -1.0899
   67SAPC  C312 5663   7.053   1.924   7.581 -0.5651 -0.0179  0.4916
   67SAPC  H12X 5664   7.164   1.922   7.580 -0.5491  1.0060  0.1334
   67SAPC  H12Y 5665   7.031   1.848   7.660 -0.0429  1.5934  2.2087
   67SAPC  C313 5666   6.996   2.057   7.623  0.3627 -0.0676 -0.5657
   67SAPC  H13X 5667   6.885   2.051   7.616  0.4228 -3.9924  0.7348
   67SAPC  H13Y 5668   7.021   2.139   7.552 -2.6213  0.2723 -1.2801
   67SAPC  C314 5669   7.034   2.105   7.766  0.1384 -0.0934 -0.2163
   67SAPC  H14X 5670   7.143   2.127   7.771  0.4220 -1.4473 -0.1040
   67SAPC  H14Y 5671   7.012   2.024   7.838  1.2787  0.1824  0.4484
   67SAPC  C315 5672   6.942   2.224   7.792  0.3367 -0.3114  0.2624
   67SAPC  H15X 5673   6.841   2.179   7.804  0.4434 -1.2357 -1.9719
   67SAPC  H15Y 5674   6.930   2.288   7.701 -2.2608  0.2389  0.9535
   67SAPC  C316 5675   6.989   2.304   7.914 -0.3471 -0.7224  0.1203
   67SAPC  H16X 5676   6.929   2.395   7.932 -0.1894 -0.9684  1.9635
   67SAPC  H16Y 5677   7.094   2.333   7.889 -0.4544 -0.4506 -0.0147
   67SAPC  C317 5678   6.986   2.236   8.054 -0.1884 -0.6901 -0.4181
   67SAPC  H17X 5679   7.038   2.295   8.133 -0.9484 -0.0544 -0.3963
   67SAPC  H17Y 5680   7.030   2.134   8.039 -1.4286 -0.9462 -2.5346
   67SAPC  C318 5681   6.843   2.203   8.086  0.4254 -0.5791  0.0944
   67SAPC  H18X 5682   6.841   2.172   8.192 -0.2499 -1.1050 -0.0711
   67SAPC  H18Y 5683   6.820   2.117   8.018 -0.2880 -0.1795 -0.1693
   67SAPC  H18Z 5684   6.780   2.292   8.070  1.9800  0.7060  0.9867
   68SAPC     N 5685   2.351   0.120   5.942 -0.6152  0.3821  0.6524
   68SAPC   C12 5686   2.367  -0.023   5.894  0.0508 -0.1248 -0.5117
   68SAPC  H12A 5687   2.429  -0.019   5.806 -0.0017  0.2945 -0.5312
   68SAPC  H12B 5688   2.269  -0.058   5.863 -0.3541  0.8319 -0.3548
   68SAPC   C13 5689   2.249   0.119   6.048 -0.7513  0.4312  0.3123
   68SAPC  H13A 5690   2.259   0.213   6.100  0.8595  1.7634 -2.3203
   68SAPC  H13B 5691   2.150   0.110   6.006 -0.8398 -0.0591  0.6115
   68SAPC  H13C 5692   2.264   0.042   6.122  0.7665  0.6942  0.2906
   68SAPC   C14 5693   2.491   0.164   5.985 -0.1790  0.2616  0.6845
   68SAPC  H14A 5694   2.487   0.272   5.981  0.0347  0.2214 -1.1580
   68SAPC  H14B 5695   2.511   0.129   6.085  0.3120  0.1994  0.5682
   68SAPC  H14C 5696   2.569   0.118   5.925 -0.9558 -1.4685  0.9727
   68SAPC   C15 5697   2.319   0.212   5.825 -0.7514 -0.6370 -0.3953
   68SAPC  H15A 5698   2.326   0.315   5.855  2.0826 -0.9611  0.1768
   68SAPC  H15B 5699   2.403   0.198   5.758 -1.3135 -0.3282 -1.1846
   68SAPC  H15C 5700   2.224   0.200   5.775 -0.9662  0.3116 -0.2326
   68SAPC   C11 5701   2.422  -0.130   5.993  0.6881  0.0861  0.1787
   68SAPC  H11A 5702   2.399  -0.230   5.951 -2.8950  1.2292 -0.7432
   68SAPC  H11B 5703   2.362  -0.133   6.087 -0.3827 -0.3336 -0.5241
   68SAPC     P 5704   2.623  -0.116   6.165 -0.0037  0.0164  0.2635
   68SAPC   O13 5705   2.626  -0.259   6.195 -0.2864  0.1891 -0.3516
   68SAPC   O14 5706   2.754  -0.046   6.161 -0.6148  0.4196 -0.1951
   68SAPC   O12 5707   2.557  -0.106   6.023  0.5016 -0.4191 -0.0072
   68SAPC   O11 5708   2.521  -0.035   6.264  0.1621 -0.0053  0.1257
   68SAPC    C1 5709   2.453  -0.106   6.366  0.6584 -0.0573 -0.1530
   68SAPC    HA 5710   2.354  -0.058   6.383 -0.0934 -1.5648 -0.2548
   68SAPC    HB 5711   2.429  -0.209   6.335  1.3028 -0.0017 -0.8372
   68SAPC    C2 5712   2.538  -0.114   6.491  0.1250  0.0940 -0.0453
   68SAPC    HS 5713   2.630  -0.054   6.473 -0.4653  0.3006 -2.4848
   68SAPC   O21 5714   2.562  -0.251   6.511 -0.0457  0.7094  0.3121
   68SAPC   C21 5715   2.681  -0.272   6.584  0.5287  0.0122  0.1711
   68SAPC   O22 5716   2.769  -0.191   6.593 -0.5287  0.4302 -0.1698
   68SAPC   C22 5717   2.689  -0.417   6.633 -0.5625  0.2957  0.6505
   68SAPC   H2R 5718   2.586  -0.450   6.658 -0.5640 -0.0597  0.1806
   68SAPC   H2S 5719   2.725  -0.483   6.551  0.3192  0.1024  1.1815
   68SAPC    C3 5720   2.475  -0.053   6.623  0.2452 -0.7077 -0.0791
   68SAPC    HX 5721   2.445   0.052   6.603  0.5302 -1.0527 -2.5136
   68SAPC    HY 5722   2.554  -0.049   6.702  0.3677 -1.6256 -0.1475
   68SAPC   O31 5723   2.355  -0.120   6.673 -0.0461  0.1926  0.0972
   68SAPC   C31 5724   2.374  -0.207   6.766 -0.3732 -0.0683  0.0207
   68SAPC   O32 5725   2.486  -0.238   6.813  0.1970  0.8688  0.2556
   68SAPC   C32 5726   2.246  -0.271   6.801  0.0452  0.2941 -0.3551
   68SAPC   H2X 5727   2.212  -0.319   6.707  0.1750  1.4520 -1.0027
   68SAPC   H2Y 5728   2.173  -0.194   6.836 -0.7732 -1.8151  2.8276
   68SAPC   C23 5729   2.795  -0.441   6.744  1.0616 -0.0443  0.2261
   68SAPC   H3R 5730   2.895  -0.398   6.721  1.3203 -1.5589 -1.6648
   68SAPC   H3S 5731   2.801  -0.551   6.754 -1.9389 -0.1356  1.6045
   68SAPC   C24 5732   2.757  -0.382   6.887  0.4882  0.4578  0.2873
   68SAPC   H4R 5733   2.720  -0.278   6.874  0.6259  0.4849  0.1106
   68SAPC   H4S 5734   2.856  -0.379   6.937  0.5796  1.3556  0.0668
   68SAPC   C25 5735   2.650  -0.468   6.955  0.0055  0.0648 -0.3463
   68SAPC   H5R 5736   2.563  -0.489   6.891 -0.5792  1.2797  0.0342
   68SAPC   C26 5737   2.656  -0.516   7.082 -0.5682  0.1944 -0.0001
   68SAPC   H6R 5738   2.560  -0.560   7.114 -0.1616  0.1096  1.1313
   68SAPC   C27 5739   2.764  -0.514   7.187  0.2394  0.2687  0.2508
   68SAPC   H7R 5740   2.835  -0.433   7.159 -0.0677  0.5362  0.2475
   68SAPC   H7S 5741   2.830  -0.603   7.178  0.2513  0.4561 -1.6820
   68SAPC   C28 5742   2.715  -0.489   7.328  0.0584  0.7270 -0.3169
   68SAPC   H8R 5743   2.700  -0.581   7.388 -0.5456 -1.3858 -3.5884
   68SAPC   C29 5744   2.682  -0.371   7.382 -0.4791  0.7906 -0.6710
   68SAPC   H9R 5745   2.644  -0.375   7.485  0.7492 -3.9224 -0.3009
   68SAPC  C210 5746   2.689  -0.239   7.320 -0.9295 -0.0414 -0.0928
   68SAPC  H10R 5747   2.768  -0.227   7.244 -1.8998 -1.1241 -1.2989
   68SAPC  H10S 5748   2.716  -0.162   7.395 -2.8412  0.2279  0.3329
   68SAPC  C211 5749   2.560  -0.197   7.255 -0.2463  0.2525 -1.1215
   68SAPC  H11R 5750   2.543  -0.225   7.151 -0.9387 -1.4483 -0.5688
   68SAPC  C212 5751   2.463  -0.130   7.323 -0.2525  0.4559  0.2853
   68SAPC  H12R 5752   2.362  -0.121   7.280 -0.6204  0.7022  1.1842
   68SAPC  C213 5753   2.458  -0.086   7.468  0.1524  0.4722 -0.9158
   68SAPC  H13R 5754   2.390   0.001   7.481  1.0182  0.9685  0.3338
   68SAPC  H13S 5755   2.556  -0.056   7.510 -0.2838 -1.3634  1.5231
   68SAPC  C214 5756   2.400  -0.209   7.543  0.5775  0.0946 -0.1182
   68SAPC  H14R 5757   2.469  -0.294   7.554  0.6362  0.2020  0.3704
   68SAPC  C215 5758   2.288  -0.223   7.619 -0.1891 -0.5863 -1.0985
   68SAPC  H15R 5759   2.270  -0.312   7.681  1.8762 -1.3294 -1.5157
   68SAPC  C216 5760   2.195  -0.102   7.648  0.7561  0.5962 -0.1959
   68SAPC  H16R 5761   2.104  -0.114   7.586  1.0972  1.8917 -0.9510
   68SAPC  H16S 5762   2.249  -0.010   7.620  1.8355 -0.5218 -1.8799
   68SAPC  C217 5763   2.163  -0.112   7.793 -0.6742  0.1507 -0.6548
   68SAPC  H17R 5764   2.257  -0.110   7.853  0.1806  1.1267 -2.0144
   68SAPC  H17S 5765   2.118  -0.213   7.805 -1.9987  0.7711 -0.2658
   68SAPC  C218 5766   2.065  -0.005   7.839  0.6415  0.1414 -0.1626
   68SAPC  H18R 5767   2.049  -0.031   7.946  3.2078  1.3639  0.5480
   68SAPC  H18S 5768   1.965  -0.008   7.790  1.5087 -0.4497 -1.9327
   68SAPC  C219 5769   2.112   0.139   7.831 -0.7268 -0.7019  0.1264
   68SAPC  H19R 5770   2.036   0.188   7.896  0.0246 -0.8066  1.1018
   68SAPC  H19S 5771   2.103   0.176   7.727  2.5510 -0.2490 -0.0603
   68SAPC  C220 5772   2.245   0.181   7.885 -0.3654 -0.3728 -0.1878
   68SAPC  H20R 5773   2.247   0.127   7.982  1.2633  0.3836  0.2184
   68SAPC  H20S 5774   2.252   0.290   7.903  0.5144 -0.2187 -1.4104
   68SAPC  H20T 5775   2.329   0.147   7.821 -0.2117  0.8276 -0.6331
   68SAPC   C33 5776   2.256  -0.381   6.911  0.3209 -0.0872  0.3193
   68SAPC   H3X 5777   2.364  -0.408   6.914  0.1898 -0.9130 -1.7287
   68SAPC   H3Y 5778   2.188  -0.465   6.887  0.0952  0.2417 -0.1865
   68SAPC   C34 5779   2.212  -0.342   7.056  0.0680 -0.3708  0.0349
   68SAPC   H4X 5780   2.105  -0.312   7.053  0.1963  0.1166  0.4062
   68SAPC   H4Y 5781   2.282  -0.262   7.085  0.6389 -1.0999  0.6857
   68SAPC   C35 5782   2.227  -0.474   7.131  0.1595  0.2513  0.5754
   68SAPC   H5X 5783   2.323  -0.524   7.105  0.6916  0.3544  2.2733
   68SAPC   H5Y 5784   2.147  -0.549   7.116  0.3223 -0.1465  1.6527
   68SAPC   C36 5785   2.227  -0.466   7.278  0.2421  0.2156 -0.2282
   68SAPC   H6X 5786   2.127  -0.451   7.323  1.2077  0.6987  1.8282
   68SAPC   H6Y 5787   2.281  -0.379   7.321  1.9887 -0.6960 -0.5324
   68SAPC   C37 5788   2.286  -0.590   7.336  0.7745  0.1862 -0.2710
   68SAPC   H7X 5789   2.387  -0.588   7.289  0.9872 -0.0247  0.1800
   68SAPC   H7Y 5790   2.235  -0.681   7.299  0.4356  1.0450 -2.0225
   68SAPC   C38 5791   2.281  -0.577   7.486 -0.2726  0.6152  0.1077
   68SAPC   H8X 5792   2.177  -0.565   7.522 -0.0881 -1.2127  1.3075
   68SAPC   H8Y 5793   2.327  -0.483   7.523 -1.7432  0.4218  2.5903
   68SAPC   C39 5794   2.352  -0.693   7.555  0.1545  0.3164 -1.1404
   68SAPC   H9X 5795   2.462  -0.690   7.543  0.6258 -1.1939  2.3243
   68SAPC   H9Y 5796   2.319  -0.782   7.497  3.8529 -2.1121  0.3337
   68SAPC  C310 5797   2.316  -0.714   7.701 -0.5075 -0.6829 -0.0357
   68SAPC  H10X 5798   2.383  -0.794   7.739  0.6322  0.3989  0.2325
   68SAPC  H10Y 5799   2.210  -0.749   7.710 -1.0803  0.2296 -2.7790
   68SAPC  C311 5800   2.337  -0.596   7.792 -0.8756 -0.1728  0.3942
   68SAPC  H11X 5801   2.330  -0.626   7.898 -0.5295 -2.5527 -0.2365
   68SAPC  H11Y 5802   2.257  -0.519   7.784  0.1778  1.0968  1.8445
   68SAPC  C312 5803   2.472  -0.532   7.770 -0.0365 -0.8560  0.6725
   68SAPC  H12X 5804   2.455  -0.462   7.685 -1.6216 -1.2044  0.6881
   68SAPC  H12Y 5805   2.546  -0.613   7.751 -0.1886 -0.9725  0.5790
   68SAPC  C313 5806   2.517  -0.459   7.891 -0.4929 -0.3911  0.1363
   68SAPC  H13X 5807   2.625  -0.434   7.880 -0.4530 -0.8404 -0.5206
   68SAPC  H13Y 5808   2.504  -0.512   7.988  1.0661 -1.4391 -0.2052
   68SAPC  C314 5809   2.443  -0.323   7.915  0.5642  0.0759 -0.4006
   68SAPC  H14X 5810   2.334  -0.345   7.916  0.2766  1.4496 -0.1294
   68SAPC  H14Y 5811   2.462  -0.253   7.831 -1.2881 -0.0090 -0.9059
   68SAPC  C315 5812   2.479  -0.255   8.049  0.2103  0.0096 -0.2354
   68SAPC  H15X 5813   2.584  -0.224   8.035  0.1332  0.9570  1.2182
   68SAPC  H15Y 5814   2.481  -0.335   8.127  0.0472 -0.3885 -0.6327
   68SAPC  C316 5815   2.380  -0.141   8.096 -0.3980 -0.4214 -0.1808
   68SAPC  H16X 5816   2.281  -0.189   8.082 -0.7361 -0.1312  1.1804
   68SAPC  H16Y 5817   2.381  -0.045   8.039 -2.4727 -0.0726  0.3461
   68SAPC  C317 5818   2.406  -0.115   8.250 -1.0243  0.5149  0.2789
   68SAPC  H17X 5819   2.516  -0.104   8.258 -1.0030  0.6319 -0.1406
   68SAPC  H17Y 5820   2.379  -0.200   8.317  0.9798  0.7290  1.4041
   68SAPC  C318 5821   2.339   0.014   8.305  0.3996 -0.2876 -0.1781
   68SAPC  H18X 5822   2.233   0.017   8.271  0.0123 -2.4137  0.7619
   68SAPC  H18Y 5823   2.407   0.094   8.269 -1.3951  0.6790 -1.5096
   68SAPC  H18Z 5824   2.343   0.017   8.416 -1.5337  0.0913 -0.0946
   69SLPC     N 5825   2.999   4.754   9.900 -0.3853 -0.2533  0.0336
   69SLPC   C13 5826   2.928   4.685  10.011  0.4421  0.3814 -0.0636
   69SLPC  H13A 5827   2.898   4.586   9.981  2.6946 -0.4921  0.4848
   69SLPC  H13B 5828   2.991   4.684  10.099  1.9687  0.3085 -1.1251
   69SLPC  H13C 5829   2.835   4.735  10.034  0.3418 -0.3257  1.0848
   69SLPC   C14 5830   3.122   4.682   9.875 -0.0845 -0.2789  0.3915
   69SLPC  H14A 5831   3.176   4.656   9.965 -0.3494 -0.0544  0.6112
   69SLPC  H14B 5832   3.100   4.591   9.821 -0.4763  0.3827 -0.5710
   69SLPC  H14C 5833   3.194   4.733   9.812  1.4179  0.3041  2.5313
   69SLPC   C15 5834   3.038   4.891   9.941 -0.7566 -0.3948 -0.0090
   69SLPC  H15A 5835   3.120   4.880  10.010 -0.1519  0.2837 -0.6154
   69SLPC  H15B 5836   3.061   4.955   9.857 -0.0756  1.7182  1.7368
   69SLPC  H15C 5837   2.956   4.928  10.001 -1.6731 -1.0571 -0.8357
   69SLPC   C12 5838   2.911   4.764   9.770  0.1924  0.1317  0.3878
   69SLPC  H12A 5839   2.975   4.810   9.697  0.9304  0.3187  1.1469
   69SLPC  H12B 5840   2.828   4.833   9.783  2.1323  2.4204  1.0172
   69SLPC   C11 5841   2.867   4.633   9.702  0.2493  0.4118  0.2057
   69SLPC  H11A 5842   2.950   4.563   9.682  1.7759  1.8474  1.2880
   69SLPC  H11B 5843   2.824   4.662   9.604 -0.1596 -0.0742  0.2448
   69SLPC     P 5844   2.773   4.411   9.795  0.2295  0.1873 -0.1683
   69SLPC   O13 5845   2.898   4.379   9.864 -0.3340 -0.0884 -0.6062
   69SLPC   O14 5846   2.642   4.361   9.857  0.0442 -0.1726  0.1374
   69SLPC   O12 5847   2.759   4.569   9.777  0.5095 -0.1174 -0.5664
   69SLPC   O11 5848   2.788   4.350   9.654  0.0312 -0.4092  0.4596
   69SLPC    C1 5849   2.718   4.236   9.597  0.5731  0.0044  0.1181
   69SLPC    HA 5850   2.749   4.144   9.650  0.2433 -1.5074 -2.2268
   69SLPC    HB 5851   2.607   4.234   9.604  0.6435 -3.3686  0.7942
   69SLPC    C2 5852   2.755   4.219   9.447 -0.5264  0.3979 -1.0078
   69SLPC    HS 5853   2.707   4.129   9.402  1.9725 -1.2825 -0.3741
   69SLPC   O21 5854   2.896   4.222   9.429 -0.4235 -0.0018 -1.0842
   69SLPC   C21 5855   2.959   4.123   9.493  0.3920 -0.4261  0.3488
   69SLPC   O22 5856   2.906   4.016   9.510  0.6517 -0.5149  0.2206
   69SLPC   C22 5857   3.108   4.165   9.512 -0.0454 -0.6638 -0.6606
   69SLPC   H2R 5858   3.138   4.106   9.601  1.7852  1.9566  0.5144
   69SLPC   H2S 5859   3.164   4.118   9.428  0.5796 -0.3390 -0.4299
   69SLPC    C3 5860   2.696   4.342   9.373  0.1268  0.6928  0.4373
   69SLPC    HX 5861   2.750   4.433   9.408 -3.4067  3.1908 -0.3276
   69SLPC    HY 5862   2.589   4.365   9.390 -0.5940 -2.2964  0.1238
   69SLPC   O31 5863   2.727   4.323   9.235 -0.1286  0.5020 -0.1539
   69SLPC   C31 5864   2.649   4.231   9.179 -0.2638 -1.1540 -0.6313
   69SLPC   O32 5865   2.556   4.176   9.229  0.6371  0.0694  0.3862
   69SLPC   C32 5866   2.682   4.214   9.027  0.0342 -0.1104 -1.4431
   69SLPC   H2X 5867   2.621   4.291   8.976 -0.9737  0.4539  0.5680
   69SLPC   H2Y 5868   2.643   4.115   8.993 -1.6187  0.4043 -1.0819
   69SLPC   C23 5869   3.151   4.314   9.521 -0.2720  0.1787 -0.5627
   69SLPC   H3R 5870   3.085   4.368   9.593  2.2411  2.6321  0.0170
   69SLPC   H3S 5871   3.127   4.352   9.420 -0.2399  2.0144  0.0862
   69SLPC   C24 5872   3.303   4.317   9.559 -0.3756 -0.2728  0.3177
   69SLPC   H4R 5873   3.361   4.243   9.502  1.6946 -0.1615  2.2218
   69SLPC   H4S 5874   3.322   4.294   9.666  1.1725 -0.6093 -0.0188
   69SLPC   C25 5875   3.354   4.458   9.544  0.1939  0.1720  0.0403
   69SLPC   H5R 5876   3.322   4.490   9.442 -0.7699 -2.2739 -0.4506
   69SLPC   H5S 5877   3.465   4.458   9.545  0.2069 -1.7877  1.7599
   69SLPC   C26 5878   3.298   4.556   9.649  0.1546  0.1225  0.3592
   69SLPC   H6R 5879   3.319   4.506   9.745  1.0978 -0.1104  0.0374
   69SLPC   H6S 5880   3.188   4.569   9.638  0.4985  3.0972 -0.1024
   69SLPC   C27 5881   3.375   4.686   9.650  0.1843  0.3757 -0.6679
   69SLPC   H7R 5882   3.482   4.665   9.629 -0.2408  0.3459 -2.8912
   69SLPC   H7S 5883   3.375   4.731   9.752 -0.0660  1.3923 -1.1125
   69SLPC   C28 5884   3.337   4.797   9.544  0.3529 -0.2980  0.2089
   69SLPC   H8R 5885   3.319   4.745   9.447 -0.1967  0.8510 -0.3204
   69SLPC   H8S 5886   3.418   4.872   9.532 -0.4013  0.3228 -1.2183
   69SLPC   C29 5887   3.217   4.882   9.581 -0.8703  0.1150  0.5525
   69SLPC   H9R 5888   3.218   4.929   9.681  2.8528 -0.0195  0.6570
   69SLPC  C210 5889   3.113   4.896   9.497 -0.1363  0.5342  0.3163
   69SLPC  H10R 5890   3.035   4.972   9.515 -0.2711  0.8121 -1.3934
   69SLPC  C211 5891   3.112   4.835   9.361 -0.3212  0.5611 -0.1849
   69SLPC  H11R 5892   3.209   4.840   9.306 -1.4612  0.1984 -2.2804
   69SLPC  H11S 5893   3.040   4.893   9.299 -0.4550  1.7276  1.0233
   69SLPC  C212 5894   3.077   4.692   9.357  0.0046 -1.0910  0.0702
   69SLPC  H12R 5895   3.069   4.639   9.453  0.1147 -0.1246  0.6193
   69SLPC  C213 5896   3.043   4.624   9.246 -0.1064 -0.1904 -0.1889
   69SLPC  H13R 5897   3.035   4.516   9.265  0.8790  0.0227  1.5869
   69SLPC  C214 5898   3.042   4.682   9.108  0.4923  0.4680 -0.1615
   69SLPC  H14R 5899   3.144   4.690   9.066  0.9774  1.5965  1.1827
   69SLPC  H14S 5900   2.999   4.785   9.104  0.8115  0.6895  1.7272
   69SLPC  C215 5901   2.975   4.592   9.004  0.2441 -1.1737 -0.5462
   69SLPC  H15R 5902   2.876   4.559   9.043  1.0607 -3.0242  0.0032
   69SLPC  H15S 5903   3.031   4.497   8.990 -1.3670 -2.1375 -0.6007
   69SLPC  C216 5904   2.979   4.661   8.872  0.2286 -0.0613 -0.0553
   69SLPC  H16R 5905   3.084   4.691   8.851  0.7157 -1.8176 -0.2418
   69SLPC  H16S 5906   2.922   4.756   8.871  1.5256  0.7231 -0.2841
   69SLPC  C217 5907   2.923   4.577   8.758 -0.1802 -0.4729  0.3486
   69SLPC  H17R 5908   2.817   4.547   8.772 -0.8142 -0.4784 -3.8464
   69SLPC  H17S 5909   2.982   4.484   8.745 -2.6662 -1.7658 -2.4774
   69SLPC  C218 5910   2.933   4.671   8.630  0.4557  0.1464 -0.4786
   69SLPC  H18R 5911   3.036   4.711   8.629  0.0255  1.2697 -0.9691
   69SLPC  H18S 5912   2.860   4.755   8.635  0.2054 -0.1787  3.7748
   69SLPC  H18T 5913   2.912   4.614   8.537 -0.6578  0.8661 -0.6864
   69SLPC   C33 5914   2.835   4.227   8.995  0.3759  0.0823 -0.3167
   69SLPC   H3X 5915   2.872   4.328   9.021 -1.5039  1.0511 -1.3437
   69SLPC   H3Y 5916   2.838   4.230   8.884  1.1881  0.0969 -0.2961
   69SLPC   C34 5917   2.937   4.130   9.053  0.2083  0.0244 -0.5587
   69SLPC   H4X 5918   2.949   4.042   8.985 -1.2137 -0.8917  0.3541
   69SLPC   H4Y 5919   2.896   4.091   9.149  0.9513  0.8223  0.0860
   69SLPC   C35 5920   3.074   4.189   9.062  0.1655 -0.1745 -0.3351
   69SLPC   H5X 5921   3.081   4.269   9.139  0.0970 -0.5588  0.0647
   69SLPC   H5Y 5922   3.108   4.226   8.963  1.6038 -0.7673 -0.0722
   69SLPC   C36 5923   3.182   4.088   9.115 -0.4155  0.0384  0.2565
   69SLPC   H6X 5924   3.181   3.996   9.053 -1.2971  0.6620 -0.6786
   69SLPC   H6Y 5925   3.151   4.059   9.218 -0.5906  3.1969  1.1254
   69SLPC   C37 5926   3.327   4.140   9.114  0.0305 -0.0701  0.2074
   69SLPC   H7X 5927   3.383   4.087   9.194 -1.2903 -0.3813  0.9431
   69SLPC   H7Y 5928   3.328   4.250   9.128  0.5487 -0.1529  0.8605
   69SLPC   C38 5929   3.404   4.113   8.986 -0.2743  0.0270  0.5681
   69SLPC   H8X 5930   3.345   4.152   8.900  1.4281 -0.9960 -1.0975
   69SLPC   H8Y 5931   3.414   4.004   8.967  1.8283  0.6553 -2.2738
   69SLPC   C39 5932   3.545   4.184   8.969  0.3502 -0.0957 -0.2363
   69SLPC   H9X 5933   3.613   4.149   9.049  1.4227 -1.7657 -1.8660
   69SLPC   H9Y 5934   3.532   4.292   8.991  1.8230  0.0595 -0.0957
   69SLPC  C310 5935   3.615   4.180   8.833  0.1976  0.0583 -0.1811
   69SLPC  H10X 5936   3.709   4.238   8.826  0.0638  0.8658  3.9286
   69SLPC  H10Y 5937   3.548   4.227   8.758  1.2160  1.3367 -0.3098
   69SLPC  C311 5938   3.632   4.030   8.783 -0.6337 -0.1904 -0.0208
   69SLPC  H11X 5939   3.534   3.977   8.773 -0.7652  0.2029 -0.8633
   69SLPC  H11Y 5940   3.683   3.969   8.861 -0.9286  1.1335  1.2152
   69SLPC  C312 5941   3.711   4.009   8.650 -0.3296 -0.2125 -0.2609
   69SLPC  H12X 5942   3.813   4.054   8.657 -0.0720 -0.6525 -1.1630
   69SLPC  H12Y 5943   3.654   4.076   8.583  1.4032  0.8156 -0.7412
   69SLPC  C313 5944   3.720   3.862   8.599  0.0967 -0.8109 -0.1649
   69SLPC  H13X 5945   3.617   3.820   8.595 -0.0710 -0.3260 -0.9208
   69SLPC  H13Y 5946   3.763   3.814   8.690 -0.5624  1.2001  1.2392
   69SLPC  C314 5947   3.799   3.845   8.468  0.1299  0.0737 -0.5310
   69SLPC  H14X 5948   3.903   3.880   8.488 -0.4917  1.7177 -0.1219
   69SLPC  H14Y 5949   3.758   3.910   8.388 -1.3393  0.8223  0.8059
   69SLPC  C315 5950   3.809   3.700   8.415 -0.1185 -0.2074  0.5872
   69SLPC  H15X 5951   3.707   3.674   8.378  0.1642  0.5546 -0.7570
   69SLPC  H15Y 5952   3.849   3.626   8.488  1.4811  1.0181  0.9753
   69SLPC  C316 5953   3.892   3.684   8.292 -0.0923 -0.2005  0.0253
   69SLPC  H16X 5954   3.989   3.729   8.325 -0.3743  0.3372  0.1233
   69SLPC  H16Y 5955   3.850   3.731   8.201 -0.9721  0.2355  0.6567
   69SLPC  C317 5956   3.909   3.534   8.256 -0.1326  0.0282  0.9725
   69SLPC  H17X 5957   3.808   3.491   8.236 -0.5840  1.0147  1.1047
   69SLPC  H17Y 5958   3.940   3.476   8.345  0.5108 -0.9886  0.1006
   69SLPC  C318 5959   4.000   3.529   8.138  0.1878 -0.0388 -0.4829
   69SLPC  H18X 5960   3.949   3.584   8.056 -0.3259 -0.9214 -0.7687
   69SLPC  H18Y 5961   4.016   3.424   8.102 -0.6860 -0.7925  1.2868
   69SLPC  H18Z 5962   4.090   3.591   8.156  0.5233 -1.0693  1.4977
   70SLPC     N 5963   4.338   3.950   9.686 -0.4856 -0.2010 -0.2424
   70SLPC   C13 5964   4.232   3.963   9.794  0.7207  0.7077 -0.9453
   70SLPC  H13A 5965   4.150   4.020   9.752 -1.0277 -0.7811  0.3476
   70SLPC  H13B 5966   4.203   3.860   9.808  0.4949  1.0242  0.9764
   70SLPC  H13C 5967   4.266   4.009   9.885  1.4686 -0.7193 -0.4900
   70SLPC   C14 5968   4.397   4.087   9.674  0.7935 -0.4132  0.1258
   70SLPC  H14A 5969   4.437   4.123   9.768  0.3502 -1.2888  0.6510
   70SLPC  H14B 5970   4.475   4.107   9.603  0.0829  0.3628 -0.4437
   70SLPC  H14C 5971   4.310   4.146   9.648  0.6494  0.2624  2.0350
   70SLPC   C15 5972   4.270   3.915   9.559  0.5647  0.4763  0.3057
   70SLPC  H15A 5973   4.338   3.933   9.477  0.7836  1.6656  0.7425
   70SLPC  H15B 5974   4.251   3.808   9.563  0.4759  0.4709 -0.2095
   70SLPC  H15C 5975   4.177   3.964   9.536  0.5503 -0.1641 -1.1146
   70SLPC   C12 5976   4.448   3.851   9.726 -0.6278 -0.3112  0.1530
   70SLPC  H12A 5977   4.521   3.904   9.786 -0.5136 -0.7284  0.3823
   70SLPC  H12B 5978   4.507   3.820   9.640  1.3607  2.3584  0.4754
   70SLPC   C11 5979   4.403   3.718   9.792  0.1656 -0.6052  0.3550
   70SLPC  H11A 5980   4.376   3.739   9.898  2.0777  0.8617  0.5744
   70SLPC  H11B 5981   4.500   3.669   9.815  1.1552  1.1732  0.0416
   70SLPC     P 5982   4.247   3.518   9.785  0.2619  0.1338  0.2889
   70SLPC   O13 5983   4.349   3.415   9.818  0.1140 -0.3374  0.0754
   70SLPC   O14 5984   4.163   3.556   9.902 -0.1622 -0.0010 -0.7161
   70SLPC   O12 5985   4.307   3.644   9.715  0.2980  0.0501  0.9759
   70SLPC   O11 5986   4.153   3.464   9.677  0.1174  0.0136 -0.0462
   70SLPC    C1 5987   4.199   3.450   9.538 -0.2594 -0.3839  0.3694
   70SLPC    HA 5988   4.123   3.465   9.459 -0.4478  0.6911  0.7555
   70SLPC    HB 5989   4.273   3.530   9.516 -0.1861 -0.3623  0.6878
   70SLPC    C2 5990   4.281   3.310   9.521  0.0132 -0.0019 -0.2626
   70SLPC    HS 5991   4.353   3.320   9.605  0.6936 -0.5176 -0.7870
   70SLPC   O21 5992   4.337   3.305   9.389  0.2304  0.1258 -0.6555
   70SLPC   C21 5993   4.438   3.216   9.390 -0.0658 -0.3606 -0.1767
   70SLPC   O22 5994   4.481   3.168   9.493  0.4921 -0.8434 -0.1509
   70SLPC   C22 5995   4.473   3.195   9.241  0.1691  0.5247  0.1444
   70SLPC   H2R 5996   4.405   3.117   9.201 -0.3273  0.8176  0.4174
   70SLPC   H2S 5997   4.460   3.291   9.186  0.4253 -0.7044 -2.1239
   70SLPC    C3 5998   4.191   3.182   9.551  0.6121  0.2979 -0.0257
   70SLPC    HX 5999   4.114   3.215   9.623 -0.4501 -1.0162 -0.5334
   70SLPC    HY 6000   4.269   3.116   9.596 -0.5266  1.1471  3.3523
   70SLPC   O31 6001   4.133   3.115   9.434 -0.1310 -0.3521 -0.2356
   70SLPC   C31 6002   4.021   3.176   9.384 -0.1801  0.5670  1.1073
   70SLPC   O32 6003   3.960   3.260   9.447  0.3085 -0.5645  0.0927
   70SLPC   C32 6004   3.983   3.117   9.248  0.7278  0.9464 -0.4274
   70SLPC   H2X 6005   3.918   3.028   9.266  1.5335  0.6631  1.2009
   70SLPC   H2Y 6006   4.076   3.067   9.214 -0.6546 -1.9388 -0.0930
   70SLPC   C23 6007   4.619   3.152   9.203  0.0897  0.0168  0.7128
   70SLPC   H3R 6008   4.700   3.192   9.268  1.6413 -1.7714 -0.0688
   70SLPC   H3S 6009   4.639   3.196   9.103  1.1235 -1.1044  0.4177
   70SLPC   C24 6010   4.649   3.005   9.178 -0.0214  0.1294 -0.3410
   70SLPC   H4R 6011   4.616   2.965   9.276 -0.8139 -0.3917 -0.8090
   70SLPC   H4S 6012   4.757   2.986   9.163 -0.1347  0.0677 -1.1001
   70SLPC   C25 6013   4.564   2.929   9.075  0.1239  0.6677 -0.2722
   70SLPC   H5R 6014   4.455   2.935   9.095 -0.0453 -4.0955  0.8302
   70SLPC   H5S 6015   4.579   2.822   9.099 -1.8550  0.6410  0.9702
   70SLPC   C26 6016   4.576   2.969   8.928 -0.5547  0.3403 -1.0977
   70SLPC   H6R 6017   4.679   2.942   8.894 -0.5627  0.8206 -1.5086
   70SLPC   H6S 6018   4.561   3.078   8.917  1.0523  0.8442  1.2897
   70SLPC   C27 6019   4.473   2.902   8.824  0.5642 -0.1797  1.6113
   70SLPC   H7R 6020   4.488   2.955   8.727  1.3675 -0.5622  1.5240
   70SLPC   H7S 6021   4.367   2.917   8.856 -0.2781  2.3997 -2.0343
   70SLPC   C28 6022   4.489   2.748   8.809 -0.3385  0.2071  0.1661
   70SLPC   H8R 6023   4.488   2.718   8.916 -0.8455  2.6000  0.8663
   70SLPC   H8S 6024   4.591   2.719   8.774 -0.2295  0.5831  0.1648
   70SLPC   C29 6025   4.384   2.674   8.727 -0.2906  0.0739 -0.4584
   70SLPC   H9R 6026   4.285   2.660   8.774  1.0468 -1.4324  2.0116
   70SLPC  C210 6027   4.387   2.631   8.598  0.3571 -0.6676 -0.1110
   70SLPC  H10R 6028   4.316   2.554   8.566 -0.2752 -0.5056  0.8651
   70SLPC  C211 6029   4.503   2.653   8.505 -0.4054  0.6046  0.2055
   70SLPC  H11R 6030   4.531   2.561   8.450  1.3148  1.6459 -0.7267
   70SLPC  H11S 6031   4.598   2.677   8.556  0.3979 -2.3227  0.1622
   70SLPC  C212 6032   4.475   2.762   8.408 -0.7991  0.1525  1.0624
   70SLPC  H12R 6033   4.499   2.862   8.447 -2.3218  0.3154  1.6368
   70SLPC  C213 6034   4.415   2.750   8.290  0.4110 -0.1838  0.1739
   70SLPC  H13R 6035   4.389   2.840   8.233  0.2047 -0.8864 -0.8655
   70SLPC  C214 6036   4.361   2.622   8.232  0.1546 -0.4179 -0.6314
   70SLPC  H14R 6037   4.401   2.539   8.293  1.2676  2.5614  2.9062
   70SLPC  H14S 6038   4.385   2.615   8.123 -0.1208 -3.3327 -0.5443
   70SLPC  C215 6039   4.206   2.608   8.236  0.3025 -0.5765  0.5604
   70SLPC  H15R 6040   4.173   2.638   8.338  1.8199 -1.2649  1.2668
   70SLPC  H15S 6041   4.157   2.509   8.224 -0.9820  0.4049 -2.8323
   70SLPC  C216 6042   4.137   2.701   8.126  0.2438 -0.8614  0.8099
   70SLPC  H16R 6043   4.148   2.808   8.153 -3.5826  0.1863 -1.4223
   70SLPC  H16S 6044   4.027   2.682   8.136 -0.0891  0.9428  0.7191
   70SLPC  C217 6045   4.189   2.686   7.984  0.5793 -0.1058 -0.5799
   70SLPC  H17R 6046   4.215   2.579   7.971  2.2807  0.4260 -1.6443
   70SLPC  H17S 6047   4.285   2.741   7.976  1.0466 -1.0201 -1.2800
   70SLPC  C218 6048   4.089   2.728   7.882 -0.0682  0.3370  0.0573
   70SLPC  H18R 6049   4.056   2.833   7.896 -0.7415 -0.2236  2.9253
   70SLPC  H18S 6050   3.995   2.677   7.912  0.0618 -0.1273 -0.3223
   70SLPC  H18T 6051   4.116   2.718   7.775  0.5214  0.3874  0.2030
   70SLPC   C33 6052   3.920   3.217   9.151 -0.4010 -0.2470  0.9148
   70SLPC   H3X 6053   3.842   3.271   9.209 -2.4967  1.6548 -3.4140
   70SLPC   H3Y 6054   3.874   3.157   9.070 -1.1893  0.9223  0.4912
   70SLPC   C34 6055   4.023   3.327   9.097 -0.4637 -0.1956 -0.2805
   70SLPC   H4X 6056   4.071   3.376   9.185  1.6525  1.2089 -2.1452
   70SLPC   H4Y 6057   3.953   3.398   9.049  0.8844  1.4605  0.1494
   70SLPC   C35 6058   4.134   3.283   9.001 -0.5996  0.1943  0.3452
   70SLPC   H5X 6059   4.095   3.277   8.898 -0.4714  1.8500  0.1844
   70SLPC   H5Y 6060   4.170   3.185   9.039  2.7726  0.6821 -1.4160
   70SLPC   C36 6061   4.255   3.380   8.988  0.2527 -0.0302  0.6126
   70SLPC   H6X 6062   4.283   3.440   9.077 -0.5781 -1.9279  2.2029
   70SLPC   H6Y 6063   4.226   3.459   8.916  3.0201  0.6244  0.1724
   70SLPC   C37 6064   4.377   3.315   8.916 -0.0455 -0.0913 -0.4766
   70SLPC   H7X 6065   4.354   3.300   8.809  1.8475 -2.3755 -0.6050
   70SLPC   H7Y 6066   4.399   3.219   8.967  3.2592  1.7097  1.6360
   70SLPC   C38 6067   4.508   3.405   8.918 -0.0986  0.1911 -0.4377
   70SLPC   H8X 6068   4.540   3.419   9.024 -1.0706  2.3686 -0.4095
   70SLPC   H8Y 6069   4.486   3.508   8.885  1.3536  0.0177 -1.9649
   70SLPC   C39 6070   4.619   3.348   8.831 -0.0076 -0.3079 -0.2831
   70SLPC   H9X 6071   4.579   3.303   8.738  3.1209 -0.9627 -1.3773
   70SLPC   H9Y 6072   4.658   3.256   8.880 -1.8749 -0.6268  0.6674
   70SLPC  C310 6073   4.715   3.456   8.786 -0.0621 -0.6059 -0.1009
   70SLPC  H10X 6074   4.730   3.521   8.875 -1.8684 -0.8750  0.4267
   70SLPC  H10Y 6075   4.670   3.517   8.705  1.2038 -2.2957 -2.1144
   70SLPC  C311 6076   4.853   3.405   8.743  0.0073  0.3944  0.9923
   70SLPC  H11X 6077   4.898   3.349   8.828 -1.0578 -1.4136  0.3915
   70SLPC  H11Y 6078   4.911   3.497   8.721  0.4071  0.0182  0.4709
   70SLPC  C312 6079   4.840   3.322   8.609 -0.3913  0.0577 -0.1241
   70SLPC  H12X 6080   4.775   3.232   8.618 -1.3264  0.6009 -1.3115
   70SLPC  H12Y 6081   4.934   3.266   8.594 -1.3241 -1.5921  0.1268
   70SLPC  C313 6082   4.803   3.398   8.478 -0.2790 -0.3105 -0.0103
   70SLPC  H13X 6083   4.704   3.445   8.496 -1.5641 -2.3756 -1.4662
   70SLPC  H13Y 6084   4.803   3.330   8.391  0.3453  1.2795 -1.2827
   70SLPC  C314 6085   4.908   3.502   8.436 -0.6946 -0.0730  0.1323
   70SLPC  H14X 6086   5.002   3.446   8.450 -0.9998  0.0637  3.0475
   70SLPC  H14Y 6087   4.903   3.582   8.513 -0.3724  2.3632 -2.2953
   70SLPC  C315 6088   4.903   3.566   8.301 -0.0732  0.0535 -0.4734
   70SLPC  H15X 6089   4.807   3.618   8.282 -0.5274 -0.5106  0.2301
   70SLPC  H15Y 6090   4.924   3.476   8.239 -0.2115 -1.0278  1.0230
   70SLPC  C316 6091   5.006   3.670   8.277 -0.2338  0.3338 -0.8130
   70SLPC  H16X 6092   5.107   3.626   8.290 -0.0977  1.2685  1.5246
   70SLPC  H16Y 6093   4.995   3.734   8.367  0.1944 -3.0882  1.7845
   70SLPC  C317 6094   4.994   3.752   8.151  0.8827 -0.7908 -0.2997
   70SLPC  H17X 6095   5.095   3.792   8.128  0.9195  0.3928  1.7662
   70SLPC  H17Y 6096   4.925   3.838   8.162 -1.6921 -2.8193  0.0420
   70SLPC  C318 6097   4.954   3.669   8.021  0.2372  0.4422  0.5115
   70SLPC  H18X 6098   4.998   3.715   7.930  2.7753  2.3797  2.6591
   70SLPC  H18Y 6099   4.845   3.650   8.008  0.4563 -0.1382 -0.5878
   70SLPC  H18Z 6100   5.010   3.573   8.022  1.7039  1.2976  1.2495
   71SLPC     N 6101   4.189   1.743   9.890 -0.5123 -0.2002 -0.1850
   71SLPC   C13 6102   4.190   1.607   9.952 -0.0705 -0.0575  0.2061
   71SLPC  H13A 6103   4.268   1.579  10.021 -1.4631  1.4878  2.5139
   71SLPC  H13B 6104   4.094   1.599  10.002  0.1878 -1.8142  0.4386
   71SLPC  H13C 6105   4.180   1.535   9.873  0.3187 -0.3320  0.4083
   71SLPC   C14 6106   4.322   1.759   9.818  0.5818 -0.2680 -0.3316
   71SLPC  H14A 6107   4.339   1.680   9.746  1.6383  0.8038 -1.2910
   71SLPC  H14B 6108   4.318   1.857   9.771 -0.2900  0.1374  0.5737
   71SLPC  H14C 6109   4.409   1.752   9.882  0.7521  0.0221 -0.5312
   71SLPC   C15 6110   4.175   1.844  10.001 -0.4481  0.1397 -0.6209
   71SLPC  H15A 6111   4.165   1.945   9.964  0.8998  0.5675  0.1362
   71SLPC  H15B 6112   4.096   1.812  10.067  1.6634  0.4386  2.1649
   71SLPC  H15C 6113   4.265   1.854  10.060  0.1565  0.9148 -1.6458
   71SLPC   C12 6114   4.066   1.758   9.795 -0.3986  0.1123 -0.2837
   71SLPC  H12A 6115   4.071   1.688   9.713  1.0983 -1.0043  0.7383
   71SLPC  H12B 6116   4.074   1.861   9.763  1.1017 -0.6881 -2.6381
   71SLPC   C11 6117   3.930   1.738   9.858 -0.2349  1.0553  0.0507
   71SLPC  H11A 6118   3.930   1.661   9.938 -0.7306  0.4792 -0.5004
   71SLPC  H11B 6119   3.861   1.712   9.775  0.1724  1.3016 -0.3666
   71SLPC     P 6120   3.815   1.984   9.840 -0.1322  0.4685 -0.1578
   71SLPC   O13 6121   3.696   2.020   9.914 -0.4121  0.2778 -0.3671
   71SLPC   O14 6122   3.916   2.091   9.826 -0.1141 -0.4435  0.0337
   71SLPC   O12 6123   3.887   1.864   9.914 -0.3435 -0.5277 -0.6199
   71SLPC   O11 6124   3.782   1.927   9.689  0.1426 -0.5301  0.8941
   71SLPC    C1 6125   3.747   2.028   9.587  0.6921 -1.2095  0.7652
   71SLPC    HA 6126   3.827   2.105   9.577 -0.5026  0.1434  1.2669
   71SLPC    HB 6127   3.728   1.981   9.489  0.5793 -2.2339  1.2810
   71SLPC    C2 6128   3.619   2.107   9.616 -0.0659  0.4581  0.1043
   71SLPC    HS 6129   3.631   2.163   9.712  1.8877  0.2938 -0.0209
   71SLPC   O21 6130   3.511   2.007   9.637 -0.2526 -0.8896 -0.6329
   71SLPC   C21 6131   3.397   2.060   9.685  0.5009 -0.1064  0.3922
   71SLPC   O22 6132   3.392   2.176   9.723 -0.8679 -0.0782 -0.1996
   71SLPC   C22 6133   3.285   1.965   9.653  0.2184 -0.3963  0.1806
   71SLPC   H2R 6134   3.291   1.956   9.542 -1.0396 -2.0106  0.2226
   71SLPC   H2S 6135   3.309   1.867   9.699  0.0794 -0.7414 -0.4683
   71SLPC    C3 6136   3.602   2.209   9.508  0.0472  0.2376  0.1252
   71SLPC    HX 6137   3.689   2.278   9.504  0.8756 -0.8114 -0.1014
   71SLPC    HY 6138   3.512   2.268   9.533 -1.8992 -2.1929 -0.8976
   71SLPC   O31 6139   3.586   2.151   9.377  0.4758  0.7623  0.6415
   71SLPC   C31 6140   3.458   2.150   9.334  0.7141 -1.3026  0.1956
   71SLPC   O32 6141   3.356   2.189   9.392 -0.4088  0.1341  0.2727
   71SLPC   C32 6142   3.449   2.101   9.191 -0.4087  0.8734 -0.7975
   71SLPC   H2X 6143   3.551   2.087   9.151  0.3772 -0.7220  1.6091
   71SLPC   H2Y 6144   3.389   2.181   9.142 -4.4015 -0.9122  0.8856
   71SLPC   C23 6145   3.143   2.025   9.656  1.1975 -0.6368 -0.1826
   71SLPC   H3R 6146   3.134   2.108   9.583  1.5924 -0.9977 -0.6472
   71SLPC   H3S 6147   3.123   2.069   9.756  1.4060  0.1777 -0.4956
   71SLPC   C24 6148   3.023   1.923   9.631 -0.1581  0.9884 -0.4446
   71SLPC   H4R 6149   3.020   1.848   9.713  0.4680  1.5611  0.1110
   71SLPC   H4S 6150   3.044   1.869   9.537 -0.6343  1.3786 -0.7743
   71SLPC   C25 6151   2.884   1.986   9.634  0.0837  0.3116  0.5161
   71SLPC   H5R 6152   2.875   2.033   9.735  0.7815 -2.7020  2.0330
   71SLPC   H5S 6153   2.813   1.901   9.626 -0.2655  0.7426 -1.0790
   71SLPC   C26 6154   2.852   2.086   9.524 -0.9368  0.3080 -0.5645
   71SLPC   H6R 6155   2.881   2.034   9.430 -3.4978  0.2468 -1.3625
   71SLPC   H6S 6156   2.925   2.168   9.544 -0.3143 -0.0211 -1.4399
   71SLPC   C27 6157   2.702   2.126   9.531  0.6992 -0.5873  0.4187
   71SLPC   H7R 6158   2.670   2.129   9.637 -2.7610 -0.3612 -0.5885
   71SLPC   H7S 6159   2.636   2.050   9.485  1.3354 -0.8335 -0.0976
   71SLPC   C28 6160   2.663   2.272   9.461 -0.3294  0.3308  0.1244
   71SLPC   H8R 6161   2.553   2.288   9.473 -0.4032 -1.1999  1.7213
   71SLPC   H8S 6162   2.681   2.261   9.352 -1.2682 -0.6662  0.0521
   71SLPC   C29 6163   2.736   2.384   9.531  0.0778  0.1618  0.0978
   71SLPC   H9R 6164   2.714   2.398   9.638  0.2917  0.3849  0.1114
   71SLPC  C210 6165   2.828   2.473   9.482  0.1748  0.2965  0.1759
   71SLPC  H10R 6166   2.868   2.549   9.551 -0.3868  0.1741  0.6446
   71SLPC  C211 6167   2.881   2.480   9.340 -0.7600 -0.3458 -0.4233
   71SLPC  H11R 6168   2.885   2.588   9.315  1.1729 -0.5032 -0.8843
   71SLPC  H11S 6169   2.804   2.431   9.276  0.1670  1.5838 -3.1081
   71SLPC  C212 6170   3.028   2.440   9.321 -0.8418 -0.0578  0.1013
   71SLPC  H12R 6171   3.092   2.522   9.358 -0.9088 -0.0934  0.2934
   71SLPC  C213 6172   3.078   2.326   9.284 -0.4862  0.2905  0.1865
   71SLPC  H13R 6173   3.186   2.311   9.271 -0.2243  1.6069  0.7461
   71SLPC  C214 6174   3.004   2.198   9.258  0.5043  0.4677 -0.1570
   71SLPC  H14R 6175   2.897   2.198   9.289  0.4554 -2.9866 -0.0610
   71SLPC  H14S 6176   3.062   2.112   9.299 -2.2827 -0.9342  1.0273
   71SLPC  C215 6177   2.985   2.160   9.101  0.6333  0.4399  0.3130
   71SLPC  H15R 6178   2.918   2.234   9.051  2.2485  1.7278  0.0059
   71SLPC  H15S 6179   2.941   2.058   9.103  0.8346  0.3483  0.1109
   71SLPC  C216 6180   3.112   2.137   9.014 -0.4750  0.4171 -0.9688
   71SLPC  H16R 6181   3.159   2.041   9.044 -0.8983  0.6937  0.6335
   71SLPC  H16S 6182   3.186   2.217   9.037 -0.4278  0.5984 -1.7480
   71SLPC  C217 6183   3.086   2.140   8.864  0.1881  0.3881 -0.3333
   71SLPC  H17R 6184   3.082   2.245   8.827 -2.4649  0.1958 -0.6857
   71SLPC  H17S 6185   2.987   2.094   8.842 -0.4505  0.1964  2.6531
   71SLPC  C218 6186   3.187   2.059   8.793  0.4887 -0.5405 -0.2611
   71SLPC  H18R 6187   3.158   2.046   8.687  0.0874  0.4577 -0.2743
   71SLPC  H18S 6188   3.189   1.960   8.843  0.0054 -0.7064 -0.5615
   71SLPC  H18T 6189   3.289   2.103   8.796 -0.9044  2.7689  0.8917
   71SLPC   C33 6190   3.359   1.976   9.176  0.0642  0.1746  0.6741
   71SLPC   H3X 6191   3.344   1.970   9.066  0.5705 -2.6746  0.7020
   71SLPC   H3Y 6192   3.258   1.975   9.222  0.1434 -0.3763  0.8509
   71SLPC   C34 6193   3.438   1.845   9.213  0.2700  0.8346  0.1305
   71SLPC   H4X 6194   3.407   1.820   9.317  0.1399  0.8667  0.0996
   71SLPC   H4Y 6195   3.549   1.852   9.214  0.2747  0.7782  0.0708
   71SLPC   C35 6196   3.404   1.727   9.115  0.4191 -0.2329 -0.2567
   71SLPC   H5X 6197   3.465   1.643   9.153 -0.1953  0.1916  1.7058
   71SLPC   H5Y 6198   3.451   1.745   9.016  0.9412 -1.1677 -0.1820
   71SLPC   C36 6199   3.252   1.709   9.095  0.6331 -0.9583 -0.1870
   71SLPC   H6X 6200   3.223   1.797   9.033 -0.5477 -1.0635  0.2108
   71SLPC   H6Y 6201   3.209   1.714   9.198 -0.7662  1.8452 -0.8425
   71SLPC   C37 6202   3.217   1.586   9.012  0.4201 -0.1100  0.2149
   71SLPC   H7X 6203   3.114   1.553   9.033 -0.4004  2.0236 -0.2753
   71SLPC   H7Y 6204   3.291   1.507   9.037  2.0951  0.5885 -2.3086
   71SLPC   C38 6205   3.226   1.614   8.858  0.2843 -0.1217 -0.6134
   71SLPC   H8X 6206   3.243   1.723   8.844  0.8151 -0.1636 -0.3149
   71SLPC   H8Y 6207   3.131   1.575   8.814 -0.0737  0.1750 -0.1208
   71SLPC   C39 6208   3.346   1.541   8.788  1.1338  0.2963 -0.2395
   71SLPC   H9X 6209   3.332   1.431   8.796  0.5005  0.5162  2.1248
   71SLPC   H9Y 6210   3.439   1.576   8.838 -0.1883  1.2922  1.5695
   71SLPC  C310 6211   3.358   1.577   8.643 -0.4697  0.0477  0.2072
   71SLPC  H10X 6212   3.453   1.543   8.598 -0.3564 -0.4437  0.8033
   71SLPC  H10Y 6213   3.354   1.688   8.643  0.0585  0.1021  2.3493
   71SLPC  C311 6214   3.245   1.518   8.555 -0.0258 -0.7265 -0.5269
   71SLPC  H11X 6215   3.146   1.564   8.577  0.7070  1.2433 -1.1919
   71SLPC  H11Y 6216   3.249   1.409   8.577  0.8251 -1.1387 -2.5370
   71SLPC  C312 6217   3.273   1.549   8.403  0.0477 -0.0107  0.2647
   71SLPC  H12X 6218   3.380   1.530   8.379 -0.2651 -0.6188 -0.6383
   71SLPC  H12Y 6219   3.261   1.659   8.395 -0.3096 -0.0687  0.0211
   71SLPC  C313 6220   3.179   1.489   8.295  0.3406 -0.0321 -0.2001
   71SLPC  H13X 6221   3.076   1.531   8.306 -0.8617 -2.2561 -2.6234
   71SLPC  H13Y 6222   3.159   1.384   8.325 -2.4544  0.4040 -0.4317
   71SLPC  C314 6223   3.227   1.524   8.155 -1.0215 -0.2278  0.6906
   71SLPC  H14X 6224   3.166   1.457   8.091 -2.9199  3.1292 -1.1236
   71SLPC  H14Y 6225   3.336   1.500   8.153 -0.5275  1.9839 -0.4850
   71SLPC  C315 6226   3.210   1.667   8.103  0.1495 -0.0192 -0.0560
   71SLPC  H15X 6227   3.283   1.736   8.151 -1.4698  1.6441  0.0857
   71SLPC  H15Y 6228   3.106   1.698   8.128  0.0581  0.1424 -0.6174
   71SLPC  C316 6229   3.238   1.688   7.955  0.0702  0.6815  0.0166
   71SLPC  H16X 6230   3.161   1.640   7.890  0.8465  2.8565 -2.6191
   71SLPC  H16Y 6231   3.324   1.625   7.924 -1.5346 -1.7327  0.3417
   71SLPC  C317 6232   3.250   1.838   7.924  0.0641  0.7894 -0.0277
   71SLPC  H17X 6233   3.268   1.854   7.815  2.3851  1.5509  0.4356
   71SLPC  H17Y 6234   3.340   1.886   7.970  0.1127  0.0550  0.6431
   71SLPC  C318 6235   3.119   1.908   7.959  0.3592 -0.6053 -0.0393
   71SLPC  H18X 6236   3.127   2.007   7.909 -3.4003  0.5131  1.3867
   71SLPC  H18Y 6237   3.116   1.918   8.070 -1.0504 -3.2068  0.1783
   71SLPC  H18Z 6238   3.029   1.852   7.927 -0.4011  0.3283  0.4518
   72SLPC     N 6239   5.626   6.230   9.848 -0.0245  0.0917 -0.2910
   72SLPC   C13 6240   5.567   6.221   9.993 -0.3433  0.0890  0.4505
   72SLPC  H13A 6241   5.476   6.162   9.995 -0.8335  0.8060 -0.4753
   72SLPC  H13B 6242   5.629   6.167  10.063  1.0333  2.4500  1.1001
   72SLPC  H13C 6243   5.551   6.324  10.020  1.0314 -0.0438  1.8502
   72SLPC   C14 6244   5.546   6.323   9.763 -0.2839 -0.7481 -0.0668
   72SLPC  H14A 6245   5.592   6.342   9.667  1.2222  0.6644  0.9133
   72SLPC  H14B 6246   5.446   6.289   9.740 -0.1662 -1.4729  0.4749
   72SLPC  H14C 6247   5.537   6.417   9.814  2.5313 -0.9983  0.9793
   72SLPC   C15 6248   5.620   6.084   9.797 -0.4132  0.2830 -0.2669
   72SLPC  H15A 6249   5.672   6.013   9.859 -1.1064  0.5985  0.6877
   72SLPC  H15B 6250   5.517   6.052   9.800 -0.0935 -0.7404  0.0746
   72SLPC  H15C 6251   5.671   6.072   9.703 -2.3361 -0.5698 -1.2239
   72SLPC   C12 6252   5.769   6.285   9.864 -0.8878  0.1257 -0.0839
   72SLPC  H12A 6253   5.816   6.218   9.935 -2.0110  2.0399  2.5893
   72SLPC  H12B 6254   5.797   6.380   9.907  3.1092 -1.4527  1.0057
   72SLPC   C11 6255   5.870   6.289   9.742  0.5560 -0.6376  0.1108
   72SLPC  H11A 6256   5.968   6.331   9.775  0.9027 -1.4123  0.0709
   72SLPC  H11B 6257   5.834   6.373   9.678  0.2913  0.7380  2.0318
   72SLPC     P 6258   5.959   6.037   9.709 -0.3558  0.4846  0.1704
   72SLPC   O13 6259   6.002   6.046   9.853  0.5756 -0.5204 -0.1997
   72SLPC   O14 6260   5.861   5.932   9.664  0.2777 -0.0953 -0.6305
   72SLPC   O12 6261   5.884   6.170   9.671  0.7816 -0.2863 -0.1252
   72SLPC   O11 6262   6.079   6.038   9.615  0.5263 -0.3913 -0.2412
   72SLPC    C1 6263   6.199   6.119   9.640 -0.2763 -0.5073  0.3805
   72SLPC    HA 6264   6.184   6.225   9.669 -0.4608 -0.8825  1.6590
   72SLPC    HB 6265   6.258   6.073   9.723  0.1163  1.3180  1.1401
   72SLPC    C2 6266   6.299   6.126   9.515 -0.2421 -0.0857 -0.2695
   72SLPC    HS 6267   6.386   6.188   9.547 -0.6833  0.9449 -1.0737
   72SLPC   O21 6268   6.230   6.187   9.402  0.6057 -0.7161  0.2460
   72SLPC   C21 6269   6.214   6.318   9.406  0.5111 -0.4918 -0.4808
   72SLPC   O22 6270   6.262   6.397   9.487  0.0198 -0.4360  0.4270
   72SLPC   C22 6271   6.105   6.354   9.305 -0.1057 -0.5335  0.0046
   72SLPC   H2R 6272   6.013   6.356   9.366  1.0402  1.8050  1.7446
   72SLPC   H2S 6273   6.119   6.459   9.273 -1.2542 -0.8267 -1.5208
   72SLPC    C3 6274   6.352   5.987   9.471  0.2252 -0.0878  0.3779
   72SLPC    HX 6275   6.415   5.952   9.556  0.9130  3.1332  1.2702
   72SLPC    HY 6276   6.407   6.007   9.377 -2.4703  0.0136 -1.2175
   72SLPC   O31 6277   6.249   5.897   9.439 -0.6504  0.2600 -0.2433
   72SLPC   C31 6278   6.264   5.805   9.347 -0.2096 -0.0610  0.1378
   72SLPC   O32 6279   6.368   5.769   9.294  0.0378 -0.3361 -0.6738
   72SLPC   C32 6280   6.123   5.764   9.320 -0.3121  0.7310 -0.2210
   72SLPC   H2X 6281   6.055   5.847   9.352 -0.9806  1.2526 -2.8370
   72SLPC   H2Y 6282   6.084   5.676   9.375 -1.5785  0.0961 -2.0608
   72SLPC   C23 6283   6.076   6.265   9.186  0.4716  0.2385  0.7345
   72SLPC   H3R 6284   5.975   6.285   9.144  0.1807 -0.4101  1.1234
   72SLPC   H3S 6285   6.065   6.158   9.213 -2.0513  0.8686  2.2590
   72SLPC   C24 6286   6.176   6.271   9.070  0.4249 -0.3380  0.2463
   72SLPC   H4R 6287   6.276   6.268   9.120 -0.1339  1.4834  1.4938
   72SLPC   H4S 6288   6.170   6.371   9.023  0.5916 -0.1701  0.5839
   72SLPC   C25 6289   6.171   6.160   8.968 -0.3046  0.7412  0.6521
   72SLPC   H5R 6290   6.092   6.183   8.892  1.4199 -0.5951 -1.6073
   72SLPC   H5S 6291   6.137   6.067   9.019 -1.7830  1.1164  0.3884
   72SLPC   C26 6292   6.297   6.131   8.877  0.6798 -0.2517 -0.1909
   72SLPC   H6R 6293   6.365   6.073   8.943 -0.7671 -2.3397 -0.4693
   72SLPC   H6S 6294   6.344   6.230   8.857  0.2101  0.3931  1.8489
   72SLPC   C27 6295   6.257   6.051   8.748 -0.0279 -0.1496  0.2449
   72SLPC   H7R 6296   6.309   6.116   8.673 -0.2397 -1.6111 -1.1976
   72SLPC   H7S 6297   6.148   6.050   8.728  0.1883 -0.9542 -0.9978
   72SLPC   C28 6298   6.312   5.908   8.725 -0.1905  0.0496 -0.5149
   72SLPC   H8R 6299   6.252   5.834   8.783  0.3669  0.8494  1.1081
   72SLPC   H8S 6300   6.419   5.893   8.753 -0.8063 -0.8326  1.4060
   72SLPC   C29 6301   6.315   5.872   8.579  0.2780  0.8044  0.1393
   72SLPC   H9R 6302   6.340   5.954   8.509  0.4457  2.2798  1.8993
   72SLPC  C210 6303   6.301   5.749   8.529 -0.1537 -0.3508 -0.8114
   72SLPC  H10R 6304   6.314   5.733   8.420 -2.7017 -0.7444 -1.0857
   72SLPC  C211 6305   6.277   5.624   8.606 -0.3714  0.0523 -0.2912
   72SLPC  H11R 6306   6.221   5.646   8.699  0.3633  2.9186 -0.4965
   72SLPC  H11S 6307   6.371   5.581   8.647 -0.6824  1.6903  2.1955
   72SLPC  C212 6308   6.206   5.514   8.522 -0.1075 -0.0310 -0.1983
   72SLPC  H12R 6309   6.272   5.465   8.449 -0.2529  0.4943 -0.6839
   72SLPC  C213 6310   6.079   5.468   8.525 -0.0632  0.2918 -0.6017
   72SLPC  H13R 6311   6.046   5.400   8.445  2.2381 -2.7314  0.9072
   72SLPC  C214 6312   5.970   5.508   8.624  0.0969  0.2383 -0.1958
   72SLPC  H14R 6313   5.877   5.529   8.565  1.0294 -1.5729 -2.3915
   72SLPC  H14S 6314   6.000   5.596   8.686  1.2455 -1.3727  1.5723
   72SLPC  C215 6315   5.944   5.394   8.723  0.4452 -0.3438 -0.8778
   72SLPC  H15R 6316   6.043   5.375   8.771 -0.6575  0.5229  1.8061
   72SLPC  H15S 6317   5.904   5.306   8.668 -1.2016 -0.0090 -0.2355
   72SLPC  C216 6318   5.849   5.435   8.832  1.1966 -0.4040  0.0920
   72SLPC  H16R 6319   5.750   5.469   8.796  0.2955 -2.1535  0.8748
   72SLPC  H16S 6320   5.895   5.527   8.876  3.1114 -0.7430 -1.1448
   72SLPC  C217 6321   5.828   5.331   8.944  0.7004  0.0824 -0.6032
   72SLPC  H17R 6322   5.923   5.310   8.997 -0.8851 -0.8767  1.9974
   72SLPC  H17S 6323   5.803   5.233   8.899  0.0608  0.0692 -0.2333
   72SLPC  C218 6324   5.721   5.379   9.047 -0.1891 -0.2884  0.2398
   72SLPC  H18R 6325   5.757   5.469   9.102  0.3397 -0.1900 -0.2665
   72SLPC  H18S 6326   5.706   5.299   9.123  0.0920 -0.6534 -0.0843
   72SLPC  H18T 6327   5.631   5.417   8.994  0.9992  2.9003  0.4074
   72SLPC   C33 6328   6.108   5.720   9.171  0.2277  0.0316  0.8700
   72SLPC   H3X 6329   6.184   5.643   9.146  0.9928  0.6616  1.2432
   72SLPC   H3Y 6330   6.118   5.811   9.108 -2.6878 -0.1591  0.0310
   72SLPC   C34 6331   5.968   5.658   9.146  0.3309  0.1613  0.0856
   72SLPC   H4X 6332   5.954   5.573   9.216 -1.5229  1.0699  0.8563
   72SLPC   H4Y 6333   5.966   5.615   9.044  1.6330  1.1907 -0.3843
   72SLPC   C35 6334   5.851   5.752   9.157  0.4637 -0.0360  0.3877
   72SLPC   H5X 6335   5.864   5.815   9.248  2.2256  1.5117 -0.8988
   72SLPC   H5Y 6336   5.751   5.709   9.177  1.0373 -0.7594  1.8256
   72SLPC   C36 6337   5.842   5.851   9.037 -0.9660  1.0553 -0.2441
   72SLPC   H6X 6338   5.856   5.794   8.943 -2.0422  2.5948 -1.3576
   72SLPC   H6Y 6339   5.929   5.917   9.056 -0.5978  0.0226  1.8101
   72SLPC   C37 6340   5.722   5.944   9.047  0.4167  0.2237  0.4686
   72SLPC   H7X 6341   5.730   6.018   9.129 -2.3754  1.5267 -0.3845
   72SLPC   H7Y 6342   5.634   5.877   9.059  0.3664 -0.5499 -3.3884
   72SLPC   C38 6343   5.695   6.021   8.917 -0.1435 -0.2998  0.6689
   72SLPC   H8X 6344   5.590   6.056   8.905  0.0254 -0.4380 -1.2481
   72SLPC   H8Y 6345   5.699   5.941   8.841 -5.7415  0.3293 -0.4706
   72SLPC   C39 6346   5.791   6.143   8.892 -0.3977  0.0544  0.6938
   72SLPC   H9X 6347   5.874   6.107   8.828  0.0385  1.1396  0.6537
   72SLPC   H9Y 6348   5.833   6.160   8.993  1.3839 -0.4339  0.0472
   72SLPC  C310 6349   5.710   6.261   8.840 -0.3297  0.4400 -0.1416
   72SLPC  H10X 6350   5.764   6.356   8.861 -1.1630  1.1711 -1.2838
   72SLPC  H10Y 6351   5.612   6.257   8.892  0.6181  0.0736  1.6464
   72SLPC  C311 6352   5.677   6.247   8.685 -0.7657  0.3726 -0.1181
   72SLPC  H11X 6353   5.630   6.344   8.659  1.6916  1.6156 -0.1342
   72SLPC  H11Y 6354   5.600   6.170   8.667  0.0194 -0.3912 -0.2089
   72SLPC  C312 6355   5.793   6.231   8.588  0.2885 -0.3532  0.4308
   72SLPC  H12X 6356   5.845   6.137   8.617  0.9777 -0.8157 -2.2107
   72SLPC  H12Y 6357   5.865   6.312   8.613  1.4534 -1.2859  0.1553
   72SLPC  C313 6358   5.754   6.231   8.440 -0.5594  0.7126  0.1158
   72SLPC  H13X 6359   5.656   6.284   8.442 -1.4319 -0.8987  1.6805
   72SLPC  H13Y 6360   5.733   6.128   8.404  0.3597  0.3346  0.6514
   72SLPC  C314 6361   5.848   6.301   8.346 -0.0240  0.1529 -1.1393
   72SLPC  H14X 6362   5.851   6.410   8.367  0.8238 -0.5346  2.6379
   72SLPC  H14Y 6363   5.808   6.293   8.242  1.1989  0.2935 -1.6283
   72SLPC  C315 6364   5.987   6.252   8.341  0.1318 -0.2161 -0.5084
   72SLPC  H15X 6365   5.977   6.143   8.321  0.2762 -0.3326  0.0487
   72SLPC  H15Y 6366   6.041   6.248   8.438  0.7786  0.6612 -0.8287
   72SLPC  C316 6367   6.065   6.325   8.224  0.3428  0.5018  0.2800
   72SLPC  H16X 6368   6.063   6.433   8.249 -2.4373  1.7174 -4.6024
   72SLPC  H16Y 6369   6.003   6.300   8.136  1.8337 -2.7657  0.0731
   72SLPC  C317 6370   6.204   6.271   8.204  0.1149 -0.2088 -0.0294
   72SLPC  H17X 6371   6.250   6.328   8.121 -0.8009 -0.9297 -1.0450
   72SLPC  H17Y 6372   6.211   6.163   8.181 -0.3557 -0.8154  2.5505
   72SLPC  C318 6373   6.291   6.291   8.330 -0.3087  0.6185  0.8229
   72SLPC  H18X 6374   6.262   6.218   8.408 -2.0942  1.0010  0.5452
   72SLPC  H18Y 6375   6.278   6.392   8.377  3.5350  1.0979  1.0067
   72SLPC  H18Z 6376   6.399   6.287   8.304 -0.4057  0.9903  0.3502
   73SLPC     N 6377   6.562   5.698   9.876  0.5664 -0.5419 -0.2510
   73SLPC   C13 6378   6.533   5.786   9.755  0.1230 -0.1970  0.3697
   73SLPC  H13A 6379   6.584   5.881   9.757  2.1874 -1.1178 -2.9507
   73SLPC  H13B 6380   6.569   5.748   9.660  0.6573 -0.7232  0.7761
   73SLPC  H13C 6381   6.426   5.797   9.741  0.0213  0.0940  1.3464
   73SLPC   C14 6382   6.489   5.571   9.862  0.2863 -0.1446  0.6341
   73SLPC  H14A 6383   6.520   5.506   9.942  1.8609  0.5003  0.5810
   73SLPC  H14B 6384   6.383   5.588   9.854  0.5240  0.5553 -1.5074
   73SLPC  H14C 6385   6.520   5.517   9.774  0.8480 -0.4294  1.0021
   73SLPC   C15 6386   6.525   5.760  10.013  0.0740 -0.1564  0.3368
   73SLPC  H15A 6387   6.542   5.682  10.086 -0.6342 -0.6379 -0.0065
   73SLPC  H15B 6388   6.594   5.839  10.038  0.6362 -0.9267  1.2240
   73SLPC  H15C 6389   6.420   5.785  10.015 -0.0371 -0.5356 -0.4870
   73SLPC   C12 6390   6.706   5.663   9.878 -0.7332 -0.6377  0.9428
   73SLPC  H12A 6391   6.745   5.613   9.966  1.9332 -0.4488 -0.0862
   73SLPC  H12B 6392   6.760   5.756   9.868  0.5061 -1.1886  2.3560
   73SLPC   C11 6393   6.766   5.572   9.763  0.5851 -0.5477 -0.3543
   73SLPC  H11A 6394   6.873   5.598   9.747 -0.0884  1.8801 -1.1732
   73SLPC  H11B 6395   6.718   5.602   9.668  0.0040 -0.0229  0.0923
   73SLPC     P 6396   6.792   5.352   9.894  0.0153 -0.2429 -0.0505
   73SLPC   O13 6397   6.830   5.436  10.014 -0.1744  0.2341 -0.2968
   73SLPC   O14 6398   6.704   5.235   9.923  0.0170  0.2938 -0.2428
   73SLPC   O12 6399   6.728   5.434   9.781 -0.1756  0.5347 -0.8199
   73SLPC   O11 6400   6.931   5.318   9.832 -0.0571  0.0787  0.4179
   73SLPC    C1 6401   6.976   5.329   9.700 -0.1779 -0.2337 -0.1040
   73SLPC    HA 6402   6.901   5.363   9.626 -1.2080  1.5642  1.7273
   73SLPC    HB 6403   7.067   5.389   9.679  0.3615 -1.7522 -2.3679
   73SLPC    C2 6404   7.024   5.181   9.655  0.5771  0.3803 -0.0831
   73SLPC    HS 6405   7.124   5.175   9.703  0.9218  1.3678 -0.6661
   73SLPC   O21 6406   7.050   5.186   9.513  0.0556 -0.0287 -0.0474
   73SLPC   C21 6407   7.136   5.101   9.462  0.2087  0.6816  0.5968
   73SLPC   O22 6408   7.186   5.007   9.520  0.1946 -0.6123 -0.1552
   73SLPC   C22 6409   7.148   5.131   9.311 -0.2089  0.9117  0.1015
   73SLPC   H2R 6410   7.080   5.063   9.255 -0.4420  0.1383  1.3136
   73SLPC   H2S 6411   7.116   5.235   9.287 -0.1266  0.7171 -0.8886
   73SLPC    C3 6412   6.931   5.061   9.684 -0.2054 -0.5373  0.4498
   73SLPC    HX 6413   6.908   5.058   9.792 -1.8844  0.5323  0.1352
   73SLPC    HY 6414   6.975   4.962   9.660 -2.6312 -1.5899  0.1949
   73SLPC   O31 6415   6.802   5.085   9.611  0.1615  0.3595 -0.0704
   73SLPC   C31 6416   6.699   5.008   9.648  0.5020 -0.0887 -0.1962
   73SLPC   O32 6417   6.715   4.900   9.699  0.0521 -0.3119  0.3077
   73SLPC   C32 6418   6.565   5.081   9.622  0.7537 -0.5731  0.0629
   73SLPC   H2X 6419   6.555   5.107   9.515 -0.6937  1.2399  0.6215
   73SLPC   H2Y 6420   6.564   5.174   9.682  1.9838 -0.8311  0.5133
   73SLPC   C23 6421   7.295   5.131   9.260 -0.0745  0.3609  0.3701
   73SLPC   H3R 6422   7.346   5.033   9.276 -1.2239 -0.2828  0.1630
   73SLPC   H3S 6423   7.333   5.215   9.322 -0.1412  0.1627  0.6863
   73SLPC   C24 6424   7.315   5.184   9.116  0.6277 -0.1324 -0.0802
   73SLPC   H4R 6425   7.415   5.232   9.112  0.2507  0.7502  0.6995
   73SLPC   H4S 6426   7.229   5.253   9.103 -0.1653 -0.6592  2.1038
   73SLPC   C25 6427   7.312   5.071   9.012  0.1108  0.6287 -0.2489
   73SLPC   H5R 6428   7.246   4.985   9.036  0.7861 -0.3571 -1.8215
   73SLPC   H5S 6429   7.410   5.018   9.018  0.2491  0.9240  0.0890
   73SLPC   C26 6430   7.287   5.113   8.866 -0.0820  0.1135  0.1018
   73SLPC   H6R 6431   7.363   5.188   8.837  0.9982 -1.3273 -0.8487
   73SLPC   H6S 6432   7.186   5.155   8.849  0.2031  0.6886 -0.1623
   73SLPC   C27 6433   7.304   4.996   8.771  0.0005  0.3931 -0.4503
   73SLPC   H7R 6434   7.224   4.921   8.788  1.7518 -1.3224  0.2564
   73SLPC   H7S 6435   7.398   4.943   8.793 -1.5992 -1.6181  1.8113
   73SLPC   C28 6436   7.288   5.050   8.627 -0.1613  0.3696  0.2007
   73SLPC   H8R 6437   7.374   5.119   8.610  0.9980 -0.2205  3.3650
   73SLPC   H8S 6438   7.204   5.122   8.614  0.9496  1.3500 -1.7496
   73SLPC   C29 6439   7.277   4.939   8.519  0.7916 -0.5358  0.0346
   73SLPC   H9R 6440   7.369   4.911   8.466 -0.6200 -3.9338 -0.7385
   73SLPC  C210 6441   7.163   4.874   8.480  0.0624 -0.3605  0.2788
   73SLPC  H10R 6442   7.164   4.814   8.388  0.1397 -2.3890  1.5671
   73SLPC  C211 6443   7.028   4.886   8.536  0.5008 -0.2199  0.5037
   73SLPC  H11R 6444   7.026   4.942   8.632  1.7184  3.0638 -1.3163
   73SLPC  H11S 6445   6.989   4.784   8.557 -1.5626 -0.0070 -2.1338
   73SLPC  C212 6446   6.929   4.971   8.453 -0.2114 -0.2193 -0.4512
   73SLPC  H12R 6447   6.962   5.075   8.446  2.2773 -0.8879  0.6301
   73SLPC  C213 6448   6.810   4.932   8.396 -0.8337  0.2764  0.2048
   73SLPC  H13R 6449   6.748   5.005   8.343 -3.1981  2.4706  5.5653
   73SLPC  C214 6450   6.750   4.798   8.395 -0.7970  0.1398 -0.7830
   73SLPC  H14R 6451   6.687   4.779   8.484 -0.0914  0.4172 -0.2212
   73SLPC  H14S 6452   6.825   4.716   8.386 -0.7871 -0.2104  2.0824
   73SLPC  C215 6453   6.665   4.793   8.263 -0.0610 -0.7434  0.2821
   73SLPC  H15R 6454   6.731   4.830   8.182  1.6162 -2.4363  0.8490
   73SLPC  H15S 6455   6.584   4.868   8.279  1.2601  1.4243 -2.7477
   73SLPC  C216 6456   6.588   4.661   8.232  0.4278 -0.1050 -0.3653
   73SLPC  H16R 6457   6.552   4.624   8.330 -1.1610 -0.2208 -0.9881
   73SLPC  H16S 6458   6.666   4.593   8.192 -0.8283  0.9010 -4.7529
   73SLPC  C217 6459   6.476   4.689   8.123  0.1236  0.3595  0.0598
   73SLPC  H17R 6460   6.402   4.765   8.157  0.6496  0.6448  0.5662
   73SLPC  H17S 6461   6.430   4.588   8.116 -1.5986  0.9777  1.8713
   73SLPC  C218 6462   6.518   4.725   7.979  0.5983 -0.3720 -0.3182
   73SLPC  H18R 6463   6.590   4.644   7.955  2.3797  1.3042 -0.7810
   73SLPC  H18S 6464   6.571   4.822   7.984 -1.5584  0.7443  1.9776
   73SLPC  H18T 6465   6.425   4.725   7.919 -0.5398 -1.2119  1.4292
   73SLPC   C33 6466   6.448   4.974   9.647 -0.2653  0.1470  0.6909
   73SLPC   H3X 6467   6.439   4.969   9.758 -0.0752  1.1657  0.7545
   73SLPC   H3Y 6468   6.486   4.881   9.600  0.6123  0.6863  0.3251
   73SLPC   C34 6469   6.322   5.019   9.576  0.2928  0.4063 -0.0561
   73SLPC   H4X 6470   6.316   5.126   9.547  1.5034 -0.3311 -3.1972
   73SLPC   H4Y 6471   6.239   4.993   9.646  1.0915  2.4384  1.7075
   73SLPC   C35 6472   6.285   4.944   9.449  0.0584 -0.1409 -0.4165
   73SLPC   H5X 6473   6.176   4.929   9.437 -0.4080  3.5968 -1.4208
   73SLPC   H5Y 6474   6.331   4.843   9.445  0.8125  0.2163 -0.9966
   73SLPC   C36 6475   6.335   5.014   9.330  0.4343  0.3179 -0.2499
   73SLPC   H6X 6476   6.445   5.026   9.320  0.8394 -3.7440 -1.3000
   73SLPC   H6Y 6477   6.284   5.113   9.336  0.1235  0.0984  0.8536
   73SLPC   C37 6478   6.294   4.956   9.195  0.3673 -0.0452  0.1376
   73SLPC   H7X 6479   6.185   4.938   9.186  0.0965  1.1636  0.9797
   73SLPC   H7Y 6480   6.345   4.859   9.173 -0.9526 -0.8170  0.4262
   73SLPC   C38 6481   6.331   5.048   9.077  0.0480  0.0578  0.4978
   73SLPC   H8X 6482   6.332   4.979   8.990 -1.0513  0.1165  0.4356
   73SLPC   H8Y 6483   6.436   5.083   9.088  0.5123 -1.5792  1.3380
   73SLPC   C39 6484   6.238   5.167   9.055 -0.7042 -0.1675  0.4714
   73SLPC   H9X 6485   6.221   5.215   9.154 -0.3776  3.1641 -1.0063
   73SLPC   H9Y 6486   6.141   5.128   9.019 -0.4628 -1.5795  1.3359
   73SLPC  C310 6487   6.294   5.269   8.958 -0.4604 -0.0779 -0.4564
   73SLPC  H10X 6488   6.218   5.346   8.931 -0.0006  0.9314  1.0561
   73SLPC  H10Y 6489   6.330   5.203   8.876 -2.3754 -2.9016  0.8988
   73SLPC  C311 6490   6.396   5.369   9.012 -0.8668 -0.4236 -0.2042
   73SLPC  H11X 6491   6.487   5.314   9.046  0.4594  1.1835 -1.0927
   73SLPC  H11Y 6492   6.364   5.415   9.107  3.1256  0.8070  0.6347
   73SLPC  C312 6493   6.432   5.468   8.907  0.6606  0.5922 -0.4276
   73SLPC  H12X 6494   6.345   5.537   8.907  0.3110  0.1703  0.7537
   73SLPC  H12Y 6495   6.439   5.413   8.811  0.4635 -1.0530  0.4976
   73SLPC  C313 6496   6.556   5.547   8.943 -0.0889  0.4051 -1.2378
   73SLPC  H13X 6497   6.640   5.489   8.897  1.0249  0.7317  0.3323
   73SLPC  H13Y 6498   6.560   5.540   9.054  3.4565 -0.5615 -1.3693
   73SLPC  C314 6499   6.553   5.695   8.901  0.6309 -0.2325 -0.7229
   73SLPC  H14X 6500   6.458   5.736   8.942 -0.0552 -1.7038 -0.7857
   73SLPC  H14Y 6501   6.549   5.707   8.791  0.0869  0.3252 -0.6415
   73SLPC  C315 6502   6.654   5.777   8.980  0.2189 -0.4608 -0.1534
   73SLPC  H15X 6503   6.643   5.759   9.089  1.6001  1.0911  0.2648
   73SLPC  H15Y 6504   6.625   5.884   8.972 -0.5504 -0.5768  1.0266
   73SLPC  C316 6505   6.801   5.761   8.940 -0.1318  0.4689 -0.0082
   73SLPC  H16X 6506   6.823   5.814   8.845  3.7352 -2.6459 -0.9879
   73SLPC  H16Y 6507   6.814   5.651   8.923 -0.9627 -0.2057  3.3729
   73SLPC  C317 6508   6.909   5.795   9.042 -0.2903 -0.6179 -0.5668
   73SLPC  H17X 6509   6.897   5.903   9.066 -1.3807 -0.9124  0.2625
   73SLPC  H17Y 6510   7.005   5.786   8.987  1.3274 -0.0010  2.0755
   73SLPC  C318 6511   6.915   5.708   9.169  0.5870 -0.3916  0.3968
   73SLPC  H18X 6512   6.822   5.719   9.228  0.5068  2.5581 -0.1632
   73SLPC  H18Y 6513   7.002   5.751   9.224 -1.3147  1.3251  2.1249
   73SLPC  H18Z 6514   6.938   5.602   9.147 -0.6746 -0.8962  1.4778
   74SLPC     N 6515   6.580   7.168  10.139  0.1117  0.6509  0.6208
   74SLPC   C13 6516   6.472   7.060  10.129  0.1705  0.2836  0.7252
   74SLPC  H13A 6517   6.497   6.983  10.057 -2.4349  3.3594 -3.7745
   74SLPC  H13B 6518   6.460   7.020  10.228  1.1525  0.0644  0.7593
   74SLPC  H13C 6519   6.373   7.097  10.105  0.3431  0.7510  0.7303
   74SLPC   C14 6520   6.718   7.100  10.154 -0.3267  0.5240  0.0395
   74SLPC  H14A 6521   6.792   7.179  10.152 -0.9214  1.0842 -0.1412
   74SLPC  H14B 6522   6.734   7.046  10.247 -0.2294 -1.4908 -1.1319
   74SLPC  H14C 6523   6.745   7.038  10.070 -0.6393 -0.6786  0.8105
   74SLPC   C15 6524   6.565   7.251  10.263  0.2178 -0.1926 -0.6998
   74SLPC  H15A 6525   6.592   7.189  10.347  4.0775  1.2656 -0.7863
   74SLPC  H15B 6526   6.626   7.340  10.268  0.6812 -0.5680  0.7309
   74SLPC  H15C 6527   6.462   7.278  10.282  0.6500  1.3540 -0.4761
   74SLPC   C12 6528   6.580   7.258  10.018 -0.4637 -0.6056  0.6475
   74SLPC  H12A 6529   6.645   7.342  10.036  2.9314 -2.4164 -2.5616
   74SLPC  H12B 6530   6.480   7.298  10.017 -0.3472 -0.2344  2.3843
   74SLPC   C11 6531   6.613   7.204   9.878 -0.2418 -0.1633  0.7980
   74SLPC  H11A 6532   6.713   7.155   9.880 -0.1705 -0.1236 -1.0482
   74SLPC  H11B 6533   6.616   7.289   9.807  2.1151  1.3827  2.6926
   74SLPC     P 6534   6.394   7.125   9.755 -0.1924  0.0442 -0.2152
   74SLPC   O13 6535   6.343   6.991   9.707 -0.5154 -0.1768  0.4893
   74SLPC   O14 6536   6.293   7.197   9.834  0.2150 -0.5801  0.0999
   74SLPC   O12 6537   6.521   7.096   9.847  0.2646 -0.4824 -0.0618
   74SLPC   O11 6538   6.437   7.209   9.630  0.2554  0.4829 -0.2517
   74SLPC    C1 6539   6.557   7.186   9.558  0.0688 -0.0139  0.1115
   74SLPC    HA 6540   6.611   7.282   9.547  0.2113  0.2837  2.9609
   74SLPC    HB 6541   6.620   7.112   9.611  2.5435  0.2128 -2.4098
   74SLPC    C2 6542   6.520   7.119   9.419  0.1942  0.2554  0.5084
   74SLPC    HS 6543   6.449   7.034   9.430  0.4403 -0.3750 -2.5145
   74SLPC   O21 6544   6.648   7.084   9.364  0.4109 -0.2985  0.4230
   74SLPC   C21 6545   6.695   6.973   9.412  0.4879 -0.4406  0.2546
   74SLPC   O22 6546   6.641   6.912   9.503 -0.1309 -0.2978  0.1038
   74SLPC   C22 6547   6.815   6.927   9.334  0.0911  0.1434 -0.3809
   74SLPC   H2R 6548   6.880   7.015   9.354  1.4965 -1.4685  2.4099
   74SLPC   H2S 6549   6.856   6.843   9.394 -0.4843  0.3822  0.3432
   74SLPC    C3 6550   6.456   7.211   9.322 -0.3697 -0.0621  0.7852
   74SLPC    HX 6551   6.519   7.303   9.324 -1.2517  0.5531  0.6508
   74SLPC    HY 6552   6.352   7.233   9.355 -0.3187 -3.5416  3.4731
   74SLPC   O31 6553   6.456   7.151   9.188  0.4958  0.2259  0.8510
   74SLPC   C31 6554   6.423   7.240   9.095  0.2781  0.1003 -0.1397
   74SLPC   O32 6555   6.392   7.354   9.125  0.3918 -0.0355 -0.5261
   74SLPC   C32 6556   6.449   7.195   8.950  0.1648 -0.3862  0.0645
   74SLPC   H2X 6557   6.416   7.088   8.945  0.6168 -0.5631  0.7834
   74SLPC   H2Y 6558   6.557   7.190   8.924 -0.6823  2.7028 -4.5635
   74SLPC   C23 6559   6.801   6.901   9.180  0.7137  0.2132 -0.1881
   74SLPC   H3R 6560   6.742   6.987   9.142  0.8008  1.3874  2.2899
   74SLPC   H3S 6561   6.737   6.810   9.168  1.1692 -0.1887  0.4044
   74SLPC   C24 6562   6.931   6.876   9.104  0.2762  0.2375 -0.2952
   74SLPC   H4R 6563   6.979   6.784   9.143 -2.0668  0.2016  2.7144
   74SLPC   H4S 6564   7.003   6.960   9.112  1.3931 -0.7148 -0.3096
   74SLPC   C25 6565   6.883   6.861   8.963 -0.2107  0.4239  0.3883
   74SLPC   H5R 6566   6.781   6.817   8.970  0.1176 -0.3332  0.4763
   74SLPC   H5S 6567   6.954   6.797   8.905 -0.3507 -1.2933  2.0631
   74SLPC   C26 6568   6.871   6.995   8.885 -0.4087 -0.8611  0.0480
   74SLPC   H6R 6569   6.791   7.058   8.929 -0.7414 -1.4448  0.2898
   74SLPC   H6S 6570   6.833   6.980   8.781 -1.5230 -0.2663  0.3615
   74SLPC   C27 6571   7.005   7.070   8.880 -0.1924 -0.7801  0.1682
   74SLPC   H7R 6572   7.069   6.996   8.828 -1.1816 -0.3183 -1.7495
   74SLPC   H7S 6573   7.037   7.101   8.982 -1.2130  2.5473 -0.4465
   74SLPC   C28 6574   6.995   7.197   8.798  0.1329  0.2199  0.5659
   74SLPC   H8R 6575   7.083   7.260   8.823 -0.4729  1.1278  0.4408
   74SLPC   H8S 6576   6.901   7.254   8.816  0.6173  1.5608 -1.0471
   74SLPC   C29 6577   6.994   7.179   8.647  0.1051 -0.0764  0.4253
   74SLPC   H9R 6578   6.899   7.209   8.602 -0.6941 -0.5630  1.7546
   74SLPC  C210 6579   7.098   7.156   8.569 -0.1036 -0.0639  0.4458
   74SLPC  H10R 6580   7.078   7.148   8.461  1.3673 -2.9969  0.3404
   74SLPC  C211 6581   7.240   7.147   8.603  0.0750  0.3250  0.3625
   74SLPC  H11R 6582   7.289   7.055   8.565  2.2339  1.6855 -0.2820
   74SLPC  H11S 6583   7.246   7.155   8.714  0.3856  2.8971  0.2014
   74SLPC  C212 6584   7.311   7.269   8.546  1.0405 -0.2209  0.7871
   74SLPC  H12R 6585   7.311   7.357   8.612  3.3513  0.1065  0.3937
   74SLPC  C213 6586   7.381   7.270   8.429 -0.2311 -0.7568 -0.3568
   74SLPC  H13R 6587   7.424   7.367   8.402 -0.5662 -0.7457 -0.8467
   74SLPC  C214 6588   7.402   7.152   8.335 -0.0562 -0.0657  0.1478
   74SLPC  H14R 6589   7.307   7.153   8.278 -0.0764 -1.6866  0.1198
   74SLPC  H14S 6590   7.408   7.056   8.391 -1.4808  0.1942  0.7747
   74SLPC  C215 6591   7.515   7.161   8.228  0.3766 -0.2072 -0.2477
   74SLPC  H15R 6592   7.597   7.220   8.276  1.4238 -2.1455  0.3972
   74SLPC  H15S 6593   7.472   7.215   8.141  1.1813 -0.5529 -0.8691
   74SLPC  C216 6594   7.559   7.021   8.178 -0.0313 -0.5393 -0.4760
   74SLPC  H16R 6595   7.491   6.981   8.099 -1.3163 -1.5116  1.1005
   74SLPC  H16S 6596   7.534   6.947   8.257  1.2357  1.3233  1.7512
   74SLPC  C217 6597   7.711   6.997   8.141 -0.4420 -0.3285 -0.0220
   74SLPC  H17R 6598   7.758   7.089   8.181 -0.0354 -0.3910 -0.3583
   74SLPC  H17S 6599   7.716   7.022   8.033  0.9846 -0.4572  0.0114
   74SLPC  C218 6600   7.772   6.866   8.168 -0.5015  0.2004 -0.1632
   74SLPC  H18R 6601   7.877   6.864   8.132 -0.4584 -0.4346 -0.0043
   74SLPC  H18S 6602   7.717   6.780   8.125 -0.5622  0.2481 -0.1804
   74SLPC  H18T 6603   7.764   6.847   8.277  1.1023  0.5857  0.0360
   74SLPC   C33 6604   6.369   7.280   8.838 -0.0032 -0.3585 -0.5850
   74SLPC   H3X 6605   6.404   7.386   8.834  1.6472 -0.7629  1.7551
   74SLPC   H3Y 6606   6.263   7.292   8.869  0.0762 -0.6455 -0.1962
   74SLPC   C34 6607   6.369   7.209   8.707 -0.5700  0.3163 -0.0899
   74SLPC   H4X 6608   6.327   7.263   8.618 -0.1050 -0.5471 -0.8372
   74SLPC   H4Y 6609   6.305   7.119   8.710 -0.1779 -0.1050 -2.8819
   74SLPC   C35 6610   6.512   7.161   8.653  0.1789 -1.0706 -0.8050
   74SLPC   H5X 6611   6.537   7.065   8.704 -1.2774 -0.2486  1.5118
   74SLPC   H5Y 6612   6.579   7.244   8.683 -1.8979  1.0590 -1.9587
   74SLPC   C36 6613   6.525   7.128   8.505  0.1704  0.9309 -0.0672
   74SLPC   H6X 6614   6.485   7.204   8.434  0.5368  0.7152 -0.5036
   74SLPC   H6Y 6615   6.463   7.038   8.489 -0.3502  1.5497 -1.6393
   74SLPC   C37 6616   6.664   7.096   8.465 -0.2937 -0.3647  0.0409
   74SLPC   H7X 6617   6.707   7.044   8.553 -1.8656 -0.4125  0.7953
   74SLPC   H7Y 6618   6.722   7.189   8.448  0.0752 -0.2582  1.8441
   74SLPC   C38 6619   6.662   7.011   8.335 -0.7760 -0.1345 -0.1236
   74SLPC   H8X 6620   6.580   7.044   8.268 -1.0455 -0.6078 -0.0292
   74SLPC   H8Y 6621   6.639   6.904   8.352 -0.0419 -0.6538 -2.1824
   74SLPC   C39 6622   6.804   7.026   8.269 -0.0720 -0.1378  1.6204
   74SLPC   H9X 6623   6.815   6.953   8.185  0.0875  2.2683 -0.5229
   74SLPC   H9Y 6624   6.871   7.007   8.355  2.3071 -0.2088 -0.1893
   74SLPC  C310 6625   6.844   7.163   8.219  0.4823  0.0410 -0.6902
   74SLPC  H10X 6626   6.837   7.248   8.290 -0.1189 -1.1146  0.6676
   74SLPC  H10Y 6627   6.776   7.188   8.135 -1.0372 -1.3204  0.0958
   74SLPC  C311 6628   6.994   7.176   8.162  0.2586 -0.6507  0.2850
   74SLPC  H11X 6629   7.012   7.106   8.078 -0.7933 -0.3419 -0.2001
   74SLPC  H11Y 6630   7.052   7.143   8.251  0.1806  0.9930  0.9545
   74SLPC  C312 6631   7.028   7.328   8.132  0.1315  1.1997  0.3984
   74SLPC  H12X 6632   7.134   7.346   8.101  0.5112 -0.6328  0.5760
   74SLPC  H12Y 6633   7.031   7.365   8.237  0.2748 -2.1353  1.6402
   74SLPC  C313 6634   6.921   7.393   8.045  0.5915 -0.0252 -0.1688
   74SLPC  H13X 6635   6.835   7.412   8.113  1.2154 -0.2979  0.7088
   74SLPC  H13Y 6636   6.883   7.331   7.961  0.1375  0.6585 -0.4785
   74SLPC  C314 6637   6.973   7.529   7.995  0.5949 -0.0833  0.1790
   74SLPC  H14X 6638   7.034   7.577   8.074  0.2644 -0.7611  0.8394
   74SLPC  H14Y 6639   6.874   7.581   7.993 -0.4325 -1.9952 -0.0981
   74SLPC  C315 6640   7.062   7.548   7.871 -0.1715 -0.1698  0.5573
   74SLPC  H15X 6641   7.001   7.511   7.786 -0.5421  1.0774  0.2664
   74SLPC  H15Y 6642   7.154   7.488   7.886 -0.5476 -0.7856  0.4010
   74SLPC  C316 6643   7.087   7.698   7.830  0.5728  0.1353  0.2584
   74SLPC  H16X 6644   7.180   7.736   7.878  0.2208  2.6071 -0.9563
   74SLPC  H16Y 6645   6.999   7.760   7.859  1.4701  0.8711  1.4691
   74SLPC  C317 6646   7.121   7.720   7.683  0.7040 -0.1113  0.3478
   74SLPC  H17X 6647   7.039   7.674   7.624 -0.5505 -0.2802  2.1800
   74SLPC  H17Y 6648   7.215   7.674   7.646  0.3126 -1.6204  1.2000
   74SLPC  C318 6649   7.147   7.867   7.654  0.7366 -0.5042 -0.1307
   74SLPC  H18X 6650   7.213   7.869   7.565 -3.2719  0.5912 -3.2358
   74SLPC  H18Y 6651   7.195   7.915   7.742  0.3635  2.1563 -1.3102
   74SLPC  H18Z 6652   7.058   7.929   7.629  0.7554  0.9554  3.0952
   75SLPC     N 6653   1.371   2.208   6.011 -0.3461  0.0901 -0.6872
   75SLPC   C13 6654   1.484   2.133   6.069  0.6058  0.3114  0.4905
   75SLPC  H13A 6655   1.454   2.032   6.092 -0.5407  0.0674 -1.9737
   75SLPC  H13B 6656   1.557   2.109   5.993 -0.3856 -0.3576 -0.2641
   75SLPC  H13C 6657   1.524   2.180   6.158  0.2915  0.7150  0.4201
   75SLPC   C14 6658   1.321   2.120   5.903 -0.4696 -0.0036 -0.6081
   75SLPC  H14A 6659   1.241   2.171   5.852 -1.2708  0.7363  1.3495
   75SLPC  H14B 6660   1.401   2.108   5.831 -1.6099 -1.6988 -1.6170
   75SLPC  H14C 6661   1.301   2.019   5.934  2.6391  0.0126  1.7560
   75SLPC   C15 6662   1.408   2.338   5.952 -0.2681  0.3110 -0.4549
   75SLPC  H15A 6663   1.323   2.393   5.915 -0.0624  0.0942 -1.2384
   75SLPC  H15B 6664   1.463   2.400   6.022  2.2379  0.0689 -2.1241
   75SLPC  H15C 6665   1.479   2.327   5.872 -1.0663  0.3178 -1.1668
   75SLPC   C12 6666   1.269   2.225   6.122 -0.2841  0.0406 -0.3437
   75SLPC  H12A 6667   1.247   2.124   6.152  1.8300 -0.1534  0.6540
   75SLPC  H12B 6668   1.184   2.287   6.095 -0.8069  0.5667  2.3547
   75SLPC   C11 6669   1.316   2.289   6.249  0.1365 -0.9458 -0.0614
   75SLPC  H11A 6670   1.417   2.255   6.279  1.4852  0.8170 -2.4562
   75SLPC  H11B 6671   1.243   2.273   6.332 -0.2788 -1.5022 -0.5264
   75SLPC     P 6672   1.440   2.520   6.298 -0.3223  0.2449  0.4576
   75SLPC   O13 6673   1.567   2.488   6.229 -0.2276  0.5667  0.3425
   75SLPC   O14 6674   1.403   2.663   6.283  0.2581 -0.3700  0.5385
   75SLPC   O12 6675   1.325   2.427   6.235  0.0366 -0.2630 -0.4777
   75SLPC   O11 6676   1.436   2.477   6.449 -0.7333 -0.1061 -0.4988
   75SLPC    C1 6677   1.478   2.573   6.552  0.0120  0.0611  0.6437
   75SLPC    HA 6678   1.507   2.531   6.650  3.2984 -0.6759 -0.5686
   75SLPC    HB 6679   1.574   2.621   6.521  1.2695 -0.7683  3.0964
   75SLPC    C2 6680   1.354   2.665   6.587 -0.0114  0.4995  1.0571
   75SLPC    HS 6681   1.350   2.736   6.502  2.3160 -0.7414 -0.1618
   75SLPC   O21 6682   1.379   2.740   6.708 -0.3684  0.3890 -0.5771
   75SLPC   C21 6683   1.300   2.840   6.738 -0.3227  0.3265 -1.0270
   75SLPC   O22 6684   1.219   2.887   6.666 -0.0198  0.3549  0.1173
   75SLPC   C22 6685   1.338   2.895   6.873 -0.0442 -0.1264 -0.0067
   75SLPC   H2R 6686   1.392   2.812   6.923  0.1474 -0.1199 -0.1971
   75SLPC   H2S 6687   1.407   2.982   6.868 -0.8404  0.4578 -1.0815
   75SLPC    C3 6688   1.223   2.586   6.588  0.3255 -0.1806  0.2276
   75SLPC    HX 6689   1.216   2.532   6.491 -0.3201  1.0598 -0.4303
   75SLPC    HY 6690   1.138   2.656   6.572 -0.0815 -1.1120 -1.8156
   75SLPC   O31 6691   1.197   2.496   6.699  0.1638 -0.3320  0.4768
   75SLPC   C31 6692   1.176   2.373   6.673 -0.0770  0.1507 -0.3983
   75SLPC   O32 6693   1.170   2.325   6.561 -0.9829  0.0840  0.4973
   75SLPC   C32 6694   1.172   2.291   6.803 -0.5304  0.4813  0.2202
   75SLPC   H2X 6695   1.086   2.223   6.791  1.3983 -1.4844 -3.1999
   75SLPC   H2Y 6696   1.158   2.362   6.887  1.1409  0.9253  0.1488
   75SLPC   C23 6697   1.210   2.938   6.939 -0.4618 -0.5687  0.0136
   75SLPC   H3R 6698   1.112   2.888   6.926 -0.2956 -0.3958 -1.9144
   75SLPC   H3S 6699   1.182   3.036   6.894  3.0737 -0.0019 -1.1077
   75SLPC   C24 6700   1.228   2.963   7.090 -0.0452 -0.7658  0.3781
   75SLPC   H4R 6701   1.315   3.029   7.109  0.2220 -0.4342 -1.8797
   75SLPC   H4S 6702   1.263   2.870   7.139  2.5832  0.7064  1.3918
   75SLPC   C25 6703   1.104   3.018   7.161 -0.5043 -0.6975  0.0440
   75SLPC   H5R 6704   1.018   2.949   7.148  0.4548 -2.1152  1.0814
   75SLPC   H5S 6705   1.072   3.112   7.110 -0.8372  0.2858  2.0168
   75SLPC   C26 6706   1.127   3.044   7.315  0.0150 -0.3446 -0.4014
   75SLPC   H6R 6707   1.210   3.115   7.337 -0.3266  0.0687 -0.4475
   75SLPC   H6S 6708   1.160   2.946   7.357  1.2016  0.1820 -0.0759
   75SLPC   C27 6709   1.002   3.116   7.368  0.2374 -0.2327  0.0710
   75SLPC   H7R 6710   0.907   3.073   7.330  0.3926 -0.2359 -0.3182
   75SLPC   H7S 6711   1.008   3.221   7.332 -0.4124  0.6689  2.4948
   75SLPC   C28 6712   0.995   3.111   7.523  0.1086 -0.1336 -0.4456
   75SLPC   H8R 6713   1.095   3.136   7.565  0.1217  1.3739 -1.3218
   75SLPC   H8S 6714   0.968   3.010   7.560  2.3894 -0.2319  1.0584
   75SLPC   C29 6715   0.901   3.225   7.566 -0.6617 -0.3366 -0.6754
   75SLPC   H9R 6716   0.904   3.319   7.508  1.1096 -0.3352 -0.6157
   75SLPC  C210 6717   0.822   3.220   7.667 -0.4847  0.3235  0.5942
   75SLPC  H10R 6718   0.763   3.310   7.691  0.9493  1.5618 -0.4504
   75SLPC  C211 6719   0.807   3.102   7.765 -0.2546  0.0820 -0.1859
   75SLPC  H11R 6720   0.817   3.139   7.869  2.5676  0.4029 -0.5326
   75SLPC  H11S 6721   0.890   3.028   7.763  0.7920  1.0817  3.0879
   75SLPC  C212 6722   0.679   3.026   7.726  0.0165 -0.6347 -0.0550
   75SLPC  H12R 6723   0.676   2.966   7.633 -0.2268  0.2196 -0.6065
   75SLPC  C213 6724   0.566   3.039   7.793  0.4920 -0.1507 -0.0660
   75SLPC  H13R 6725   0.480   2.973   7.774 -0.2522  0.4074  1.2421
   75SLPC  C214 6726   0.543   3.128   7.914  0.6566  0.2904  0.2678
   75SLPC  H14R 6727   0.615   3.211   7.920  1.5993 -0.2277 -2.8760
   75SLPC  H14S 6728   0.553   3.068   8.007 -1.1818  0.4047  0.5699
   75SLPC  C215 6729   0.394   3.189   7.898 -0.7156  0.4662 -0.3795
   75SLPC  H15R 6730   0.316   3.111   7.885  0.3509 -1.1283  2.4060
   75SLPC  H15S 6731   0.404   3.260   7.813  0.9485  1.6349  0.7355
   75SLPC  C216 6732   0.366   3.275   8.023 -0.5197 -0.3366 -0.4308
   75SLPC  H16R 6733   0.266   3.318   8.003 -1.4573 -3.0220 -1.7550
   75SLPC  H16S 6734   0.436   3.361   8.019  1.5563 -1.9881 -0.2882
   75SLPC  C217 6735   0.360   3.202   8.162  0.2851  0.3454  0.3260
   75SLPC  H17R 6736   0.455   3.158   8.198 -0.0875  1.0727  2.3001
   75SLPC  H17S 6737   0.285   3.121   8.158  0.0766  0.6099 -1.1900
   75SLPC  C218 6738   0.302   3.296   8.269 -0.8248  0.2793 -0.3925
   75SLPC  H18R 6739   0.347   3.395   8.291  2.4098 -0.8629 -1.4836
   75SLPC  H18S 6740   0.327   3.253   8.368 -0.8141 -0.1795 -0.5956
   75SLPC  H18T 6741   0.192   3.306   8.264 -1.0320  0.2279  3.3058
   75SLPC   C33 6742   1.305   2.212   6.818  0.1468 -0.1590 -0.3585
   75SLPC   H3X 6743   1.275   2.125   6.881  0.2706  0.4491  0.5386
   75SLPC   H3Y 6744   1.332   2.169   6.719 -0.2396 -0.8450 -0.1735
   75SLPC   C34 6745   1.428   2.281   6.882  0.5022 -0.1920 -0.0827
   75SLPC   H4X 6746   1.449   2.365   6.812 -2.0672  0.6515  0.1044
   75SLPC   H4Y 6747   1.512   2.208   6.875 -0.0077 -0.7431 -0.5581
   75SLPC   C35 6748   1.416   2.326   7.027  0.1838  0.2886 -0.3477
   75SLPC   H5X 6749   1.366   2.425   7.032 -0.3567  0.0584 -1.1054
   75SLPC   H5Y 6750   1.522   2.332   7.057  0.0881  0.3728 -0.0224
   75SLPC   C36 6751   1.363   2.224   7.130  0.2315  0.1045 -0.5928
   75SLPC   H6X 6752   1.405   2.122   7.116  0.6786  0.3517 -1.0913
   75SLPC   H6Y 6753   1.257   2.201   7.106  0.8473 -3.0114 -0.5106
   75SLPC   C37 6754   1.395   2.275   7.269  0.5241 -0.5094  0.1506
   75SLPC   H7X 6755   1.372   2.383   7.281  2.1272 -0.3891  2.6288
   75SLPC   H7Y 6756   1.506   2.277   7.275  0.6371  0.6576 -1.9783
   75SLPC   C38 6757   1.328   2.183   7.371 -0.2847  0.6197  0.1158
   75SLPC   H8X 6758   1.361   2.078   7.356  0.1179  0.6159  1.0113
   75SLPC   H8Y 6759   1.218   2.192   7.353 -0.0006  2.9096 -0.8017
   75SLPC   C39 6760   1.381   2.218   7.516  0.2379 -0.2854 -0.2415
   75SLPC   H9X 6761   1.359   2.322   7.551  0.9406 -0.1624 -0.1420
   75SLPC   H9Y 6762   1.491   2.201   7.520  0.7039  2.2776 -0.8943
   75SLPC  C310 6763   1.308   2.132   7.620 -0.7818 -0.1296  0.5039
   75SLPC  H10X 6764   1.342   2.028   7.602 -0.7434  0.2633 -1.8318
   75SLPC  H10Y 6765   1.198   2.138   7.608 -0.5544  0.8690 -1.2683
   75SLPC  C311 6766   1.347   2.133   7.769 -0.3235 -0.3962  0.1594
   75SLPC  H11X 6767   1.450   2.173   7.771  0.0200 -1.0636 -2.2853
   75SLPC  H11Y 6768   1.344   2.026   7.799 -0.2326 -1.0087 -1.9270
   75SLPC  C312 6769   1.250   2.211   7.850  0.0953  0.1540  0.3412
   75SLPC  H12X 6770   1.289   2.227   7.953 -0.1517 -3.8248  1.1459
   75SLPC  H12Y 6771   1.159   2.148   7.854 -0.2494  0.5220 -1.3434
   75SLPC  C313 6772   1.218   2.351   7.805 -0.2432 -0.2706 -0.8849
   75SLPC  H13X 6773   1.199   2.358   7.695 -2.1609 -0.0143 -0.5496
   75SLPC  H13Y 6774   1.311   2.408   7.824 -1.6134  1.0098  2.2482
   75SLPC  C314 6775   1.109   2.417   7.896 -0.6915  0.6165 -0.7804
   75SLPC  H14X 6776   1.015   2.419   7.837 -1.9792  1.6795  1.2439
   75SLPC  H14Y 6777   1.151   2.520   7.903 -1.5153  0.8705  0.6187
   75SLPC  C315 6778   1.080   2.377   8.039  0.0834 -0.3800  0.5362
   75SLPC  H15X 6779   1.172   2.378   8.102  0.8016  0.4541 -0.5129
   75SLPC  H15Y 6780   1.044   2.273   8.022 -0.1910 -0.4301  1.3885
   75SLPC  C316 6781   0.988   2.468   8.124 -0.4554 -0.1496  0.1583
   75SLPC  H16X 6782   0.963   2.426   8.224  2.1231 -1.6802  0.2210
   75SLPC  H16Y 6783   0.893   2.474   8.068  0.3836  2.8301 -1.0484
   75SLPC  C317 6784   1.040   2.610   8.148 -0.2179  0.1031 -0.2767
   75SLPC  H17X 6785   1.077   2.661   8.056 -0.1416 -0.2374 -0.4369
   75SLPC  H17Y 6786   1.132   2.608   8.209  0.9482  0.9035 -1.9685
   75SLPC  C318 6787   0.926   2.695   8.212  0.1196  0.7574 -0.0559
   75SLPC  H18X 6788   0.972   2.793   8.235  0.9990  0.1330  0.9146
   75SLPC  H18Y 6789   0.885   2.653   8.306  0.7406  0.3939  0.0567
   75SLPC  H18Z 6790   0.845   2.699   8.136  1.0527  0.5123 -1.0757
   76SLPC     N 6791   2.260   0.926   5.852  0.2575 -0.0543  0.4114
   76SLPC   C13 6792   2.363   1.033   5.887 -0.1751  0.2575  0.4827
   76SLPC  H13A 6793   2.357   1.052   5.993  0.5107 -0.5984  0.6899
   76SLPC  H13B 6794   2.465   1.004   5.865 -0.9703 -2.1073 -0.2807
   76SLPC  H13C 6795   2.339   1.121   5.831  0.8242 -0.8718 -1.8074
   76SLPC   C14 6796   2.308   0.868   5.727  0.3376 -0.2623 -0.0685
   76SLPC  H14A 6797   2.313   0.936   5.643  1.4426  0.1559  0.3183
   76SLPC  H14B 6798   2.406   0.823   5.736  0.6945  0.2138 -1.4580
   76SLPC  H14C 6799   2.243   0.793   5.687  0.1554 -0.8933  1.3668
   76SLPC   C15 6800   2.120   0.978   5.828  0.0393 -0.0165  0.3119
   76SLPC  H15A 6801   2.118   1.059   5.756  1.0623  0.9839  1.3964
   76SLPC  H15B 6802   2.062   0.902   5.777  2.5163  0.1440 -2.9152
   76SLPC  H15C 6803   2.073   1.017   5.917  0.3677  0.5783  0.2310
   76SLPC   C12 6804   2.252   0.819   5.961 -0.6994 -0.2950 -0.3961
   76SLPC  H12A 6805   2.351   0.776   5.971 -1.1195 -1.0889  0.3451
   76SLPC  H12B 6806   2.172   0.753   5.933  1.3315 -1.9408 -2.5689
   76SLPC   C11 6807   2.205   0.854   6.109 -0.1250 -0.5591  0.1857
   76SLPC  H11A 6808   2.173   0.762   6.162  2.5938 -0.7903  1.4661
   76SLPC  H11B 6809   2.107   0.907   6.102  0.6442  0.9407  0.5394
   76SLPC     P 6810   2.421   0.848   6.244  0.1442  0.5941  0.2839
   76SLPC   O13 6811   2.465   0.736   6.159 -0.3228  0.0587  0.2801
   76SLPC   O14 6812   2.525   0.952   6.277 -0.0787 -0.0572  0.3252
   76SLPC   O12 6813   2.296   0.932   6.186  0.4022  0.0425  0.1759
   76SLPC   O11 6814   2.364   0.794   6.379  0.2715  0.8580  0.1049
   76SLPC    C1 6815   2.317   0.889   6.479  0.0964  0.3723 -0.6129
   76SLPC    HA 6816   2.249   0.970   6.445 -0.0839 -0.1484 -1.4865
   76SLPC    HB 6817   2.263   0.835   6.560 -0.0072  2.3812  0.7155
   76SLPC    C2 6818   2.437   0.954   6.557 -0.2840  0.1199 -0.3203
   76SLPC    HS 6819   2.497   1.014   6.485  0.7059 -0.6074 -0.1090
   76SLPC   O21 6820   2.508   0.850   6.628  0.3785  0.0306  0.5133
   76SLPC   C21 6821   2.635   0.860   6.629 -0.0167 -0.5562 -0.5543
   76SLPC   O22 6822   2.698   0.962   6.603  0.2044 -0.1627 -0.2047
   76SLPC   C22 6823   2.689   0.740   6.692 -0.1567  0.0179  0.8513
   76SLPC   H2R 6824   2.647   0.719   6.792 -1.3492 -2.3862 -0.1111
   76SLPC   H2S 6825   2.646   0.658   6.630  0.3235 -0.3029  0.9465
   76SLPC    C3 6826   2.380   1.058   6.654 -0.6456  0.3183 -0.2179
   76SLPC    HX 6827   2.337   1.147   6.603 -0.3516  0.7573  0.2973
   76SLPC    HY 6828   2.462   1.100   6.716 -0.2209  0.5528 -0.9423
   76SLPC   O31 6829   2.270   1.006   6.739  0.4619 -0.2243 -0.3890
   76SLPC   C31 6830   2.311   0.987   6.864 -0.4768 -0.1202  0.7042
   76SLPC   O32 6831   2.417   1.016   6.912  0.3579  0.0209  0.2269
   76SLPC   C32 6832   2.187   0.942   6.946 -0.6195 -0.1095  0.4581
   76SLPC   H2X 6833   2.213   0.850   7.002 -1.1070 -0.0604  0.7685
   76SLPC   H2Y 6834   2.101   0.916   6.881 -2.0349  2.0942  1.3898
   76SLPC   C23 6835   2.837   0.738   6.701  0.6754 -0.6355 -0.0187
   76SLPC   H3R 6836   2.863   0.823   6.768  1.1470  0.2112 -1.2608
   76SLPC   H3S 6837   2.881   0.750   6.600  2.3081 -1.6668  0.5439
   76SLPC   C24 6838   2.886   0.599   6.766 -0.3545 -0.4747 -0.0856
   76SLPC   H4R 6839   2.874   0.513   6.696  1.0672 -1.9624  1.4548
   76SLPC   H4S 6840   2.822   0.569   6.852  0.7374 -1.1761  0.4929
   76SLPC   C25 6841   3.032   0.612   6.811 -0.1397 -0.0908  0.0477
   76SLPC   H5R 6842   3.042   0.715   6.851  0.5371  0.3462 -1.2027
   76SLPC   H5S 6843   3.109   0.608   6.730 -0.1563  0.3232  0.0111
   76SLPC   C26 6844   3.063   0.506   6.917 -0.0904  0.4271 -0.8280
   76SLPC   H6R 6845   3.023   0.406   6.893 -0.0926 -0.3722  2.2120
   76SLPC   H6S 6846   3.000   0.527   7.006  1.2205  2.1838 -0.2755
   76SLPC   C27 6847   3.210   0.516   6.959  0.1164  0.1993  0.1509
   76SLPC   H7R 6848   3.238   0.619   6.986  0.3228  0.0334  0.5643
   76SLPC   H7S 6849   3.279   0.484   6.877  0.2317  1.8822 -0.4250
   76SLPC   C28 6850   3.242   0.423   7.073 -0.1339  0.4741  0.0264
   76SLPC   H8R 6851   3.236   0.314   7.051 -1.5251  0.1576  1.8334
   76SLPC   H8S 6852   3.349   0.451   7.086  0.1116 -0.7943  0.8388
   76SLPC   C29 6853   3.159   0.459   7.191 -0.2094 -0.1697 -0.1961
   76SLPC   H9R 6854   3.162   0.565   7.220 -1.1609 -0.3226  0.4767
   76SLPC  C210 6855   3.086   0.380   7.268  0.8854 -0.1219  0.3088
   76SLPC  H10R 6856   3.015   0.428   7.337 -1.8155 -0.6769 -1.9970
   76SLPC  C211 6857   3.081   0.233   7.249 -0.5028  0.6108 -0.2911
   76SLPC  H11R 6858   3.117   0.193   7.152 -0.1182 -0.5129  0.3143
   76SLPC  H11S 6859   2.974   0.203   7.255 -0.6114  1.2301  1.1931
   76SLPC  C212 6860   3.153   0.161   7.358  0.7329  0.0941  0.7742
   76SLPC  H12R 6861   3.262   0.165   7.351  0.6973  0.9800  0.6686
   76SLPC  C213 6862   3.106   0.084   7.454 -0.5455  1.4121 -0.2826
   76SLPC  H13R 6863   3.179   0.037   7.522 -0.0543  0.3444 -1.5321
   76SLPC  C214 6864   2.966   0.054   7.489  0.3259  0.2074  0.1174
   76SLPC  H14R 6865   2.935  -0.050   7.467  2.5832 -0.9022  1.8581
   76SLPC  H14S 6866   2.899   0.122   7.433  2.0502  1.3663 -0.5888
   76SLPC  C215 6867   2.935   0.069   7.632  0.3098 -0.3029 -0.6739
   76SLPC  H15R 6868   2.959   0.171   7.667  0.1967  0.3639 -2.4912
   76SLPC  H15S 6869   2.987  -0.008   7.693 -0.0919  1.0101  1.3585
   76SLPC  C216 6870   2.779   0.061   7.660  0.2814 -0.8107  0.3126
   76SLPC  H16R 6871   2.737  -0.030   7.611 -2.5241  1.4562 -1.6284
   76SLPC  H16S 6872   2.723   0.155   7.643  2.5814  0.7293  0.9246
   76SLPC  C217 6873   2.749   0.036   7.809  0.0959  0.2648  0.0977
   76SLPC  H17R 6874   2.783   0.117   7.876 -0.5954  0.2451  0.4832
   76SLPC  H17S 6875   2.798  -0.062   7.829 -0.4766 -0.2544 -0.9885
   76SLPC  C218 6876   2.598   0.013   7.835  0.4709  0.0383 -0.0496
   76SLPC  H18R 6877   2.563  -0.062   7.760 -0.4064 -1.4546  1.8164
   76SLPC  H18S 6878   2.546   0.111   7.825  0.5828  0.1803  0.7271
   76SLPC  H18T 6879   2.594  -0.024   7.939 -1.4450 -4.2609 -1.5187
   76SLPC   C33 6880   2.140   1.046   7.047  0.0498 -0.6483 -0.4934
   76SLPC   H3X 6881   2.060   1.089   6.983  1.3023 -1.9074 -2.9639
   76SLPC   H3Y 6882   2.213   1.128   7.067 -1.6043  0.8845 -0.5000
   76SLPC   C34 6883   2.066   1.008   7.174  0.9339  0.0914  0.3096
   76SLPC   H4X 6884   1.979   0.944   7.149 -0.6965  2.5037 -0.3231
   76SLPC   H4Y 6885   2.037   1.098   7.232  1.8169  1.3397 -1.1505
   76SLPC   C35 6886   2.152   0.918   7.268 -0.5200 -0.3519  0.3087
   76SLPC   H5X 6887   2.179   0.824   7.215  0.0596  0.3870 -0.7149
   76SLPC   H5Y 6888   2.073   0.900   7.344 -1.4691  3.1469  0.2525
   76SLPC   C36 6889   2.265   0.993   7.336 -0.1716 -0.1202  0.1700
   76SLPC   H6X 6890   2.229   1.095   7.362  1.6967  0.4306  0.7000
   76SLPC   H6Y 6891   2.352   0.992   7.267  0.3151 -0.4490  0.7791
   76SLPC   C37 6892   2.302   0.921   7.474  0.7631  0.6855 -0.0910
   76SLPC   H7X 6893   2.339   0.817   7.468 -0.8814 -0.1290  3.0202
   76SLPC   H7Y 6894   2.207   0.928   7.532 -0.8152  2.0490 -2.7290
   76SLPC   C38 6895   2.407   1.005   7.550  0.2721  0.0499 -0.6662
   76SLPC   H8X 6896   2.385   0.996   7.659  0.7525 -2.2187 -0.7321
   76SLPC   H8Y 6897   2.387   1.112   7.532 -2.1679 -0.2043  0.2992
   76SLPC   C39 6898   2.553   0.950   7.520  0.0824 -1.1977 -0.1543
   76SLPC   H9X 6899   2.569   0.950   7.410 -0.4971 -1.2662 -0.2422
   76SLPC   H9Y 6900   2.555   0.847   7.560  0.4850 -1.3802 -0.6308
   76SLPC  C310 6901   2.665   1.038   7.580  0.3063  0.3269 -0.7331
   76SLPC  H10X 6902   2.754   0.971   7.569  1.1852  1.1784  0.9413
   76SLPC  H10Y 6903   2.645   1.051   7.689  0.5307  0.6677 -0.7333
   76SLPC  C311 6904   2.681   1.173   7.517  0.1792  0.2789  0.2414
   76SLPC  H11X 6905   2.732   1.240   7.590 -0.7518 -1.8447  2.9595
   76SLPC  H11Y 6906   2.582   1.223   7.513 -1.0436 -1.6626  3.3603
   76SLPC  C312 6907   2.740   1.169   7.376 -0.0896 -0.4172  0.1185
   76SLPC  H12X 6908   2.664   1.114   7.318 -0.3416 -1.4871  1.4295
   76SLPC  H12Y 6909   2.835   1.113   7.391  1.5447  2.7070  1.7890
   76SLPC  C313 6910   2.782   1.302   7.318  0.4667  0.0238 -0.1703
   76SLPC  H13X 6911   2.861   1.350   7.380 -1.2931  0.6901  1.5807
   76SLPC  H13Y 6912   2.689   1.357   7.295  0.7902  0.1328 -1.2161
   76SLPC  C314 6913   2.849   1.283   7.176  0.0857 -0.6344 -0.7552
   76SLPC  H14X 6914   2.837   1.380   7.123  0.7774  1.1858  2.3469
   76SLPC  H14Y 6915   2.784   1.208   7.125 -1.3295 -0.2628  0.4570
   76SLPC  C315 6916   2.992   1.229   7.164 -0.7832  0.9076  0.9529
   76SLPC  H15X 6917   2.999   1.135   7.222  0.4030  1.1073  1.1385
   76SLPC  H15Y 6918   3.071   1.297   7.203 -0.1242  0.6503  0.0864
   76SLPC  C316 6919   3.027   1.181   7.019 -0.0637  0.2202 -0.5260
   76SLPC  H16X 6920   3.043   1.269   6.953  0.9671  0.2245 -0.2653
   76SLPC  H16Y 6921   2.936   1.133   6.976  0.6807 -1.5460 -0.1717
   76SLPC  C317 6922   3.126   1.072   7.011  0.0166 -0.6091  0.1595
   76SLPC  H17X 6923   3.103   0.980   7.068 -1.8777  0.6477  1.4864
   76SLPC  H17Y 6924   3.226   1.109   7.044  0.3039 -0.3701 -0.9835
   76SLPC  C318 6925   3.138   1.036   6.864  0.0915  0.2558 -1.0341
   76SLPC  H18X 6926   3.205   0.949   6.847  0.1188 -0.5389  2.7379
   76SLPC  H18Y 6927   3.186   1.118   6.807 -0.0035  0.7379 -0.4147
   76SLPC  H18Z 6928   3.040   1.018   6.813 -1.0423 -0.1334  1.2152
   77SLPC     N 6929   6.003   1.599   5.912 -0.6926 -0.5958 -0.2865
   77SLPC   C13 6930   6.066   1.652   6.045  0.7826  0.5743 -0.1842
   77SLPC  H13A 6931   6.173   1.662   6.035  0.8462  1.4804  1.2729
   77SLPC  H13B 6932   6.015   1.742   6.072  0.9064  0.3627  0.7626
   77SLPC  H13C 6933   6.052   1.579   6.124  1.2742  0.6776 -0.0015
   77SLPC   C14 6934   6.013   1.709   5.811  0.7743  0.4459 -0.5434
   77SLPC  H14A 6935   5.997   1.665   5.714 -0.4001  2.6574 -1.3981
   77SLPC  H14B 6936   5.941   1.787   5.831 -0.8586 -0.9349 -0.9326
   77SLPC  H14C 6937   6.112   1.754   5.813  1.4781 -1.1338  1.2197
   77SLPC   C15 6938   5.857   1.591   5.932  0.5005  0.6694 -0.0525
   77SLPC  H15A 6939   5.824   1.550   5.837 -0.9044  0.8152  0.3610
   77SLPC  H15B 6940   5.825   1.531   6.015 -2.3257  1.1591 -0.7381
   77SLPC  H15C 6941   5.804   1.685   5.932  0.0308  0.4091 -0.0444
   77SLPC   C12 6942   6.062   1.467   5.872 -0.7294 -0.3095  0.8294
   77SLPC  H12A 6943   6.169   1.482   5.877 -0.9885  1.5494  0.9311
   77SLPC  H12B 6944   6.053   1.456   5.765 -0.0218  0.6730  0.6634
   77SLPC   C11 6945   6.043   1.340   5.954 -0.5807  0.6100  0.2630
   77SLPC  H11A 6946   6.087   1.254   5.898 -0.7457  1.5058 -1.2457
   77SLPC  H11B 6947   5.936   1.311   5.961  0.2672 -2.7458  0.3829
   77SLPC     P 6948   6.232   1.315   6.124 -0.3560  0.1070  0.0712
   77SLPC   O13 6949   6.229   1.164   6.139  0.6173 -0.1952  0.3765
   77SLPC   O14 6950   6.330   1.362   6.021  0.2898  0.0605  1.3507
   77SLPC   O12 6951   6.090   1.362   6.088 -0.3924  0.9630 -0.2883
   77SLPC   O11 6952   6.275   1.384   6.259  0.1771 -0.0638  0.1749
   77SLPC    C1 6953   6.185   1.400   6.362  0.3631 -0.3434 -0.0920
   77SLPC    HA 6954   6.233   1.460   6.442 -0.2077  0.8611 -0.6482
   77SLPC    HB 6955   6.091   1.450   6.332  0.9376  0.7844 -0.0260
   77SLPC    C2 6956   6.156   1.265   6.434  0.0720 -0.6270  0.0517
   77SLPC    HS 6957   6.110   1.193   6.363 -0.8771 -1.1603  1.1925
   77SLPC   O21 6958   6.068   1.290   6.542  0.2842  0.0955 -0.3852
   77SLPC   C21 6959   6.045   1.190   6.620  0.8007 -0.2768 -0.9045
   77SLPC   O22 6960   6.045   1.071   6.588  0.1244 -0.7466  0.6672
   77SLPC   C22 6961   6.018   1.237   6.758 -0.3146 -0.2334 -0.1727
   77SLPC   H2R 6962   6.113   1.223   6.815  0.2480 -1.9231 -1.4717
   77SLPC   H2S 6963   5.992   1.344   6.744  0.9510  0.2333  0.9477
   77SLPC    C3 6964   6.288   1.201   6.494  0.1372  0.4287  0.1049
   77SLPC    HX 6965   6.362   1.214   6.412 -0.8698 -0.7236 -1.0095
   77SLPC    HY 6966   6.263   1.093   6.503 -1.2594  0.8563  1.6044
   77SLPC   O31 6967   6.325   1.274   6.616 -0.1448 -0.5388  0.9861
   77SLPC   C31 6968   6.457   1.273   6.641 -0.6707  0.7267 -0.1243
   77SLPC   O32 6969   6.540   1.238   6.561 -0.4089  0.5379 -0.0669
   77SLPC   C32 6970   6.490   1.329   6.780  0.1503  0.1909  0.5273
   77SLPC   H2X 6971   6.458   1.435   6.788 -1.3845 -0.2473  0.3386
   77SLPC   H2Y 6972   6.601   1.322   6.779  0.1038 -0.5792 -1.5489
   77SLPC   C23 6973   5.899   1.170   6.840 -0.3947 -0.3239 -0.0406
   77SLPC   H3R 6974   5.918   1.066   6.876 -2.0536 -0.2787  1.0456
   77SLPC   H3S 6975   5.809   1.162   6.775  0.6410 -1.6692 -1.3539
   77SLPC   C24 6976   5.850   1.243   6.975  0.0772 -0.2174  0.2905
   77SLPC   H4R 6977   5.835   1.348   6.942  3.7447 -0.5166 -2.6795
   77SLPC   H4S 6978   5.935   1.256   7.045  0.8341  0.6735 -0.7680
   77SLPC   C25 6979   5.729   1.180   7.051  0.6885 -0.2384 -0.9017
   77SLPC   H5R 6980   5.763   1.088   7.104 -3.0618 -2.6790 -2.5293
   77SLPC   H5S 6981   5.654   1.146   6.977  0.8650  0.3820 -1.3745
   77SLPC   C26 6982   5.679   1.281   7.156 -0.7059 -0.4474 -0.3663
   77SLPC   H6R 6983   5.597   1.236   7.217 -0.7859  0.7026  0.3922
   77SLPC   H6S 6984   5.644   1.373   7.104  0.2921 -1.2131 -2.4224
   77SLPC   C27 6985   5.793   1.316   7.267  0.3695  0.2247  0.0259
   77SLPC   H7R 6986   5.858   1.395   7.224  0.6878 -0.0640 -0.0280
   77SLPC   H7S 6987   5.862   1.231   7.285  1.5843  1.0576 -0.5895
   77SLPC   C28 6988   5.739   1.375   7.390  0.1892 -0.8059 -0.5321
   77SLPC   H8R 6989   5.667   1.453   7.358  1.6806  1.4672  1.5739
   77SLPC   H8S 6990   5.820   1.429   7.442 -0.4396 -0.3273 -0.0528
   77SLPC   C29 6991   5.668   1.272   7.471  0.4878  0.8427  0.2038
   77SLPC   H9R 6992   5.612   1.194   7.416 -1.7977  1.8166  1.1025
   77SLPC  C210 6993   5.665   1.270   7.605 -0.0045 -0.2131  0.5222
   77SLPC  H10R 6994   5.615   1.182   7.646 -1.3624  0.1756 -0.2627
   77SLPC  C211 6995   5.731   1.361   7.710 -0.0806 -0.2522  0.1736
   77SLPC  H11R 6996   5.743   1.468   7.685  0.4595 -0.3499 -0.0183
   77SLPC  H11S 6997   5.835   1.323   7.721  0.0673  0.2120  0.3765
   77SLPC  C212 6998   5.660   1.354   7.845 -0.7424 -0.3531  0.9771
   77SLPC  H12R 6999   5.574   1.285   7.849 -0.7447 -0.4568 -0.7516
   77SLPC  C213 7000   5.705   1.405   7.961 -0.3908  0.0780 -0.0774
   77SLPC  H13R 7001   5.655   1.379   8.056 -0.2563  1.8371  0.5022
   77SLPC  C214 7002   5.830   1.482   7.976  0.1040  0.1291  0.1015
   77SLPC  H14R 7003   5.841   1.566   7.904 -1.2368 -1.0094 -1.4682
   77SLPC  H14S 7004   5.917   1.414   7.963 -1.3334 -1.6412 -0.4069
   77SLPC  C215 7005   5.853   1.555   8.108 -0.1563 -0.1675 -0.3591
   77SLPC  H15R 7006   5.841   1.493   8.199 -1.1750  0.0158 -0.3680
   77SLPC  H15S 7007   5.772   1.629   8.123 -1.3415 -0.5350 -4.3927
   77SLPC  C216 7008   5.987   1.629   8.118 -0.1094 -0.5425 -0.3903
   77SLPC  H16R 7009   5.996   1.718   8.053  0.5542 -1.5414 -1.6881
   77SLPC  H16S 7010   6.065   1.562   8.076 -0.4504  0.6331 -2.9592
   77SLPC  C217 7011   6.000   1.685   8.254 -0.3729 -0.1899 -0.5340
   77SLPC  H17R 7012   5.961   1.612   8.329  0.7337 -0.5500 -0.2930
   77SLPC  H17S 7013   5.936   1.776   8.256  0.6206  0.5334 -1.0164
   77SLPC  C218 7014   6.140   1.731   8.292  0.2199  0.1188  0.7456
   77SLPC  H18R 7015   6.209   1.749   8.206 -1.0386  0.4054 -0.2240
   77SLPC  H18S 7016   6.192   1.652   8.350  0.2791 -1.3332 -1.2116
   77SLPC  H18T 7017   6.129   1.821   8.357 -0.5439 -0.7402  1.8185
   77SLPC   C33 7018   6.424   1.242   6.884 -0.4391  0.4414  0.4388
   77SLPC   H3X 7019   6.461   1.138   6.878  2.1264  1.3645 -0.4579
   77SLPC   H3Y 7020   6.316   1.228   6.861 -0.3620  2.7958 -1.5601
   77SLPC   C34 7021   6.446   1.297   7.022  0.5162 -0.0795 -0.0438
   77SLPC   H4X 7022   6.437   1.408   7.021 -3.1694 -0.2954  0.0967
   77SLPC   H4Y 7023   6.545   1.273   7.066 -0.1663 -0.6525  1.2112
   77SLPC   C35 7024   6.333   1.256   7.121 -0.2370  0.3856 -0.1685
   77SLPC   H5X 7025   6.327   1.146   7.116 -0.7636  0.5005 -3.1729
   77SLPC   H5Y 7026   6.232   1.295   7.095 -0.6091 -0.8002 -0.5339
   77SLPC   C36 7027   6.353   1.300   7.266 -0.3751 -0.5694  0.6736
   77SLPC   H6X 7028   6.379   1.408   7.277 -1.3676 -0.4119  1.5942
   77SLPC   H6Y 7029   6.439   1.244   7.308  1.0675  0.8815 -0.2848
   77SLPC   C37 7030   6.229   1.269   7.346 -0.1132  0.1268  0.0031
   77SLPC   H7X 7031   6.238   1.160   7.360 -0.2609  0.2296  0.9346
   77SLPC   H7Y 7032   6.129   1.290   7.303 -0.9210 -1.2273  1.1625
   77SLPC   C38 7033   6.259   1.321   7.485 -0.0090 -0.1004 -0.4863
   77SLPC   H8X 7034   6.352   1.383   7.483 -0.1118  0.0124 -4.2471
   77SLPC   H8Y 7035   6.279   1.239   7.557 -3.0151 -0.2926  0.1746
   77SLPC   C39 7036   6.148   1.411   7.540 -0.4480  0.2536  0.1448
   77SLPC   H9X 7037   6.068   1.345   7.580  0.8379 -0.4739  1.6109
   77SLPC   H9Y 7038   6.115   1.465   7.449 -0.4789  1.2590  0.7405
   77SLPC  C310 7039   6.196   1.518   7.633 -0.2410 -0.2908 -0.0183
   77SLPC  H10X 7040   6.266   1.584   7.577 -0.4007  0.8103  1.0479
   77SLPC  H10Y 7041   6.249   1.480   7.723  0.6343  1.3016  0.1530
   77SLPC  C311 7042   6.069   1.607   7.688  0.2886  0.1938  0.4637
   77SLPC  H11X 7043   5.982   1.546   7.720  0.3522 -0.1842 -0.0607
   77SLPC  H11Y 7044   6.036   1.660   7.596  4.0703  1.7414 -0.1057
   77SLPC  C312 7045   6.106   1.718   7.792 -0.4509  0.2484 -0.5806
   77SLPC  H12X 7046   6.193   1.775   7.751 -0.3017  0.9716  0.7230
   77SLPC  H12Y 7047   6.133   1.679   7.892 -2.2218 -1.3613 -0.7212
   77SLPC  C313 7048   5.986   1.819   7.794 -0.9488 -0.0310  0.6774
   77SLPC  H13X 7049   5.897   1.759   7.823  0.2864 -2.2779 -0.0585
   77SLPC  H13Y 7050   5.978   1.854   7.689 -1.6276  1.1600  1.1092
   77SLPC  C314 7051   5.993   1.932   7.896 -0.3192  0.7524 -0.4899
   77SLPC  H14X 7052   6.038   1.909   7.995 -0.5900 -2.6014 -1.0804
   77SLPC  H14Y 7053   5.888   1.960   7.920 -0.2687 -0.9061  1.8606
   77SLPC  C315 7054   6.071   2.055   7.843 -0.4106 -0.0760  0.0949
   77SLPC  H15X 7055   6.047   2.060   7.735  1.8945  0.5982 -0.4202
   77SLPC  H15Y 7056   6.182   2.043   7.842 -0.3574  0.4714 -0.6275
   77SLPC  C316 7057   6.028   2.171   7.932 -0.1440 -0.2907  0.3420
   77SLPC  H16X 7058   5.917   2.176   7.935 -0.2603 -0.6181 -2.3017
   77SLPC  H16Y 7059   6.062   2.264   7.883  0.2028  0.2954  1.6773
   77SLPC  C317 7060   6.079   2.173   8.080  0.0052  0.4309 -0.5037
   77SLPC  H17X 7061   6.188   2.153   8.086 -0.9233 -4.8240  1.8929
   77SLPC  H17Y 7062   6.036   2.089   8.138 -0.9733  1.6806  0.6278
   77SLPC  C318 7063   6.033   2.300   8.150  0.7228  0.6080 -0.2039
   77SLPC  H18X 7064   5.923   2.315   8.144  0.8530  0.8303 -2.4358
   77SLPC  H18Y 7065   6.081   2.386   8.098 -1.5318  2.5378  0.8442
   77SLPC  H18Z 7066   6.062   2.295   8.257  1.4618  1.6249 -0.3503
   78SLPC     N 7067   1.729   0.789   6.257 -0.1450  0.2194 -0.3450
   78SLPC   C13 7068   1.631   0.710   6.198 -0.0951 -0.2722 -0.6675
   78SLPC  H13A 7069   1.634   0.615   6.250 -2.2907 -0.5386 -0.9793
   78SLPC  H13B 7070   1.530   0.740   6.221  1.0752  1.9208  1.8208
   78SLPC  H13C 7071   1.647   0.693   6.092 -0.9354  1.6445 -1.1252
   78SLPC   C14 7072   1.727   0.926   6.193 -0.1497  0.3448 -0.2016
   78SLPC  H14A 7073   1.816   0.983   6.217  0.2247 -0.5382  0.5293
   78SLPC  H14B 7074   1.729   0.914   6.086 -1.4647 -0.3724 -0.1588
   78SLPC  H14C 7075   1.634   0.978   6.212 -0.4000 -0.0411 -0.3641
   78SLPC   C15 7076   1.865   0.725   6.242  0.4015 -0.1158  0.4569
   78SLPC  H15A 7077   1.941   0.791   6.281  0.1338 -0.3881  1.4411
   78SLPC  H15B 7078   1.865   0.623   6.278  2.9232  0.4330  2.1523
   78SLPC  H15C 7079   1.878   0.729   6.135 -1.7259  3.5830  0.2437
   78SLPC   C12 7080   1.700   0.800   6.409  0.8689 -0.1179 -0.2146
   78SLPC  H12A 7081   1.787   0.846   6.455  0.7398 -0.7137  0.6388
   78SLPC  H12B 7082   1.691   0.695   6.433 -3.0830  0.4022  0.9572
   78SLPC   C11 7083   1.567   0.864   6.456  0.1975 -0.4915 -0.0901
   78SLPC  H11A 7084   1.541   0.950   6.390 -0.0356 -1.2966 -1.0642
   78SLPC  H11B 7085   1.572   0.898   6.561 -2.8460 -1.2239  0.3512
   78SLPC     P 7086   1.437   0.639   6.533  0.2283  0.1390  0.2704
   78SLPC   O13 7087   1.299   0.590   6.517  0.0088 -0.4280 -0.1239
   78SLPC   O14 7088   1.544   0.537   6.491  0.2076 -0.1542  0.4775
   78SLPC   O12 7089   1.465   0.764   6.442 -0.2896 -0.1222  0.1326
   78SLPC   O11 7090   1.468   0.694   6.674  0.1261 -0.0032  0.2233
   78SLPC    C1 7091   1.431   0.632   6.794  0.3055 -1.3879  0.2341
   78SLPC    HA 7092   1.432   0.521   6.791  1.3948 -1.3667 -0.4421
   78SLPC    HB 7093   1.497   0.660   6.878 -0.1536  1.5994 -0.3258
   78SLPC    C2 7094   1.290   0.677   6.845  0.2132 -0.2073  0.6289
   78SLPC    HS 7095   1.250   0.739   6.762 -0.4572  0.4733  1.4478
   78SLPC   O21 7096   1.310   0.757   6.967  0.4698 -0.3844 -0.5615
   78SLPC   C21 7097   1.223   0.855   6.991 -0.6413 -0.1179  0.1056
   78SLPC   O22 7098   1.143   0.902   6.913 -0.8255 -0.9069 -0.8199
   78SLPC   C22 7099   1.263   0.925   7.122 -0.0130  0.4315  0.6140
   78SLPC   H2R 7100   1.368   0.956   7.108  0.6789 -2.1014  0.1088
   78SLPC   H2S 7101   1.207   1.021   7.126 -2.4005 -0.7002 -3.0308
   78SLPC    C3 7102   1.206   0.546   6.866 -0.2552  0.1162  0.3545
   78SLPC    HX 7103   1.209   0.490   6.770 -0.4089 -0.8802  0.9251
   78SLPC    HY 7104   1.098   0.568   6.879  0.0488  1.4650  0.6783
   78SLPC   O31 7105   1.259   0.469   6.983  0.5733 -0.4961  0.1769
   78SLPC   C31 7106   1.196   0.481   7.099  0.2999  0.3661  0.2691
   78SLPC   O32 7107   1.126   0.578   7.132  0.0143 -0.3572  0.7814
   78SLPC   C32 7108   1.218   0.359   7.182 -0.4443 -0.3383 -0.5553
   78SLPC   H2X 7109   1.326   0.352   7.211 -0.4475  1.0619 -0.1791
   78SLPC   H2Y 7110   1.197   0.274   7.114  0.6971 -1.0957  0.0173
   78SLPC   C23 7111   1.257   0.845   7.249  0.0838 -0.9103 -0.6730
   78SLPC   H3R 7112   1.339   0.771   7.240  2.8795  2.0908 -0.6699
   78SLPC   H3S 7113   1.162   0.790   7.263  0.1061 -0.5840  0.8114
   78SLPC   C24 7114   1.299   0.935   7.369 -0.6796  0.3106 -0.2148
   78SLPC   H4R 7115   1.229   1.021   7.372 -0.8991  0.1589 -0.8949
   78SLPC   H4S 7116   1.405   0.961   7.349 -0.0971 -1.8585 -0.1242
   78SLPC   C25 7117   1.284   0.853   7.498  0.0319  0.1915  0.2152
   78SLPC   H5R 7118   1.313   0.747   7.480 -1.2985 -0.6940  2.9692
   78SLPC   H5S 7119   1.174   0.853   7.515 -0.4900  1.1971 -2.9705
   78SLPC   C26 7120   1.352   0.908   7.628  0.1950  0.1132  0.0788
   78SLPC   H6R 7121   1.298   0.996   7.668  0.5163  0.2977  0.1120
   78SLPC   H6S 7122   1.456   0.944   7.611  0.0436  0.3997 -0.2503
   78SLPC   C27 7123   1.356   0.801   7.738 -0.0723 -0.1977  0.1060
   78SLPC   H7R 7124   1.384   0.848   7.835 -0.5142  1.9265 -0.7640
   78SLPC   H7S 7125   1.438   0.727   7.721  0.1112 -0.4740  2.0815
   78SLPC   C28 7126   1.235   0.714   7.761  1.2700  0.2709  0.2369
   78SLPC   H8R 7127   1.283   0.641   7.829  2.4762 -0.8950 -1.8156
   78SLPC   H8S 7128   1.207   0.654   7.672  0.6832  1.0356 -0.1054
   78SLPC   C29 7129   1.112   0.789   7.817  0.0837 -0.6340 -0.0736
   78SLPC   H9R 7130   1.137   0.859   7.898  1.2198 -0.0974 -0.8729
   78SLPC  C210 7131   0.979   0.769   7.789  0.3886 -0.5383 -0.2676
   78SLPC  H10R 7132   0.907   0.838   7.836  0.8809 -0.6510  0.6813
   78SLPC  C211 7133   0.913   0.673   7.707 -0.1165 -0.6878  0.0623
   78SLPC  H11R 7134   0.947   0.669   7.601  1.2241  1.1300  0.3935
   78SLPC  H11S 7135   0.805   0.695   7.706  0.1684  0.8260  1.5595
   78SLPC  C212 7136   0.909   0.537   7.777 -0.4342 -0.4194  0.3521
   78SLPC  H12R 7137   0.952   0.460   7.712 -2.0869 -1.0407 -0.0268
   78SLPC  C213 7138   0.848   0.501   7.891 -0.2126 -0.0060 -0.1214
   78SLPC  H13R 7139   0.864   0.402   7.937  0.6006  0.2058  0.0463
   78SLPC  C214 7140   0.770   0.612   7.967  0.3689 -0.0907 -0.3289
   78SLPC  H14R 7141   0.691   0.671   7.916  1.0064  0.0533 -1.1567
   78SLPC  H14S 7142   0.836   0.699   7.984 -0.3199  0.6497 -1.4574
   78SLPC  C215 7143   0.710   0.560   8.099  1.2508 -0.6206 -0.5281
   78SLPC  H15R 7144   0.791   0.508   8.155 -0.6213 -2.4191  0.5835
   78SLPC  H15S 7145   0.626   0.490   8.078  1.6061 -0.8269 -1.2668
   78SLPC  C216 7146   0.651   0.672   8.190  0.3214  0.3053 -0.2898
   78SLPC  H16R 7147   0.548   0.688   8.153  0.2295  0.0492 -0.1461
   78SLPC  H16S 7148   0.720   0.757   8.173  1.1443 -0.3346 -0.1782
   78SLPC  C217 7149   0.646   0.626   8.335 -0.6100  1.0179 -0.1379
   78SLPC  H17R 7150   0.749   0.596   8.365 -0.5089  1.1267 -0.3737
   78SLPC  H17S 7151   0.576   0.541   8.348  1.4340 -1.1116 -2.5475
   78SLPC  C218 7152   0.596   0.728   8.433 -0.0040 -0.8792 -0.2060
   78SLPC  H18R 7153   0.659   0.818   8.421 -0.8915 -0.4483 -1.7012
   78SLPC  H18S 7154   0.615   0.686   8.534 -0.5457  0.3108  0.3956
   78SLPC  H18T 7155   0.488   0.744   8.413 -0.1150  1.6843  2.1567
   78SLPC   C33 7156   1.137   0.353   7.307 -0.2233  0.1106  0.4841
   78SLPC   H3X 7157   1.030   0.361   7.279  0.0297  0.2172 -0.4432
   78SLPC   H3Y 7158   1.146   0.443   7.371 -1.2259  1.4811 -1.2599
   78SLPC   C34 7159   1.155   0.228   7.392 -0.7480  0.6084  0.2243
   78SLPC   H4X 7160   1.116   0.142   7.333 -2.9814  2.3619 -0.9141
   78SLPC   H4Y 7161   1.091   0.243   7.482 -2.7922 -0.7136 -0.9702
   78SLPC   C35 7162   1.297   0.209   7.446 -0.2855  0.1789  0.4831
   78SLPC   H5X 7163   1.380   0.217   7.373  0.7547 -0.2541  1.6034
   78SLPC   H5Y 7164   1.322   0.115   7.500  0.1480  0.4842  0.8116
   78SLPC   C36 7165   1.335   0.308   7.561 -0.1678  1.1171  0.1676
   78SLPC   H6X 7166   1.264   0.297   7.645  1.2142  1.7359  1.4375
   78SLPC   H6Y 7167   1.333   0.412   7.521 -0.7812  0.6002 -1.1840
   78SLPC   C37 7168   1.472   0.276   7.614  0.9888  0.3715  0.6802
   78SLPC   H7X 7169   1.546   0.239   7.540  0.1167  2.8779 -1.5085
   78SLPC   H7Y 7170   1.465   0.195   7.690  3.5921  0.3307  0.9048
   78SLPC   C38 7171   1.539   0.400   7.666 -0.1763  0.1842 -0.2022
   78SLPC   H8X 7172   1.477   0.452   7.742  1.5850  1.7299  0.2281
   78SLPC   H8Y 7173   1.547   0.470   7.581  2.0182 -0.2067 -0.3421
   78SLPC   C39 7174   1.682   0.378   7.716 -0.5970  0.5151 -0.0199
   78SLPC   H9X 7175   1.716   0.477   7.754  3.5556 -1.2536  1.0866
   78SLPC   H9Y 7176   1.749   0.340   7.637 -0.5645  0.8317 -0.1456
   78SLPC  C310 7177   1.693   0.276   7.835 -0.0786 -0.9314  0.0485
   78SLPC  H10X 7178   1.797   0.279   7.872 -0.3070  2.5615  0.5286
   78SLPC  H10Y 7179   1.661   0.178   7.792  0.7826 -1.8883  1.5472
   78SLPC  C311 7180   1.603   0.298   7.950  0.3034  0.5654 -0.5813
   78SLPC  H11X 7181   1.618   0.207   8.012 -2.7748 -1.4465 -2.6148
   78SLPC  H11Y 7182   1.497   0.305   7.915  0.8766  2.6984 -1.9686
   78SLPC  C312 7183   1.628   0.432   8.027 -0.9689 -0.2336 -0.0673
   78SLPC  H12X 7184   1.615   0.524   7.967 -3.5705 -0.8161 -0.4874
   78SLPC  H12Y 7185   1.735   0.425   8.053 -1.3059  0.2695  1.5157
   78SLPC  C313 7186   1.544   0.447   8.161 -0.3510 -0.3020  0.1076
   78SLPC  H13X 7187   1.556   0.349   8.213 -1.3852 -0.7078 -0.3966
   78SLPC  H13Y 7188   1.439   0.469   8.131  0.0570 -0.8981 -1.8391
   78SLPC  C314 7189   1.606   0.548   8.248 -0.4958 -0.6092 -0.5885
   78SLPC  H14X 7190   1.623   0.650   8.207 -1.2851 -0.2193  0.0446
   78SLPC  H14Y 7191   1.709   0.510   8.263 -1.7339 -3.3209  1.4230
   78SLPC  C315 7192   1.528   0.562   8.379 -0.3984 -0.4280  0.0409
   78SLPC  H15X 7193   1.429   0.598   8.342  0.3238 -0.3564 -1.8810
   78SLPC  H15Y 7194   1.575   0.647   8.433 -1.0424 -1.2541  1.9309
   78SLPC  C316 7195   1.526   0.440   8.467 -0.6362 -0.0480  0.3894
   78SLPC  H16X 7196   1.632   0.416   8.490 -0.7899 -1.1817 -0.0341
   78SLPC  H16Y 7197   1.476   0.350   8.425  0.3355 -0.1600 -0.5557
   78SLPC  C317 7198   1.469   0.482   8.602  0.0286  0.2260 -0.4233
   78SLPC  H17X 7199   1.536   0.563   8.637 -1.0963  2.1723 -2.5863
   78SLPC  H17Y 7200   1.477   0.404   8.680 -0.9447  1.2408  0.7137
   78SLPC  C318 7201   1.325   0.526   8.616 -0.0509  0.6381  0.8173
   78SLPC  H18X 7202   1.305   0.601   8.537  0.8218 -2.3547 -2.3823
   78SLPC  H18Y 7203   1.300   0.572   8.714 -1.3524  2.0868 -0.1777
   78SLPC  H18Z 7204   1.253   0.445   8.592 -1.0121  1.3290  1.3457
   79SLPC     N 7205   0.059   3.528   5.883  0.4729  0.0415 -0.2159
   79SLPC   C13 7206   0.022   3.471   5.745  1.1887  0.0145 -1.3312
   79SLPC  H13A 7207  -0.084   3.490   5.730  1.4342  3.1875  0.6427
   79SLPC  H13B 7208   0.077   3.525   5.668  0.7460  0.2712 -1.4720
   79SLPC  H13C 7209   0.049   3.367   5.754  1.1966  0.2424  1.8131
   79SLPC   C14 7210   0.062   3.674   5.871  0.2620  0.3132  0.5041
   79SLPC  H14A 7211   0.131   3.709   5.796 -1.0057 -1.4019 -1.5346
   79SLPC  H14B 7212  -0.040   3.704   5.851  0.0262 -1.1170 -0.5461
   79SLPC  H14C 7213   0.084   3.717   5.967  1.3847  0.5152  0.1577
   79SLPC   C15 7214   0.197   3.476   5.921 -0.4953  0.3636 -0.4906
   79SLPC  H15A 7215   0.227   3.506   6.020  0.7351  0.7679 -0.9732
   79SLPC  H15B 7216   0.195   3.369   5.928 -0.7964  0.4897  1.7552
   79SLPC  H15C 7217   0.267   3.514   5.848 -0.3148 -0.7679 -0.9139
   79SLPC   C12 7218  -0.045   3.472   5.979  0.0479  0.3540  0.5144
   79SLPC  H12A 7219  -0.049   3.364   5.983  1.0634  0.3615  2.4514
   79SLPC  H12B 7220  -0.144   3.490   5.939  0.4089 -0.8725 -0.9569
   79SLPC   C11 7221  -0.030   3.510   6.133  0.4471 -0.5585  0.0719
   79SLPC  H11A 7222  -0.121   3.470   6.183  1.1742  0.0019  1.8812
   79SLPC  H11B 7223  -0.035   3.620   6.147 -3.4170 -0.8320  1.5691
   79SLPC     P 7224   0.083   3.319   6.265  0.4728 -0.2489 -0.3207
   79SLPC   O13 7225  -0.057   3.262   6.253 -0.4796 -0.2274 -0.5868
   79SLPC   O14 7226   0.186   3.221   6.221  0.0167  0.3820  0.2248
   79SLPC   O12 7227   0.093   3.451   6.184  0.0616  0.0690 -0.6085
   79SLPC   O11 7228   0.115   3.360   6.415 -0.2422 -0.3344 -0.3944
   79SLPC    C1 7229   0.238   3.438   6.433 -0.4842  0.4291  0.5213
   79SLPC    HA 7230   0.322   3.382   6.480  0.7713  0.9214 -1.0888
   79SLPC    HB 7231   0.288   3.481   6.343 -1.7983  3.1398  1.0303
   79SLPC    C2 7232   0.221   3.552   6.527  0.3502  0.3695  0.2984
   79SLPC    HS 7233   0.320   3.583   6.567 -0.1658  0.0823  1.8252
   79SLPC   O21 7234   0.127   3.510   6.628 -0.4207  0.0953  0.0551
   79SLPC   C21 7235   0.179   3.418   6.715  0.7354 -0.9778  0.2241
   79SLPC   O22 7236   0.296   3.388   6.715  0.5537  0.3254  0.0889
   79SLPC   C22 7237   0.073   3.369   6.813  0.1635 -0.1945 -0.0112
   79SLPC   H2R 7238  -0.003   3.449   6.820  0.5297  0.1687 -0.1794
   79SLPC   H2S 7239   0.034   3.272   6.775  0.7414  0.0043 -1.1213
   79SLPC    C3 7240   0.172   3.679   6.456  0.1582 -0.4658  0.5881
   79SLPC    HX 7241   0.082   3.658   6.394 -0.1075  1.4272  0.3028
   79SLPC    HY 7242   0.255   3.704   6.386  0.7582 -0.6544  1.2332
   79SLPC   O31 7243   0.152   3.793   6.541 -0.0175  0.1688 -0.0062
   79SLPC   C31 7244   0.028   3.845   6.547 -0.2956 -0.0591  0.0944
   79SLPC   O32 7245  -0.056   3.823   6.463 -0.3165  0.2274 -0.3448
   79SLPC   C32 7246   0.010   3.948   6.656  0.1688  0.7582 -0.0613
   79SLPC   H2X 7247  -0.056   4.023   6.607  0.9095  0.1246 -2.0709
   79SLPC   H2Y 7248   0.104   3.998   6.687 -1.1391  1.9019  2.2021
   79SLPC   C23 7249   0.138   3.325   6.944  0.5057 -0.0456 -0.3230
   79SLPC   H3R 7250   0.209   3.403   6.982 -0.5647  0.1799  1.2688
   79SLPC   H3S 7251   0.207   3.239   6.931  0.4768  0.1938 -2.2272
   79SLPC   C24 7252   0.032   3.285   7.041 -0.1475  0.2951  0.2803
   79SLPC   H4R 7253   0.008   3.179   7.018 -0.3321 -0.0496  2.0292
   79SLPC   H4S 7254  -0.068   3.332   7.039 -1.5266 -2.5498 -1.0296
   79SLPC   C25 7255   0.078   3.284   7.188  0.1356  0.1961 -0.7538
   79SLPC   H5R 7256   0.115   3.385   7.214  1.6897 -0.3789 -0.6922
   79SLPC   H5S 7257   0.171   3.225   7.204  1.4356  2.9069  2.0171
   79SLPC   C26 7258  -0.046   3.241   7.264 -0.6029  0.4290  0.4521
   79SLPC   H6R 7259  -0.074   3.138   7.231  0.6017 -0.1490  1.1942
   79SLPC   H6S 7260  -0.130   3.309   7.239 -0.5645  0.0853 -0.6810
   79SLPC   C27 7261  -0.012   3.246   7.416 -0.1447 -0.0140  0.5135
   79SLPC   H7R 7262   0.016   3.352   7.437 -2.2631  0.7109 -0.1828
   79SLPC   H7S 7263   0.083   3.190   7.424 -1.0995 -1.8772 -0.9153
   79SLPC   C28 7264  -0.126   3.189   7.513  0.6275  0.4455 -0.1924
   79SLPC   H8R 7265  -0.159   3.090   7.475  0.6389  0.3831 -0.0372
   79SLPC   H8S 7266  -0.218   3.251   7.507  0.6998  0.5311 -0.4269
   79SLPC   C29 7267  -0.064   3.179   7.646  0.0575  0.3720 -0.6614
   79SLPC   H9R 7268  -0.079   3.266   7.711 -2.7809  0.4360 -1.3434
   79SLPC  C210 7269  -0.019   3.066   7.704 -0.3002 -0.0341 -0.4191
   79SLPC  H10R 7270   0.013   3.064   7.809 -1.7047 -0.3222  0.0091
   79SLPC  C211 7271  -0.026   2.928   7.640 -0.2166  0.0290  0.3904
   79SLPC  H11R 7272   0.073   2.893   7.603 -0.5201 -1.7493  1.2181
   79SLPC  H11S 7273  -0.091   2.925   7.550 -1.8172 -1.2474  1.5503
   79SLPC  C212 7274  -0.074   2.825   7.733  0.0720 -0.6119 -0.2621
   79SLPC  H12R 7275  -0.004   2.795   7.812  0.5680 -1.1258 -0.8939
   79SLPC  C213 7276  -0.193   2.768   7.730 -0.8143 -0.4704  1.0550
   79SLPC  H13R 7277  -0.227   2.697   7.806  0.5887 -0.4922  1.6689
   79SLPC  C214 7278  -0.304   2.793   7.618  0.2915 -0.3971  0.2073
   79SLPC  H14R 7279  -0.340   2.689   7.601 -0.8378 -0.3523  2.1624
   79SLPC  H14S 7280  -0.260   2.817   7.519  0.5658 -0.6599  0.2643
   79SLPC  C215 7281  -0.413   2.896   7.655 -0.0820 -0.6457 -0.3480
   79SLPC  H15R 7282  -0.382   2.999   7.624 -0.3057 -0.6189 -0.4895
   79SLPC  H15S 7283  -0.433   2.891   7.764  2.2876 -1.4460  0.0872
   79SLPC  C216 7284  -0.542   2.881   7.574  0.2287 -0.4155  0.0095
   79SLPC  H16R 7285  -0.581   2.777   7.581 -2.4149  0.3297 -2.8436
   79SLPC  H16S 7286  -0.520   2.903   7.468  1.4141  0.2128  0.3691
   79SLPC  C217 7287  -0.654   2.976   7.619 -0.2726  0.8193 -1.0945
   79SLPC  H17R 7288  -0.611   3.078   7.634  1.2334  0.4677 -2.7859
   79SLPC  H17S 7289  -0.686   2.937   7.718  1.2585  0.9277 -0.5370
   79SLPC  C218 7290  -0.767   2.986   7.516  0.2340  0.2116 -0.4537
   79SLPC  H18R 7291  -0.820   2.892   7.492 -1.6263  0.1428  3.5112
   79SLPC  H18S 7292  -0.731   3.033   7.422  1.9967 -0.6725 -0.2295
   79SLPC  H18T 7293  -0.849   3.033   7.575 -0.4982 -1.7458  0.1254
   79SLPC   C33 7294  -0.072   3.888   6.770 -0.7430  0.5614  0.2877
   79SLPC   H3X 7295  -0.153   3.829   6.723  0.4539 -0.0969 -0.9999
   79SLPC   H3Y 7296  -0.136   3.961   6.823 -0.1602  1.3435 -0.0762
   79SLPC   C34 7297   0.006   3.794   6.865 -0.2786  0.4872 -0.0029
   79SLPC   H4X 7298   0.114   3.822   6.867  0.3655 -1.8009 -1.4560
   79SLPC   H4Y 7299  -0.002   3.692   6.822  0.5346  0.1091  0.7027
   79SLPC   C35 7300  -0.043   3.774   7.009  0.1764 -0.2223  0.4413
   79SLPC   H5X 7301  -0.011   3.869   7.057 -2.5539  1.6560 -1.3237
   79SLPC   H5Y 7302   0.024   3.697   7.053 -0.1506 -0.4569  0.5335
   79SLPC   C36 7303  -0.186   3.733   7.032  0.4379 -0.3555 -0.2987
   79SLPC   H6X 7304  -0.204   3.662   6.949 -1.3379 -3.4284  2.5515
   79SLPC   H6Y 7305  -0.264   3.812   7.029 -0.4215 -1.1045  1.1939
   79SLPC   C37 7306  -0.206   3.657   7.163  0.0498 -0.3558 -0.5815
   79SLPC   H7X 7307  -0.192   3.722   7.252 -1.0578 -0.8774 -0.0075
   79SLPC   H7Y 7308  -0.138   3.569   7.173  1.1539  0.7776  2.9113
   79SLPC   C38 7309  -0.335   3.591   7.189  0.2010  0.5766  0.4351
   79SLPC   H8X 7310  -0.347   3.527   7.099  0.0612  2.7600 -1.1433
   79SLPC   H8Y 7311  -0.406   3.676   7.186 -0.5068  0.0585  1.7859
   79SLPC   C39 7312  -0.348   3.524   7.329 -0.5277 -0.6601  0.4055
   79SLPC   H9X 7313  -0.324   3.591   7.414  0.7351  0.1652 -0.5985
   79SLPC   H9Y 7314  -0.274   3.445   7.356 -1.7671 -1.9026  0.2471
   79SLPC  C310 7315  -0.486   3.483   7.364 -0.1720  0.2401  0.1125
   79SLPC  H10X 7316  -0.524   3.419   7.281  3.1361 -1.4513 -0.1678
   79SLPC  H10Y 7317  -0.553   3.570   7.375 -0.1453  0.1446  1.1398
   79SLPC  C311 7318  -0.506   3.405   7.486 -0.4150  0.0307  0.1989
   79SLPC  H11X 7319  -0.453   3.307   7.478  0.2889  0.6045 -2.7648
   79SLPC  H11Y 7320  -0.614   3.389   7.503 -0.4675 -0.2337 -0.3738
   79SLPC  C312 7321  -0.440   3.470   7.611  0.1031 -0.1757  0.1456
   79SLPC  H12X 7322  -0.489   3.566   7.639  0.1617 -0.6646  1.9531
   79SLPC  H12Y 7323  -0.333   3.490   7.588  0.1182 -0.0429  0.3292
   79SLPC  C313 7324  -0.443   3.377   7.735 -0.1966 -0.0241  0.2812
   79SLPC  H13X 7325  -0.388   3.283   7.711 -0.5938 -0.0775 -0.4196
   79SLPC  H13Y 7326  -0.547   3.345   7.754 -0.5431  0.3438 -0.9800
   79SLPC  C314 7327  -0.392   3.438   7.864 -0.0863 -0.4268 -0.3765
   79SLPC  H14X 7328  -0.413   3.380   7.957 -1.3458  2.6896  1.3656
   79SLPC  H14Y 7329  -0.443   3.536   7.877 -1.6642 -1.0763 -1.6086
   79SLPC  C315 7330  -0.241   3.461   7.871 -0.2632  0.8814  0.2567
   79SLPC  H15X 7331  -0.217   3.493   7.768 -2.3831  1.0487 -0.2032
   79SLPC  H15Y 7332  -0.196   3.362   7.895  1.2396  2.0566  2.4281
   79SLPC  C316 7333  -0.188   3.570   7.955 -0.1211 -0.2401  0.4411
   79SLPC  H16X 7334  -0.228   3.668   7.920  0.3981  0.2978  1.3383
   79SLPC  H16Y 7335  -0.077   3.568   7.966 -0.1031 -1.2276  0.1409
   79SLPC  C317 7336  -0.224   3.543   8.103  0.2104 -0.1832  0.0794
   79SLPC  H17X 7337  -0.328   3.505   8.115 -0.4025  0.7700 -2.0276
   79SLPC  H17Y 7338  -0.219   3.637   8.162  2.9656 -1.7217  2.4018
   79SLPC  C318 7339  -0.125   3.458   8.174  0.5918 -0.2025 -0.5020
   79SLPC  H18X 7340  -0.150   3.431   8.279 -0.3357 -1.1282 -0.9490
   79SLPC  H18Y 7341  -0.028   3.512   8.181  1.5816 -1.8750 -0.8980
   79SLPC  H18Z 7342  -0.119   3.358   8.125 -0.4689 -0.0624 -0.9363
   80SLPC     N 7343   6.671   1.191   6.182 -0.1564 -0.6773  0.0448
   80SLPC   C13 7344   6.574   1.161   6.085 -0.1297 -0.4256 -0.1002
   80SLPC  H13A 7345   6.562   1.056   6.063  2.7376 -1.3888  2.4915
   80SLPC  H13B 7346   6.474   1.197   6.106 -0.3840 -1.8172  1.1936
   80SLPC  H13C 7347   6.601   1.193   5.986  0.5759  1.0152  0.5449
   80SLPC   C14 7348   6.646   1.125   6.314 -0.1435  0.2567  0.3001
   80SLPC  H14A 7349   6.736   1.134   6.373 -1.2448 -1.2947  2.2794
   80SLPC  H14B 7350   6.572   1.183   6.368 -1.1407  0.6926 -1.4999
   80SLPC  H14C 7351   6.615   1.023   6.329  0.0674 -0.0109 -1.0633
   80SLPC   C15 7352   6.671   1.339   6.206  0.2323  0.4338 -0.7257
   80SLPC  H15A 7353   6.580   1.378   6.250  0.7831  1.0447 -0.1097
   80SLPC  H15B 7354   6.762   1.356   6.260  0.2522 -2.5170  0.2462
   80SLPC  H15C 7355   6.692   1.383   6.110 -1.6268 -0.8846 -1.7655
   80SLPC   C12 7356   6.804   1.138   6.134 -0.5662 -0.2937 -0.4811
   80SLPC  H12A 7357   6.787   1.034   6.111 -0.3266 -0.1852 -1.1654
   80SLPC  H12B 7358   6.887   1.141   6.204  0.2482  0.3239 -1.4554
   80SLPC   C11 7359   6.865   1.206   6.009  0.5413  0.2695  0.6774
   80SLPC  H11A 7360   6.788   1.212   5.929  0.8089 -0.6246  0.3408
   80SLPC  H11B 7361   6.947   1.143   5.968 -0.1766  0.1512 -0.5965
   80SLPC     P 7362   7.065   1.367   6.072 -0.3272 -0.0283  0.1148
   80SLPC   O13 7363   7.147   1.364   5.951 -0.2756 -0.1777  0.4355
   80SLPC   O14 7364   7.065   1.491   6.152 -0.1733 -0.5525  0.2105
   80SLPC   O12 7365   6.916   1.338   6.033 -0.3959  0.4185  0.3355
   80SLPC   O11 7366   7.091   1.244   6.166 -0.0660 -0.0822 -0.0540
   80SLPC    C1 7367   7.205   1.235   6.247 -0.8583  0.0027 -0.7874
   80SLPC    HA 7368   7.251   1.144   6.203 -3.3477 -0.6070 -2.2358
   80SLPC    HB 7369   7.272   1.323   6.235 -1.8741  0.9868  0.5753
   80SLPC    C2 7370   7.181   1.215   6.398  0.3021  0.1564  0.5429
   80SLPC    HS 7371   7.126   1.120   6.417 -2.4205  1.8237  1.4432
   80SLPC   O21 7372   7.117   1.335   6.449 -0.2376 -0.1309  0.1111
   80SLPC   C21 7373   6.987   1.344   6.442 -0.1781 -0.5617 -0.4043
   80SLPC   O22 7374   6.912   1.247   6.426 -0.1495 -0.8155 -0.0763
   80SLPC   C22 7375   6.928   1.484   6.466 -0.3750 -0.3665 -0.4353
   80SLPC   H2R 7376   6.969   1.559   6.394  1.1310  0.8415  1.6188
   80SLPC   H2S 7377   6.819   1.475   6.449 -0.6757  1.5401  0.3179
   80SLPC    C3 7378   7.318   1.186   6.469 -0.3323 -0.4142 -0.9194
   80SLPC    HX 7379   7.403   1.235   6.417 -0.6688  0.0234 -1.0601
   80SLPC    HY 7380   7.336   1.076   6.466 -0.6254 -0.4551 -1.2006
   80SLPC   O31 7381   7.311   1.226   6.607 -0.2930  0.1597  0.3832
   80SLPC   C31 7382   7.246   1.142   6.691  0.2619  0.2021  0.0179
   80SLPC   O32 7383   7.211   1.028   6.668  0.1610  0.3320 -0.0071
   80SLPC   C32 7384   7.241   1.209   6.828 -0.2274  0.0503  0.2116
   80SLPC   H2X 7385   7.170   1.149   6.888 -0.3265  0.4490  0.4990
   80SLPC   H2Y 7386   7.182   1.302   6.811 -2.7263 -2.0530 -3.3832
   80SLPC   C23 7387   6.963   1.543   6.608  0.2657 -0.0423  0.2867
   80SLPC   H3R 7388   6.944   1.652   6.612  2.8753  0.3872  2.2241
   80SLPC   H3S 7389   7.074   1.535   6.610  0.2462 -0.2512  0.5858
   80SLPC   C24 7390   6.884   1.476   6.719 -0.1691 -0.4171 -0.6419
   80SLPC   H4R 7391   6.898   1.366   6.725 -1.3105 -0.6367 -1.9227
   80SLPC   H4S 7392   6.776   1.493   6.699  0.0241  0.9370 -0.5889
   80SLPC   C25 7393   6.914   1.541   6.855 -0.4025 -0.3688 -0.3915
   80SLPC   H5R 7394   6.895   1.651   6.854  1.7498  0.1218  3.2313
   80SLPC   H5S 7395   7.024   1.530   6.870 -0.0373 -0.2640 -2.7783
   80SLPC   C26 7396   6.844   1.474   6.980  0.1749 -0.6056  0.1083
   80SLPC   H6R 7397   6.905   1.384   7.004 -1.6462 -2.1098 -0.7759
   80SLPC   H6S 7398   6.749   1.442   6.932  0.5078 -0.7747 -0.4540
   80SLPC   C27 7399   6.826   1.564   7.100  0.5677  0.3474  0.2808
   80SLPC   H7R 7400   6.761   1.646   7.062  0.5689 -0.5490 -1.7548
   80SLPC   H7S 7401   6.927   1.605   7.123  0.1131  2.1007 -0.7986
   80SLPC   C28 7402   6.764   1.503   7.232  0.4180 -0.5391 -0.1347
   80SLPC   H8R 7403   6.671   1.453   7.195 -0.2760  0.1653  0.6431
   80SLPC   H8S 7404   6.725   1.577   7.305 -2.5892 -0.7140 -1.4855
   80SLPC   C29 7405   6.847   1.391   7.287 -0.1727 -0.3517 -0.2354
   80SLPC   H9R 7406   6.916   1.339   7.219 -1.1329 -3.5569  1.1542
   80SLPC  C210 7407   6.846   1.347   7.419 -0.8376  0.4446 -0.1185
   80SLPC  H10R 7408   6.900   1.254   7.439 -2.1286 -0.7218 -1.8911
   80SLPC  C211 7409   6.772   1.395   7.537 -0.7808 -0.8251  0.3930
   80SLPC  H11R 7410   6.704   1.311   7.564  1.7188 -2.7603  0.8312
   80SLPC  H11S 7411   6.712   1.488   7.522 -0.5288 -0.3765  2.0377
   80SLPC  C212 7412   6.858   1.419   7.657  0.0331 -0.0087 -0.3238
   80SLPC  H12R 7413   6.966   1.437   7.648  0.1562  0.6201  2.0692
   80SLPC  C213 7414   6.824   1.389   7.789  0.9252  0.5514 -0.2856
   80SLPC  H13R 7415   6.908   1.387   7.861  2.4912 -0.6195 -2.1196
   80SLPC  C214 7416   6.692   1.333   7.840  0.1838 -0.4027 -0.0666
   80SLPC  H14R 7417   6.622   1.326   7.754  0.1137  0.0799 -0.0504
   80SLPC  H14S 7418   6.640   1.398   7.913 -0.6274 -1.0907 -0.0228
   80SLPC  C215 7419   6.700   1.201   7.918  0.1937  0.0785 -0.6194
   80SLPC  H15R 7420   6.598   1.163   7.937  1.0028 -1.6744  0.2736
   80SLPC  H15S 7421   6.761   1.202   8.011  1.8036 -0.9465 -1.6480
   80SLPC  C216 7422   6.758   1.102   7.812 -0.3595 -0.6953 -0.2120
   80SLPC  H16R 7423   6.856   1.146   7.783  0.1900 -0.2350  2.1860
   80SLPC  H16S 7424   6.701   1.091   7.718  2.9603 -1.9143 -2.1623
   80SLPC  C217 7425   6.793   0.965   7.864 -0.0188  0.6383 -0.3787
   80SLPC  H17R 7426   6.699   0.913   7.892  0.1888 -0.1165 -1.0496
   80SLPC  H17S 7427   6.852   0.972   7.958  1.6842 -0.1139 -1.3499
   80SLPC  C218 7428   6.875   0.890   7.761  0.5761 -0.6061 -0.2332
   80SLPC  H18R 7429   6.963   0.945   7.721  0.3654 -1.6761 -2.2295
   80SLPC  H18S 7430   6.814   0.866   7.672 -0.2999 -1.4247  0.5721
   80SLPC  H18T 7431   6.912   0.792   7.798 -2.4154 -2.3753 -1.7523
   80SLPC   C33 7432   7.369   1.247   6.909  0.0969  0.3216 -0.4780
   80SLPC   H3X 7433   7.410   1.337   6.858 -0.7507  0.6129 -0.6567
   80SLPC   H3Y 7434   7.438   1.160   6.920 -1.5209 -0.8825  0.3555
   80SLPC   C34 7435   7.336   1.296   7.053 -0.0543  0.2650 -0.4163
   80SLPC   H4X 7436   7.430   1.337   7.095  0.5224  1.6037 -2.8926
   80SLPC   H4Y 7437   7.310   1.206   7.112  0.5690 -0.0766 -0.6573
   80SLPC   C35 7438   7.230   1.399   7.073  0.1428  0.7677 -0.0874
   80SLPC   H5X 7439   7.129   1.352   7.069  0.4983 -0.1070  0.8555
   80SLPC   H5Y 7440   7.235   1.462   6.982 -1.2857  0.5597 -0.3274
   80SLPC   C36 7441   7.253   1.490   7.187  0.2358 -0.5677  0.9277
   80SLPC   H6X 7442   7.185   1.576   7.167  0.6228 -0.4034  0.2989
   80SLPC   H6Y 7443   7.356   1.531   7.182 -0.2175  0.4013 -1.4798
   80SLPC   C37 7444   7.238   1.438   7.335  0.4771  0.3887 -0.2915
   80SLPC   H7X 7445   7.307   1.352   7.351  0.8124  1.0211  1.7824
   80SLPC   H7Y 7446   7.135   1.399   7.345  1.0147 -0.9162  0.2607
   80SLPC   C38 7447   7.254   1.544   7.444 -0.1620  0.2145  0.0169
   80SLPC   H8X 7448   7.232   1.493   7.540 -0.1467  0.1365 -0.0203
   80SLPC   H8Y 7449   7.174   1.619   7.428 -1.1213 -0.5394  1.2263
   80SLPC   C39 7450   7.391   1.599   7.471 -0.0865 -0.0584  1.0351
   80SLPC   H9X 7451   7.412   1.679   7.398 -1.7704 -0.3819  0.1749
   80SLPC   H9Y 7452   7.465   1.516   7.469  0.1767  0.2134 -0.5107
   80SLPC  C310 7453   7.403   1.672   7.612 -0.9894  0.9880 -0.5331
   80SLPC  H10X 7454   7.423   1.595   7.689  1.4061  1.7490 -0.3509
   80SLPC  H10Y 7455   7.306   1.723   7.630 -2.8986 -2.1005 -1.6006
   80SLPC  C311 7456   7.522   1.775   7.610 -0.5183 -0.1519  0.0135
   80SLPC  H11X 7457   7.505   1.845   7.525 -0.7414 -0.8986 -0.5627
   80SLPC  H11Y 7458   7.610   1.710   7.591 -1.5116 -1.9134  1.2759
   80SLPC  C312 7459   7.548   1.850   7.739  0.9581  0.0428 -0.5450
   80SLPC  H12X 7460   7.461   1.914   7.763  1.3171  0.5040 -0.4709
   80SLPC  H12Y 7461   7.630   1.921   7.716 -0.9094  1.3879 -3.2700
   80SLPC  C313 7462   7.566   1.763   7.862 -0.3585  0.1132  0.4269
   80SLPC  H13X 7463   7.637   1.681   7.838  0.1022  0.4716  0.5618
   80SLPC  H13Y 7464   7.466   1.718   7.882 -0.4816  0.4445  0.5752
   80SLPC  C314 7465   7.627   1.836   7.984 -0.2929 -1.0108 -0.7545
   80SLPC  H14X 7466   7.565   1.927   7.999 -0.8213 -1.2866 -1.2491
   80SLPC  H14Y 7467   7.729   1.872   7.960 -1.1684  1.3951 -1.0375
   80SLPC  C315 7468   7.645   1.740   8.102  0.4754 -0.3214  0.1245
   80SLPC  H15X 7469   7.707   1.652   8.075  0.0396  0.0047 -2.0878
   80SLPC  H15Y 7470   7.541   1.706   8.123  1.0437 -2.5356 -0.5273
   80SLPC  C316 7471   7.700   1.810   8.221  0.4533  0.3734 -0.2549
   80SLPC  H16X 7472   7.618   1.879   8.252  0.4298 -1.1012  3.2213
   80SLPC  H16Y 7473   7.793   1.866   8.194 -0.2186  1.6400  0.0154
   80SLPC  C317 7474   7.730   1.714   8.343 -0.0215  0.6514 -0.0214
   80SLPC  H17X 7475   7.828   1.667   8.322  0.0331 -0.0284  1.6765
   80SLPC  H17Y 7476   7.650   1.637   8.348  1.1999 -0.5192  1.9000
   80SLPC  C318 7477   7.730   1.777   8.486  0.0037 -0.3321  0.1175
   80SLPC  H18X 7478   7.630   1.812   8.520  0.5509 -0.4016  1.9016
   80SLPC  H18Y 7479   7.795   1.867   8.491 -0.1984 -0.1604 -0.3930
   80SLPC  H18Z 7480   7.770   1.695   8.550  2.3822  0.7758  0.1073
   81SAPS     N 7481   4.019   4.609  10.289  0.3394 -0.2500 -0.0523
   81SAPS   HN1 7482   4.121   4.589  10.278  0.5677  0.5970  0.5389
   81SAPS   HN2 7483   4.020   4.701  10.336 -3.4005 -0.5571  0.7699
   81SAPS   HN3 7484   3.981   4.530  10.346  0.3744 -0.7980 -0.7749
   81SAPS   C12 7485   3.948   4.624  10.165  0.0581 -0.3959  0.2037
   81SAPS  H12A 7486   3.941   4.523  10.127 -0.5013  0.1584 -1.1715
   81SAPS   C13 7487   3.802   4.672  10.203 -0.6268 -0.3025  0.0382
   81SAPS  O13A 7488   3.753   4.656  10.314  0.6306 -0.4121 -0.2367
   81SAPS  O13B 7489   3.729   4.720  10.113 -0.2586 -0.6628  0.3694
   81SAPS   C11 7490   4.016   4.730  10.070  0.0792  0.1804 -0.4690
   81SAPS  H11A 7491   4.014   4.833  10.110  1.0518  0.3204 -0.7910
   81SAPS  H11B 7492   3.957   4.741   9.976 -0.7378 -0.1856 -0.0112
   81SAPS     P 7493   4.282   4.753  10.102  0.0255  0.0103  0.0127
   81SAPS   O13 7494   4.287   4.898  10.097  0.0430 -0.8095  0.7271
   81SAPS   O14 7495   4.295   4.684  10.233 -0.3576 -0.0891 -0.5607
   81SAPS   O12 7496   4.152   4.701  10.036 -0.0342  0.2804  0.5620
   81SAPS   O11 7497   4.397   4.692  10.010 -0.4700 -0.0719 -0.3603
   81SAPS    C1 7498   4.383   4.554   9.971  0.1832  0.1692 -0.0977
   81SAPS    HA 7499   4.473   4.493   9.995  0.2615  0.2302 -0.2404
   81SAPS    HB 7500   4.302   4.504  10.028  0.3820 -1.1511 -0.9662
   81SAPS    C2 7501   4.354   4.544   9.811  0.2198 -0.6329  0.5457
   81SAPS    HS 7502   4.322   4.438   9.800  0.6402 -1.0132  2.7309
   81SAPS   O21 7503   4.473   4.583   9.747  0.3272  0.0090 -0.4266
   81SAPS   C21 7504   4.490   4.527   9.628 -0.2692 -0.8774  0.1274
   81SAPS   O22 7505   4.429   4.433   9.586  0.4840  0.0450 -0.0538
   81SAPS   C22 7506   4.610   4.596   9.562 -0.3009 -0.3502  0.7028
   81SAPS   H2R 7507   4.629   4.695   9.608  0.0871 -1.1775  2.3667
   81SAPS   H2S 7508   4.707   4.546   9.582 -0.6489 -1.7726 -1.0758
   81SAPS    C3 7509   4.233   4.624   9.754  0.5469  0.3885 -0.2801
   81SAPS    HX 7510   4.261   4.730   9.775 -1.9321  0.7430  1.4206
   81SAPS    HY 7511   4.143   4.613   9.818  2.0379 -0.2086  1.7661
   81SAPS   O31 7512   4.215   4.603   9.612  0.5217 -0.1188 -0.4461
   81SAPS   C31 7513   4.115   4.518   9.584  0.0145  0.6102 -0.1458
   81SAPS   O32 7514   4.040   4.475   9.663 -0.8250 -0.1458 -0.2176
   81SAPS   C32 7515   4.120   4.489   9.439  0.1677 -0.0741  0.0216
   81SAPS   H2X 7516   4.222   4.494   9.395  0.5666 -3.0905  0.5345
   81SAPS   H2Y 7517   4.066   4.573   9.390  0.0675 -0.0640  0.1474
   81SAPS   C23 7518   4.602   4.607   9.405 -0.4172  0.0364 -0.2855
   81SAPS   H3R 7519   4.571   4.507   9.366 -1.6055 -0.5869  2.1331
   81SAPS   H3S 7520   4.706   4.622   9.370 -0.2459  0.2583  0.3048
   81SAPS   C24 7521   4.517   4.731   9.366 -0.2276  0.3587 -0.2274
   81SAPS   H4R 7522   4.551   4.815   9.429  0.7405  0.4441 -0.8484
   81SAPS   H4S 7523   4.413   4.704   9.397  0.0225  0.4411  0.6938
   81SAPS   C25 7524   4.532   4.781   9.225 -0.0086  0.2142 -0.1126
   81SAPS   H5R 7525   4.609   4.858   9.219 -2.0820  2.3884  0.5209
   81SAPS   C26 7526   4.478   4.729   9.111  0.2037  0.3420  0.7999
   81SAPS   H6R 7527   4.484   4.793   9.021 -1.9425 -0.9485 -0.3135
   81SAPS   C27 7528   4.390   4.604   9.097 -0.1628  0.0187 -0.5801
   81SAPS   H7R 7529   4.417   4.527   9.173 -0.4725  0.9554  0.4932
   81SAPS   H7S 7530   4.421   4.549   9.006 -0.9843  0.2479 -0.9964
   81SAPS   C28 7531   4.242   4.621   9.099 -0.0089  0.6709 -0.1088
   81SAPS   H8R 7532   4.206   4.719   9.134  1.8505  2.1407 -2.1588
   81SAPS   C29 7533   4.153   4.531   9.045 -0.0770  0.4415 -0.2185
   81SAPS   H9R 7534   4.044   4.547   9.053 -0.2256 -0.8156  0.2740
   81SAPS  C210 7535   4.201   4.404   8.976 -0.6498  0.3204  0.3612
   81SAPS  H10R 7536   4.262   4.339   9.042  0.7451 -0.0671 -1.2745
   81SAPS  H10S 7537   4.288   4.427   8.911 -2.0944  1.9010 -1.0503
   81SAPS  C211 7538   4.101   4.332   8.887 -0.2704 -0.2308 -0.7886
   81SAPS  H11R 7539   3.999   4.373   8.886 -0.2433 -0.1496 -2.8126
   81SAPS  C212 7540   4.133   4.230   8.805 -0.2529  0.5814 -0.4213
   81SAPS  H12R 7541   4.058   4.179   8.743  1.1702 -0.2618 -1.4867
   81SAPS  C213 7542   4.274   4.168   8.786 -0.6197 -1.0707  0.1117
   81SAPS  H13R 7543   4.328   4.153   8.881 -2.2542  3.2753  1.8589
   81SAPS  H13S 7544   4.334   4.235   8.721  0.6727 -0.2013  2.1768
   81SAPS  C214 7545   4.278   4.037   8.713  0.4808 -0.3594 -0.6152
   81SAPS  H14R 7546   4.304   3.949   8.774  1.4915 -2.3211 -3.7341
   81SAPS  C215 7547   4.257   4.025   8.584  0.0401 -1.3873  0.2614
   81SAPS  H15R 7548   4.264   3.924   8.541 -1.7029 -1.0518 -0.8359
   81SAPS  C216 7549   4.219   4.133   8.480 -0.2501  0.7613 -0.3726
   81SAPS  H16R 7550   4.308   4.181   8.432 -1.0169  2.4791 -0.1390
   81SAPS  H16S 7551   4.164   4.224   8.512  0.8614  0.8985  1.1619
   81SAPS  C217 7552   4.136   4.071   8.361 -0.2450 -0.2891 -0.4668
   81SAPS  H17R 7553   4.111   4.157   8.296 -1.1342  0.4352  0.8035
   81SAPS  H17S 7554   4.042   4.026   8.399 -0.0792 -0.4259 -0.2149
   81SAPS  C218 7555   4.217   3.969   8.275 -0.1086  0.5818  0.6301
   81SAPS  H18R 7556   4.265   3.881   8.323  2.7032  1.4353 -0.5352
   81SAPS  H18S 7557   4.308   4.024   8.243  1.8417 -1.6814  2.0973
   81SAPS  C219 7558   4.150   3.924   8.143 -0.0875  0.0236  0.0795
   81SAPS  H19R 7559   4.128   4.015   8.083  0.6680 -0.3813 -0.8088
   81SAPS  H19S 7560   4.050   3.880   8.164 -1.0480  1.5765 -1.1410
   81SAPS  C220 7561   4.242   3.845   8.053 -0.3581  0.7773  0.5161
   81SAPS  H20R 7562   4.192   3.798   7.966  0.6839  1.6356 -0.5687
   81SAPS  H20S 7563   4.294   3.766   8.111  1.4160 -0.0962 -2.1293
   81SAPS  H20T 7564   4.325   3.905   8.010  2.5157 -1.6890  2.3919
   81SAPS   C33 7565   4.057   4.348   9.393  0.0386 -0.2145  0.3753
   81SAPS   H3X 7566   4.011   4.377   9.296  1.9507  2.1406  0.1335
   81SAPS   H3Y 7567   3.974   4.320   9.461 -1.3745  0.5775 -0.9660
   81SAPS   C34 7568   4.150   4.233   9.385  0.0986  0.6422  0.6660
   81SAPS   H4X 7569   4.203   4.227   9.483  3.7256  0.8182 -1.1919
   81SAPS   H4Y 7570   4.228   4.251   9.307 -0.7424 -2.1600 -0.8690
   81SAPS   C35 7571   4.086   4.102   9.348 -0.4886 -0.6217 -0.3165
   81SAPS   H5X 7572   4.025   4.072   9.436 -0.9071 -0.7196 -0.6381
   81SAPS   H5Y 7573   4.174   4.035   9.346 -0.6023 -0.7681 -0.4136
   81SAPS   C36 7574   4.002   4.097   9.217 -0.2225 -0.1514 -0.6902
   81SAPS   H6X 7575   4.042   4.172   9.146  1.3453 -0.2669  0.0286
   81SAPS   H6Y 7576   3.901   4.137   9.242 -0.0147 -1.0306  1.7556
   81SAPS   C37 7577   3.998   3.953   9.161 -0.7378  0.2002 -0.5580
   81SAPS   H7X 7578   3.919   3.949   9.083 -0.6393 -1.2142 -0.6102
   81SAPS   H7Y 7579   3.967   3.873   9.232 -0.9538  1.7789  1.1493
   81SAPS   C38 7580   4.131   3.923   9.095 -0.4704  0.1695 -0.5454
   81SAPS   H8X 7581   4.213   3.912   9.170 -0.3496 -1.4488 -0.8903
   81SAPS   H8Y 7582   4.157   4.007   9.028 -0.0654  1.7917  1.5816
   81SAPS   C39 7583   4.132   3.792   9.015 -0.5003  0.2346  0.4317
   81SAPS   H9X 7584   4.125   3.702   9.079 -1.2550 -0.2864 -0.3739
   81SAPS   H9Y 7585   4.232   3.787   8.967 -0.0697 -0.0569  1.3576
   81SAPS  C310 7586   4.023   3.779   8.907  0.2993  0.5252 -0.4369
   81SAPS  H10X 7587   4.009   3.862   8.834 -2.3099  0.5148  0.0136
   81SAPS  H10Y 7588   3.923   3.777   8.956  0.4929 -2.4802 -0.0130
   81SAPS  C311 7589   4.041   3.651   8.823 -0.0700  0.3771 -0.0079
   81SAPS  H11X 7590   3.962   3.647   8.744  1.3227 -1.0514 -1.3566
   81SAPS  H11Y 7591   4.025   3.554   8.876 -0.0869 -0.1155 -0.8962
   81SAPS  C312 7592   4.167   3.661   8.733  0.1613 -0.0895 -0.0729
   81SAPS  H12X 7593   4.253   3.651   8.803  0.6652 -0.2573 -0.7106
   81SAPS  H12Y 7594   4.169   3.764   8.692 -0.2019  0.0747  0.3130
   81SAPS  C313 7595   4.162   3.561   8.616 -0.0857  0.3077  0.5393
   81SAPS  H13X 7596   4.079   3.586   8.548  0.2046  0.0141  0.0696
   81SAPS  H13Y 7597   4.139   3.460   8.658  0.8272 -0.9267 -1.8124
   81SAPS  C314 7598   4.299   3.567   8.543  0.8270 -0.2019  0.4245
   81SAPS  H14X 7599   4.378   3.505   8.590 -0.4613 -2.7022 -0.6128
   81SAPS  H14Y 7600   4.329   3.673   8.550 -0.9887  0.2889  0.9833
   81SAPS  C315 7601   4.278   3.538   8.392  0.2056 -0.5069 -0.2706
   81SAPS  H15X 7602   4.209   3.611   8.345  0.6480 -0.1520 -0.3734
   81SAPS  H15Y 7603   4.246   3.434   8.369 -1.1185  0.2211 -1.7662
   81SAPS  C316 7604   4.404   3.565   8.301 -0.9370 -0.5903  0.3536
   81SAPS  H16X 7605   4.489   3.521   8.359  0.0842  0.9373  0.0512
   81SAPS  H16Y 7606   4.426   3.673   8.287  0.6007 -0.7803  1.1834
   81SAPS  C317 7607   4.393   3.495   8.161  0.0233 -0.0425 -0.4082
   81SAPS  H17X 7608   4.325   3.556   8.097  1.6554  1.1402 -1.0370
   81SAPS  H17Y 7609   4.359   3.392   8.181 -2.9189  0.4881 -2.2636
   81SAPS  C318 7610   4.533   3.500   8.083  0.4617  0.2750  0.2027
   81SAPS  H18X 7611   4.507   3.436   7.996 -2.7280 -0.4731  1.6428
   81SAPS  H18Y 7612   4.609   3.458   8.152 -1.1563 -1.3533  1.0150
   81SAPS  H18Z 7613   4.558   3.604   8.051  0.4078  0.8014  1.8098
   82SAPS     N 7614   2.746   3.622   9.924  0.2086 -0.4774  0.1053
   82SAPS   HN1 7615   2.693   3.671   9.849  0.6780  0.8933  0.6697
   82SAPS   HN2 7616   2.843   3.656   9.935  0.0730  0.0455 -0.3105
   82SAPS   HN3 7617   2.758   3.526   9.885 -1.2522 -0.7964  0.3841
   82SAPS   C12 7618   2.679   3.611  10.059 -0.5081 -0.6092 -0.4572
   82SAPS  H12A 7619   2.749   3.554  10.117 -0.3413 -0.5548 -0.6078
   82SAPS   C13 7620   2.626   3.750  10.125 -0.6519  0.4575  0.7168
   82SAPS  O13A 7621   2.638   3.858  10.061 -0.5301 -0.9753 -0.3344
   82SAPS  O13B 7622   2.568   3.734  10.234 -0.4510 -0.1713 -0.1911
   82SAPS   C11 7623   2.553   3.519  10.043 -0.2779  0.9476  0.1092
   82SAPS  H11A 7624   2.490   3.515  10.135 -0.4665 -1.1320 -0.0830
   82SAPS  H11B 7625   2.594   3.415  10.036 -1.4965  0.2867  2.3198
   82SAPS     P 7626   2.405   3.452   9.836 -0.2494  0.4635  0.1634
   82SAPS   O13 7627   2.495   3.335   9.799  0.1176  0.2270  0.0325
   82SAPS   O14 7628   2.285   3.418   9.922 -0.2367  0.1389 -0.6524
   82SAPS   O12 7629   2.487   3.557   9.921  0.4363 -0.4156  0.1499
   82SAPS   O11 7630   2.368   3.538   9.707  0.1062 -0.0290  0.5082
   82SAPS    C1 7631   2.439   3.658   9.669 -0.0272 -0.4461 -0.0799
   82SAPS    HA 7632   2.546   3.657   9.701 -0.2958 -0.8980  0.8165
   82SAPS    HB 7633   2.443   3.666   9.559  1.2865  1.8495  0.1021
   82SAPS    C2 7634   2.371   3.794   9.710  0.2711  1.0017  0.1484
   82SAPS    HS 7635   2.381   3.808   9.820  3.6983  1.1641 -0.1278
   82SAPS   O21 7636   2.233   3.801   9.662 -0.5598  0.2078  0.1288
   82SAPS   C21 7637   2.136   3.748   9.726 -0.5945  0.3059 -0.3145
   82SAPS   O22 7638   2.147   3.704   9.844 -0.2831 -0.2687 -0.3852
   82SAPS   C22 7639   2.009   3.757   9.645  0.5369  0.1301  0.5825
   82SAPS   H2R 7640   1.931   3.686   9.678  0.3950  0.6008  1.2793
   82SAPS   H2S 7641   1.964   3.859   9.651 -1.4525 -0.7973  1.8822
   82SAPS    C3 7642   2.441   3.911   9.642  0.1293  0.4819  0.1105
   82SAPS    HX 7643   2.537   3.898   9.696  0.8652  0.1922 -1.2620
   82SAPS    HY 7644   2.383   4.004   9.664 -1.7776 -1.0316  1.6626
   82SAPS   O31 7645   2.458   3.879   9.501 -0.1093 -0.4347  0.1378
   82SAPS   C31 7646   2.366   3.930   9.424  0.1057  0.0981  0.4328
   82SAPS   O32 7647   2.265   3.994   9.458 -0.2086  0.1372 -0.4164
   82SAPS   C32 7648   2.401   3.892   9.277  0.5224 -0.2130  0.7083
   82SAPS   H2X 7649   2.492   3.949   9.249  0.4101 -0.0877  0.6003
   82SAPS   H2Y 7650   2.323   3.940   9.214 -0.0324 -0.6411  1.0655
   82SAPS   C23 7651   2.032   3.726   9.490  0.3510  0.2455 -0.2092
   82SAPS   H3R 7652   2.096   3.798   9.435 -0.0786  0.8119  0.0356
   82SAPS   H3S 7653   1.932   3.724   9.442 -0.7845  0.4613  2.1070
   82SAPS   C24 7654   2.092   3.590   9.469  0.4921 -0.4320 -0.2348
   82SAPS   H4R 7655   2.196   3.590   9.509  0.3956 -1.3718  0.0385
   82SAPS   H4S 7656   2.112   3.570   9.362 -0.8861 -0.4907 -0.4842
   82SAPS   C25 7657   2.017   3.468   9.521 -0.1491  0.2108  0.3770
   82SAPS   H5R 7658   2.060   3.422   9.611  1.4055 -1.2307 -1.0381
   82SAPS   C26 7659   1.930   3.388   9.457 -0.0059 -0.0687 -0.2973
   82SAPS   H6R 7660   1.892   3.298   9.507  0.3135  0.2793  0.5833
   82SAPS   C27 7661   1.876   3.395   9.309  0.2388 -0.6073 -0.9996
   82SAPS   H7R 7662   1.941   3.329   9.247 -0.6509 -2.2733 -0.2073
   82SAPS   H7S 7663   1.897   3.498   9.273  1.0852 -0.8768 -1.2884
   82SAPS   C28 7664   1.734   3.356   9.300  0.0069  0.1512 -0.7609
   82SAPS   H8R 7665   1.680   3.358   9.396  2.2347  1.5076  0.5199
   82SAPS   C29 7666   1.670   3.305   9.194  0.5028  0.5022  1.3072
   82SAPS   H9R 7667   1.560   3.300   9.198  0.5364 -1.6785  0.2102
   82SAPS  C210 7668   1.734   3.278   9.059 -0.1880  0.1915  0.0734
   82SAPS  H10R 7669   1.738   3.168   9.044 -1.0569 -0.1668  2.2598
   82SAPS  H10S 7670   1.841   3.301   9.074 -0.1311  0.8075 -1.2148
   82SAPS  C211 7671   1.673   3.356   8.941 -0.7523  0.6591 -0.3715
   82SAPS  H11R 7672   1.604   3.434   8.976  1.2443  2.0355  0.5978
   82SAPS  C212 7673   1.677   3.317   8.814 -0.3273 -0.3930 -0.6178
   82SAPS  H12R 7674   1.636   3.381   8.734  0.6899 -0.3416 -1.1121
   82SAPS  C213 7675   1.743   3.191   8.761 -0.1202 -0.1886  0.2999
   82SAPS  H13R 7676   1.704   3.097   8.806  0.8612 -1.6034 -1.7368
   82SAPS  H13S 7677   1.852   3.192   8.783  0.3624  1.6206 -1.9919
   82SAPS  C214 7678   1.725   3.182   8.616 -0.2086 -0.4357  0.0670
   82SAPS  H14R 7679   1.618   3.186   8.592  0.1010  2.3141 -1.0480
   82SAPS  C215 7680   1.812   3.155   8.517  1.0859  0.0002 -0.1291
   82SAPS  H15R 7681   1.778   3.164   8.413 -0.4808 -0.2153  0.3651
   82SAPS  C216 7682   1.957   3.130   8.552  0.1929 -0.0223 -0.6410
   82SAPS  H16R 7683   1.974   3.056   8.633 -1.2870 -0.8832 -1.0993
   82SAPS  H16S 7684   2.004   3.227   8.577 -1.0297  0.3033  0.4768
   82SAPS  C217 7685   2.042   3.067   8.438 -0.3259 -0.2227 -0.5045
   82SAPS  H17R 7686   2.149   3.069   8.467 -0.5729  0.6276  0.3737
   82SAPS  H17S 7687   2.016   3.120   8.344 -0.4651 -1.7184 -1.3343
   82SAPS  C218 7688   2.010   2.918   8.415 -0.8579  0.6397  0.0363
   82SAPS  H18R 7689   1.908   2.916   8.370 -1.5073 -1.7597  1.4907
   82SAPS  H18S 7690   2.020   2.857   8.508 -1.7475  1.3324  0.5945
   82SAPS  C219 7691   2.110   2.865   8.310  0.4657  0.3222 -0.1765
   82SAPS  H19R 7692   2.212   2.883   8.350  1.2437  2.4183 -2.9253
   82SAPS  H19S 7693   2.092   2.922   8.216 -1.3141  1.4332  0.8166
   82SAPS  C220 7694   2.085   2.719   8.276 -0.5735 -0.2204 -0.3080
   82SAPS  H20R 7695   2.147   2.686   8.190  0.1840  0.4695 -0.0370
   82SAPS  H20S 7696   1.981   2.703   8.240 -0.7626 -0.3917  0.3048
   82SAPS  H20T 7697   2.115   2.653   8.361  2.9816 -1.1583 -2.1936
   82SAPS   C33 7698   2.415   3.745   9.241  0.5453  0.2705 -0.4833
   82SAPS   H3X 7699   2.323   3.699   9.284  0.5803  1.6005  1.0647
   82SAPS   H3Y 7700   2.516   3.716   9.278 -0.7187 -1.9839  1.3839
   82SAPS   C34 7701   2.418   3.717   9.090  0.4342  0.3593 -0.0098
   82SAPS   H4X 7702   2.345   3.777   9.032  1.3602  0.5921 -0.9428
   82SAPS   H4Y 7703   2.389   3.609   9.090  1.3111  0.0790 -2.9980
   82SAPS   C35 7704   2.550   3.748   9.019 -0.7632  0.0055 -0.1429
   82SAPS   H5X 7705   2.622   3.681   9.071  0.7383  3.5543  2.5882
   82SAPS   H5Y 7706   2.574   3.856   9.026  0.1227 -0.0295 -2.1670
   82SAPS   C36 7707   2.552   3.705   8.874 -0.4581  0.0822  0.6804
   82SAPS   H6X 7708   2.460   3.735   8.819 -1.6576 -0.8304  2.1478
   82SAPS   H6Y 7709   2.559   3.594   8.874  0.6861  0.1423  0.4185
   82SAPS   C37 7710   2.679   3.763   8.797  0.1506  0.1279 -0.2469
   82SAPS   H7X 7711   2.765   3.722   8.853  0.3152  0.6965 -0.0874
   82SAPS   H7Y 7712   2.684   3.874   8.793 -2.4246  0.3071  0.9000
   82SAPS   C38 7713   2.673   3.726   8.643 -0.0391  0.1092 -0.3918
   82SAPS   H8X 7714   2.581   3.772   8.600 -0.8772 -2.4765 -1.5159
   82SAPS   H8Y 7715   2.653   3.618   8.628 -2.6234  0.7249 -1.6211
   82SAPS   C39 7716   2.788   3.756   8.548 -0.1035 -0.2352 -0.8499
   82SAPS   H9X 7717   2.882   3.760   8.607 -0.9788  1.4078  0.4580
   82SAPS   H9Y 7718   2.779   3.849   8.489 -0.2412  0.1580 -0.2074
   82SAPS  C310 7719   2.801   3.654   8.433  0.0989 -0.5657  0.4880
   82SAPS  H10X 7720   2.716   3.674   8.365 -0.4994  0.1247  1.4170
   82SAPS  H10Y 7721   2.795   3.548   8.467  1.3462 -1.4981 -2.0421
   82SAPS  C311 7722   2.937   3.665   8.358  0.4305  0.5572  0.3712
   82SAPS  H11X 7723   3.018   3.676   8.433  2.2111  0.6903 -1.5320
   82SAPS  H11Y 7724   2.953   3.767   8.315  0.6059  0.2332 -0.3485
   82SAPS  C312 7725   2.973   3.555   8.262 -0.5233  0.5717 -0.5049
   82SAPS  H12X 7726   2.888   3.567   8.191  0.6335  1.6644 -1.7135
   82SAPS  H12Y 7727   2.974   3.453   8.306  1.7275  1.1540  0.8523
   82SAPS  C313 7728   3.097   3.577   8.186  0.2911 -0.0269 -0.1636
   82SAPS  H13X 7729   3.182   3.574   8.258  0.4120 -1.8094 -0.3639
   82SAPS  H13Y 7730   3.099   3.676   8.134  0.0094 -0.0553 -0.2265
   82SAPS  C314 7731   3.143   3.476   8.070  0.0624  0.0190 -0.3358
   82SAPS  H14X 7732   3.062   3.435   8.007  1.2932  0.1722 -2.0385
   82SAPS  H14Y 7733   3.181   3.391   8.132  1.5543  0.2526 -0.8972
   82SAPS  C315 7734   3.245   3.541   7.977 -0.2707  0.1510  0.1729
   82SAPS  H15X 7735   3.308   3.467   7.922 -1.0024 -0.2737 -0.0965
   82SAPS  H15Y 7736   3.320   3.595   8.040  1.6905 -2.6103  0.3108
   82SAPS  C316 7737   3.189   3.642   7.882  0.1523  0.0136 -0.1677
   82SAPS  H16X 7738   3.138   3.729   7.930 -0.9249 -1.0041  0.5684
   82SAPS  H16Y 7739   3.107   3.590   7.828  1.8709  0.0016 -2.8378
   82SAPS  C317 7740   3.283   3.697   7.763 -0.1250  0.1092 -0.4393
   82SAPS  H17X 7741   3.342   3.611   7.726 -1.3222 -1.3352  0.9416
   82SAPS  H17Y 7742   3.347   3.775   7.810 -0.7737  1.4708 -1.7532
   82SAPS  C318 7743   3.206   3.774   7.651  0.8685  0.2511  0.7062
   82SAPS  H18X 7744   3.158   3.869   7.685  2.0584  0.0839  2.9187
   82SAPS  H18Y 7745   3.130   3.699   7.622  0.2686  1.1412 -0.0620
   82SAPS  H18Z 7746   3.279   3.778   7.568  0.1886 -0.7704  0.0506
   83SAPS     N 7747   4.389   5.125   9.996  0.5656  0.6760 -0.6460
   83SAPS   HN1 7748   4.400   5.129   9.893 -0.6080 -0.3160 -0.8159
   83SAPS   HN2 7749   4.361   5.026  10.013 -0.8320  1.0324 -0.8120
   83SAPS   HN3 7750   4.317   5.197  10.019  1.3093  0.8588  1.1993
   83SAPS   C12 7751   4.506   5.162  10.084 -0.4459  0.1153  0.3492
   83SAPS  H12A 7752   4.472   5.178  10.186 -0.4690  0.6663  0.2532
   83SAPS   C13 7753   4.627   5.067  10.099 -0.1053  0.8700  0.7375
   83SAPS  O13A 7754   4.636   4.963  10.032 -0.1757 -0.0444  0.2037
   83SAPS  O13B 7755   4.714   5.093  10.182  0.2999  0.1509  0.1358
   83SAPS   C11 7756   4.567   5.293  10.014 -0.8226  0.0968  0.1073
   83SAPS  H11A 7757   4.615   5.260   9.920 -0.8968 -1.0060  0.4534
   83SAPS  H11B 7758   4.647   5.327  10.084 -1.3983  1.7949 -0.0346
   83SAPS     P 7759   4.516   5.541   9.937 -0.0536  0.1461 -0.3655
   83SAPS   O13 7760   4.400   5.631   9.968 -0.0713 -0.5315  0.4500
   83SAPS   O14 7761   4.652   5.573   9.987 -0.5428  0.6248  0.0301
   83SAPS   O12 7762   4.474   5.400   9.991  0.4600 -0.0085 -0.0238
   83SAPS   O11 7763   4.526   5.512   9.782 -0.2416 -0.0189  0.6547
   83SAPS    C1 7764   4.416   5.530   9.694  0.3913 -0.0716 -0.6069
   83SAPS    HA 7765   4.333   5.463   9.725 -0.8196  1.1188 -1.1944
   83SAPS    HB 7766   4.382   5.634   9.715 -0.4016  0.5130 -4.3589
   83SAPS    C2 7767   4.467   5.508   9.552  0.6342  0.1673 -0.1880
   83SAPS    HS 7768   4.569   5.553   9.554 -0.0735  1.8252  0.0123
   83SAPS   O21 7769   4.396   5.599   9.469 -0.2660  0.4518 -0.1599
   83SAPS   C21 7770   4.445   5.608   9.343 -0.4370 -0.0173 -0.1948
   83SAPS   O22 7771   4.550   5.567   9.308  0.0730 -0.0443  0.3364
   83SAPS   C22 7772   4.346   5.684   9.249 -0.5005  0.3381 -0.0606
   83SAPS   H2R 7773   4.281   5.604   9.208  0.8566  0.5340 -2.6768
   83SAPS   H2S 7774   4.283   5.747   9.316 -0.6304  0.3519 -0.1965
   83SAPS    C3 7775   4.452   5.359   9.503 -0.2735  0.3441 -0.1377
   83SAPS    HX 7776   4.480   5.306   9.596 -0.7227  1.2081  0.4947
   83SAPS    HY 7777   4.527   5.359   9.421  0.0314 -0.7474  0.1249
   83SAPS   O31 7778   4.318   5.335   9.463  0.6076  0.0642  0.2608
   83SAPS   C31 7779   4.285   5.205   9.455 -0.0320 -0.1268  0.9087
   83SAPS   O32 7780   4.362   5.118   9.482  0.0327 -0.5367 -0.6451
   83SAPS   C32 7781   4.141   5.187   9.414  0.4289 -0.0606  0.3149
   83SAPS   H2X 7782   4.072   5.196   9.501  0.2210  1.2083  0.0287
   83SAPS   H2Y 7783   4.131   5.082   9.379 -0.4690  0.0801  0.1505
   83SAPS   C23 7784   4.411   5.760   9.136  0.3265  0.5714  0.0518
   83SAPS   H3R 7785   4.482   5.692   9.085 -3.6072 -1.9383 -2.3768
   83SAPS   H3S 7786   4.482   5.834   9.178  0.4726 -0.4508  1.6462
   83SAPS   C24 7787   4.321   5.802   9.015 -0.0115  0.0236 -0.5950
   83SAPS   H4R 7788   4.390   5.834   8.934 -0.9045 -1.5231 -2.0068
   83SAPS   H4S 7789   4.266   5.895   9.041  0.2854 -0.1660  0.7588
   83SAPS   C25 7790   4.219   5.695   8.970  0.1240  0.1081  0.0455
   83SAPS   H5R 7791   4.116   5.732   8.960 -0.5782 -1.7307  0.4214
   83SAPS   C26 7792   4.233   5.565   8.934 -0.3811  0.9865 -0.6380
   83SAPS   H6R 7793   4.148   5.496   8.922 -0.9533  1.8526 -1.6646
   83SAPS   C27 7794   4.368   5.496   8.929  0.2889 -0.0503 -0.1111
   83SAPS   H7R 7795   4.449   5.572   8.933 -0.4544  0.8436 -1.6502
   83SAPS   H7S 7796   4.383   5.453   8.828  0.5247 -0.3848  0.0667
   83SAPS   C28 7797   4.391   5.387   9.037  0.1562  0.1260 -0.3466
   83SAPS   H8R 7798   4.432   5.428   9.131 -1.2047  0.5293  0.0729
   83SAPS   C29 7799   4.397   5.250   9.020 -0.1371 -0.3032 -0.4249
   83SAPS   H9R 7800   4.416   5.189   9.109  0.8708 -0.3227 -0.6494
   83SAPS  C210 7801   4.384   5.170   8.890  0.8374 -0.1395 -0.4485
   83SAPS  H10R 7802   4.481   5.120   8.871  1.8577  0.6314  2.5112
   83SAPS  H10S 7803   4.368   5.223   8.793  0.7651 -0.7679 -0.7811
   83SAPS  C211 7804   4.268   5.069   8.894  0.8482 -0.2735 -0.4008
   83SAPS  H11R 7805   4.172   5.097   8.939  0.6522 -0.4995 -0.6731
   83SAPS  C212 7806   4.272   4.948   8.837  0.4419 -0.1597 -0.3607
   83SAPS  H12R 7807   4.181   4.887   8.843 -0.2477  1.0116  1.5106
   83SAPS  C213 7808   4.377   4.880   8.753  0.4807 -0.1192 -0.6518
   83SAPS  H13R 7809   4.480   4.920   8.766  0.8294 -1.3833  0.6583
   83SAPS  H13S 7810   4.357   4.915   8.650 -2.2406  0.5278  0.0521
   83SAPS  C214 7811   4.373   4.734   8.760  0.0177  0.3829  0.1588
   83SAPS  H14R 7812   4.429   4.678   8.835  0.2670 -2.5486 -2.1315
   83SAPS  C215 7813   4.293   4.662   8.683 -1.1489  0.5332  0.5337
   83SAPS  H15R 7814   4.300   4.554   8.703  1.5760  0.5143 -0.3060
   83SAPS  C216 7815   4.194   4.700   8.572  0.1888  0.4353  0.3728
   83SAPS  H16R 7816   4.224   4.672   8.469 -0.1068 -0.5962  0.5575
   83SAPS  H16S 7817   4.189   4.811   8.570  0.4266  0.4437 -4.7906
   83SAPS  C217 7818   4.052   4.648   8.587 -0.2831 -0.5642 -0.9134
   83SAPS  H17R 7819   4.026   4.642   8.695 -0.7865 -2.0914 -1.1032
   83SAPS  H17S 7820   4.041   4.550   8.536 -2.5316 -0.6947 -0.2221
   83SAPS  C218 7821   3.945   4.731   8.523 -0.5742  0.5912 -0.7958
   83SAPS  H18R 7822   3.941   4.824   8.583 -2.3819  0.2881 -0.4095
   83SAPS  H18S 7823   3.840   4.697   8.532 -0.3450 -0.0345 -0.4654
   83SAPS  C219 7824   3.979   4.777   8.372 -0.0001  0.4037 -0.2170
   83SAPS  H19R 7825   3.982   4.678   8.321 -2.3803 -0.3214  0.9438
   83SAPS  H19S 7826   4.082   4.817   8.372  1.4194 -3.0459 -0.2077
   83SAPS  C220 7827   3.893   4.891   8.306  0.0861 -0.3600 -0.0067
   83SAPS  H20R 7828   3.787   4.894   8.339  0.1469  0.9642  0.0903
   83SAPS  H20S 7829   3.904   4.890   8.196 -1.9169  0.3843 -0.2247
   83SAPS  H20T 7830   3.935   4.988   8.341  0.0132 -0.4177  0.2425
   83SAPS   C33 7831   4.102   5.291   9.310 -0.0175  0.1392  0.1875
   83SAPS   H3X 7832   4.179   5.274   9.231  0.3442 -0.8256  0.7373
   83SAPS   H3Y 7833   4.113   5.394   9.349  1.6181  1.2230 -2.9532
   83SAPS   C34 7834   3.976   5.252   9.246  0.4339 -0.0747 -0.3282
   83SAPS   H4X 7835   3.955   5.334   9.174 -0.4597 -0.0859 -0.0898
   83SAPS   H4Y 7836   3.893   5.240   9.319 -1.0681  0.0161 -1.9548
   83SAPS   C35 7837   3.983   5.121   9.164 -0.1866 -0.3795 -0.0240
   83SAPS   H5X 7838   3.989   5.035   9.235  1.2197 -0.7401 -0.5628
   83SAPS   H5Y 7839   4.076   5.122   9.104 -0.8031 -2.5493 -1.0545
   83SAPS   C36 7840   3.874   5.098   9.062  0.4347 -0.0424  0.2305
   83SAPS   H6X 7841   3.867   5.190   8.999  0.0473  0.2027  0.6351
   83SAPS   H6Y 7842   3.777   5.085   9.113 -0.5856 -0.9102 -1.8762
   83SAPS   C37 7843   3.885   4.984   8.964  0.4826  1.1457 -0.0872
   83SAPS   H7X 7844   3.911   4.895   9.025 -0.0222  3.3455  3.4805
   83SAPS   H7Y 7845   3.977   5.007   8.905  0.8698  1.8711  0.7939
   83SAPS   C38 7846   3.767   4.957   8.874  0.8603 -0.1402  0.1392
   83SAPS   H8X 7847   3.679   4.933   8.938 -0.6491 -0.3677 -1.9616
   83SAPS   H8Y 7848   3.781   4.876   8.800 -0.3712 -0.8585  0.6716
   83SAPS   C39 7849   3.739   5.076   8.780 -0.7870  0.6722 -0.2622
   83SAPS   H9X 7850   3.832   5.099   8.724 -0.0318  0.2291  0.7796
   83SAPS   H9Y 7851   3.712   5.166   8.839  2.0995  0.6092  1.2557
   83SAPS  C310 7852   3.631   5.043   8.671  0.7895 -0.0177  0.5544
   83SAPS  H10X 7853   3.639   4.946   8.618  1.8142  0.6054 -0.4682
   83SAPS  H10Y 7854   3.644   5.119   8.590 -1.4926  0.5447  0.6833
   83SAPS  C311 7855   3.490   5.053   8.718 -0.5815 -0.0792  0.3128
   83SAPS  H11X 7856   3.465   5.161   8.728  0.0411  0.2297 -1.3591
   83SAPS  H11Y 7857   3.461   4.992   8.807  0.0742 -1.4650 -0.4084
   83SAPS  C312 7858   3.401   4.983   8.612 -0.4706  0.0906 -0.0522
   83SAPS  H12X 7859   3.441   4.880   8.598 -2.0547 -0.1756 -3.0410
   83SAPS  H12Y 7860   3.415   5.031   8.513  1.1544  0.4877  0.3556
   83SAPS  C313 7861   3.249   4.964   8.627  0.5580  0.2459  0.4660
   83SAPS  H13X 7862   3.203   5.058   8.664 -0.6330  0.0901 -0.6109
   83SAPS  H13Y 7863   3.214   4.884   8.694  0.5422 -1.3659 -1.4147
   83SAPS  C314 7864   3.182   4.940   8.490 -0.0321  0.2921 -0.1246
   83SAPS  H14X 7865   3.210   5.030   8.431  1.9550 -0.0635  0.2470
   83SAPS  H14Y 7866   3.071   4.935   8.500 -0.0329  1.1444  0.3629
   83SAPS  C315 7867   3.221   4.813   8.423 -0.2064 -0.3008  0.0207
   83SAPS  H15X 7868   3.214   4.714   8.474 -1.3645  0.5731  1.6122
   83SAPS  H15Y 7869   3.330   4.816   8.406 -0.0633 -1.3543  0.6619
   83SAPS  C316 7870   3.152   4.790   8.285 -0.0739 -0.1302  0.1297
   83SAPS  H16X 7871   3.042   4.774   8.289 -0.2215  0.2795 -1.9364
   83SAPS  H16Y 7872   3.201   4.699   8.245  0.1829  0.0968 -0.0685
   83SAPS  C317 7873   3.188   4.895   8.178  0.1025  0.2034  0.5966
   83SAPS  H17X 7874   3.298   4.908   8.182  0.2025  0.0159 -1.0396
   83SAPS  H17Y 7875   3.152   4.996   8.206 -0.0190  0.6359 -1.0433
   83SAPS  C318 7876   3.136   4.862   8.041  0.4148 -0.3813 -0.2702
   83SAPS  H18X 7877   3.155   4.949   7.975  0.6163  0.6375  1.0984
   83SAPS  H18Y 7878   3.026   4.846   8.042  0.4967 -1.0155 -0.7525
   83SAPS  H18Z 7879   3.184   4.770   8.000  0.9967 -1.7752  3.3206
   84SAPS     N 7880   5.989   2.995   9.952  0.0442  0.2705 -0.3094
   84SAPS   HN1 7881   5.918   2.919   9.953 -0.3365  0.6304  0.3262
   84SAPS   HN2 7882   5.983   3.054   9.866 -0.2587  1.8425  0.7736
   84SAPS   HN3 7883   6.088   2.962   9.957 -0.1646 -0.0760  1.9501
   84SAPS   C12 7884   5.959   3.086  10.065  0.2516  0.1729  0.7289
   84SAPS  H12A 7885   5.854   3.104  10.046  0.1119 -1.2334  0.0831
   84SAPS   C13 7886   5.985   3.035  10.208  0.5419  0.3185 -0.0534
   84SAPS  O13A 7887   6.029   2.919  10.220  0.0879  0.6537  0.1217
   84SAPS  O13B 7888   5.958   3.110  10.305 -0.4636  0.1821  0.0314
   84SAPS   C11 7889   6.040   3.215  10.043 -0.8914 -0.3380  0.2573
   84SAPS  H11A 7890   6.148   3.189  10.040 -0.9288 -0.5399  0.6937
   84SAPS  H11B 7891   6.026   3.282  10.130 -0.1136 -0.6711  0.6498
   84SAPS     P 7892   6.018   3.435   9.905  0.1017  0.0234 -0.0169
   84SAPS   O13 7893   5.882   3.491   9.914 -0.3321 -0.5406  0.9418
   84SAPS   O14 7894   6.118   3.494   9.996  0.5555  0.1131  0.2039
   84SAPS   O12 7895   6.000   3.280   9.920  0.0539  0.6295 -0.6429
   84SAPS   O11 7896   6.069   3.457   9.762 -0.8568 -0.5655 -0.6120
   84SAPS    C1 7897   6.006   3.405   9.644 -0.0917  0.4721 -0.5886
   84SAPS    HA 7898   5.983   3.299   9.667  1.9965  0.4764  1.6694
   84SAPS    HB 7899   5.914   3.461   9.616 -1.9908 -1.8806  0.7436
   84SAPS    C2 7900   6.108   3.410   9.524 -0.4727 -0.7661 -0.7165
   84SAPS    HS 7901   6.203   3.361   9.555 -1.9319 -3.0557  0.2800
   84SAPS   O21 7902   6.132   3.541   9.488  0.3407  0.2095 -0.3644
   84SAPS   C21 7903   6.226   3.571   9.409 -0.9995  0.0659  0.0896
   84SAPS   O22 7904   6.322   3.503   9.371  0.5431 -0.5492 -0.6209
   84SAPS   C22 7905   6.200   3.706   9.348  0.1879  0.3123 -0.3492
   84SAPS   H2R 7906   6.093   3.729   9.363 -0.7187 -4.2290  0.8089
   84SAPS   H2S 7907   6.253   3.779   9.412  2.0009  1.4797 -3.0932
   84SAPS    C3 7908   6.052   3.332   9.402 -0.3458 -0.9910  0.0736
   84SAPS    HX 7909   6.054   3.227   9.439  2.6214 -0.5716  1.2729
   84SAPS    HY 7910   6.128   3.326   9.321 -1.4673 -0.1068 -1.0528
   84SAPS   O31 7911   5.919   3.375   9.366 -0.4745  0.1648  0.3447
   84SAPS   C31 7912   5.889   3.336   9.238  0.5601 -0.0771 -0.8303
   84SAPS   O32 7913   5.955   3.253   9.178  0.1814 -1.1961 -0.0008
   84SAPS   C32 7914   5.758   3.383   9.191 -0.7148  0.3474  0.4375
   84SAPS   H2X 7915   5.754   3.493   9.207 -1.4598  0.2346  1.0702
   84SAPS   H2Y 7916   5.687   3.325   9.255 -0.9168 -0.1442 -0.2272
   84SAPS   C23 7917   6.252   3.732   9.207  0.4386  0.8802 -0.5407
   84SAPS   H3R 7918   6.329   3.656   9.181 -1.2695 -0.5594 -1.5079
   84SAPS   H3S 7919   6.283   3.837   9.191 -1.5508  1.5955  0.1187
   84SAPS   C24 7920   6.137   3.707   9.106  0.1606 -0.5247  0.1173
   84SAPS   H4R 7921   6.156   3.764   9.012 -0.2457  0.9427  0.9015
   84SAPS   H4S 7922   6.038   3.745   9.139 -0.5294 -1.0550 -1.3074
   84SAPS   C25 7923   6.120   3.564   9.063 -0.4638  0.4668 -0.0702
   84SAPS   H5R 7924   6.026   3.512   9.088 -0.6842 -0.1127 -1.9875
   84SAPS   C26 7925   6.197   3.497   8.977 -0.2836 -0.1409 -0.9018
   84SAPS   H6R 7926   6.168   3.393   8.956 -0.0934 -0.1386 -1.1900
   84SAPS   C27 7927   6.316   3.553   8.906  0.6377  0.2293  0.2635
   84SAPS   H7R 7928   6.380   3.607   8.980  0.8346  0.6099 -0.1794
   84SAPS   H7S 7929   6.269   3.626   8.837 -2.4592 -1.2332  0.7679
   84SAPS   C28 7930   6.410   3.449   8.852  0.0551 -0.1765 -0.6396
   84SAPS   H8R 7931   6.420   3.362   8.919 -0.9354 -1.2071 -1.8075
   84SAPS   C29 7932   6.474   3.455   8.738  0.1639 -0.1106 -0.2993
   84SAPS   H9R 7933   6.530   3.369   8.697 -0.3345 -0.2214 -0.7601
   84SAPS  C210 7934   6.464   3.572   8.643  0.0503 -0.1363 -0.1769
   84SAPS  H10R 7935   6.561   3.584   8.590 -0.0311  2.4737  0.1824
   84SAPS  H10S 7936   6.458   3.673   8.689  2.3458 -0.2946  0.5221
   84SAPS  C211 7937   6.348   3.543   8.552  0.0035  0.1961  0.1015
   84SAPS  H11R 7938   6.255   3.508   8.600  0.4298 -1.2416 -0.1015
   84SAPS  C212 7939   6.336   3.573   8.422 -0.6085 -0.1155  0.4503
   84SAPS  H12R 7940   6.240   3.563   8.368 -1.8442  0.5801  2.4472
   84SAPS  C213 7941   6.447   3.643   8.342 -0.1067 -0.0713 -0.0021
   84SAPS  H13R 7942   6.513   3.701   8.410 -1.0615 -1.1193  1.8462
   84SAPS  H13S 7943   6.402   3.716   8.271 -0.6510 -0.8178 -0.4343
   84SAPS  C214 7944   6.521   3.546   8.256  0.1243  0.1068  0.3117
   84SAPS  H14R 7945   6.527   3.447   8.303 -1.8019 -0.4086 -0.4870
   84SAPS  C215 7946   6.568   3.567   8.131  0.1306 -0.2903 -0.2498
   84SAPS  H15R 7947   6.628   3.490   8.081  2.1883 -0.5283  2.4766
   84SAPS  C216 7948   6.548   3.689   8.047 -0.3568 -0.5441  0.6141
   84SAPS  H16R 7949   6.642   3.747   8.030 -0.4821 -0.7944 -1.0483
   84SAPS  H16S 7950   6.471   3.758   8.087  0.0435 -0.0854  0.5974
   84SAPS  C217 7951   6.508   3.658   7.900 -0.3751 -0.7566  0.0327
   84SAPS  H17R 7952   6.408   3.612   7.888  0.0532 -1.2460 -1.7122
   84SAPS  H17S 7953   6.587   3.594   7.855  3.4204  1.9596  2.4791
   84SAPS  C218 7954   6.510   3.799   7.825 -0.1700 -0.6041  0.2620
   84SAPS  H18R 7955   6.613   3.836   7.807 -0.5182  0.8013  1.0537
   84SAPS  H18S 7956   6.467   3.872   7.896 -3.7896 -1.5267 -0.8816
   84SAPS  C219 7957   6.420   3.799   7.703  0.6499 -0.4206  0.2618
   84SAPS  H19R 7958   6.412   3.901   7.661 -1.8903 -0.4223  0.6657
   84SAPS  H19S 7959   6.317   3.764   7.728  1.3009 -2.0411  0.7526
   84SAPS  C220 7960   6.454   3.712   7.586 -0.2314  1.6599  0.2675
   84SAPS  H20R 7961   6.400   3.736   7.492 -1.1831  0.8295  0.6012
   84SAPS  H20S 7962   6.423   3.607   7.604 -1.0565  2.0393  1.1057
   84SAPS  H20T 7963   6.563   3.723   7.570  0.1156  0.1028  1.4781
   84SAPS   C33 7964   5.738   3.360   9.044 -0.2273  0.1021  0.0363
   84SAPS   H3X 7965   5.733   3.252   9.018 -1.7193 -0.3977  2.2835
   84SAPS   H3Y 7966   5.825   3.405   8.992 -1.8608  4.5579  1.0029
   84SAPS   C34 7967   5.616   3.425   8.990  0.8835 -0.4520  0.1402
   84SAPS   H4X 7968   5.619   3.535   9.004 -2.5865 -0.2449 -0.1898
   84SAPS   H4Y 7969   5.534   3.397   9.060  1.3128  1.9729  1.6727
   84SAPS   C35 7970   5.579   3.405   8.843  0.1322  0.3215  0.8582
   84SAPS   H5X 7971   5.558   3.299   8.817  1.4350  0.2758 -0.0302
   84SAPS   H5Y 7972   5.653   3.454   8.775 -0.3320 -0.4061 -0.1892
   84SAPS   C36 7973   5.446   3.478   8.813 -0.0698  0.0050 -0.0616
   84SAPS   H6X 7974   5.469   3.582   8.780  1.0186 -0.1080  0.3119
   84SAPS   H6Y 7975   5.380   3.474   8.902 -0.7532 -0.5575 -0.5940
   84SAPS   C37 7976   5.375   3.419   8.695 -0.7108  0.1813 -0.7949
   84SAPS   H7X 7977   5.357   3.312   8.717  0.6487 -0.3916 -2.3516
   84SAPS   H7Y 7978   5.442   3.421   8.606  0.8801  0.4486  0.3833
   84SAPS   C38 7979   5.234   3.483   8.666 -0.7632  0.0851 -0.5439
   84SAPS   H8X 7980   5.196   3.506   8.768 -0.9257  1.1838 -0.8402
   84SAPS   H8Y 7981   5.161   3.408   8.629  0.2147 -3.5982  4.4620
   84SAPS   C39 7982   5.248   3.606   8.578  0.0300  0.1980  0.4377
   84SAPS   H9X 7983   5.277   3.683   8.653 -0.5208  0.2230  0.6338
   84SAPS   H9Y 7984   5.146   3.631   8.543  0.1943  0.3651  0.0846
   84SAPS  C310 7985   5.334   3.602   8.459  0.6712  0.5145 -0.1501
   84SAPS  H10X 7986   5.293   3.521   8.395 -0.9112  2.3393 -1.5099
   84SAPS  H10Y 7987   5.439   3.571   8.475  0.9311  0.9146 -1.0273
   84SAPS  C311 7988   5.334   3.729   8.386  0.5413  0.1092  0.3715
   84SAPS  H11X 7989   5.407   3.802   8.426 -0.4633  0.7632  1.0303
   84SAPS  H11Y 7990   5.238   3.784   8.394 -0.3935 -1.2332 -1.2461
   84SAPS  C312 7991   5.383   3.713   8.238  0.3925  0.2062  0.1965
   84SAPS  H12X 7992   5.333   3.795   8.182  0.9720 -0.8309 -1.8895
   84SAPS  H12Y 7993   5.320   3.633   8.192 -0.0682  0.9038 -0.3951
   84SAPS  C313 7994   5.534   3.709   8.200  0.2646  0.1465 -0.0881
   84SAPS  H13X 7995   5.585   3.618   8.238  1.2096  0.9104  0.4944
   84SAPS  H13Y 7996   5.590   3.788   8.255  0.5588  0.1116 -0.3385
   84SAPS  C314 7997   5.553   3.716   8.049  0.3561  0.7485  0.9880
   84SAPS  H14X 7998   5.658   3.740   8.022  0.1850 -0.5923 -0.9686
   84SAPS  H14Y 7999   5.496   3.802   8.008  0.0725 -0.2683 -0.8280
   84SAPS  C315 8000   5.520   3.586   7.970  0.9076  0.2564  0.7447
   84SAPS  H15X 8001   5.413   3.567   7.992  0.4472  0.5670 -1.1477
   84SAPS  H15Y 8002   5.581   3.498   8.001 -1.8904 -2.1226 -0.3469
   84SAPS  C316 8003   5.539   3.589   7.812 -0.5168 -0.0169 -0.3504
   84SAPS  H16X 8004   5.517   3.486   7.777  0.5597  0.3637 -2.2200
   84SAPS  H16Y 8005   5.645   3.605   7.784 -0.9200  1.6875 -0.9548
   84SAPS  C317 8006   5.452   3.682   7.723 -0.4958  0.6144  0.1545
   84SAPS  H17X 8007   5.468   3.790   7.742 -2.5048  1.5468 -3.0157
   84SAPS  H17Y 8008   5.342   3.663   7.732 -0.7070  0.5899 -2.1060
   84SAPS  C318 8009   5.470   3.659   7.565 -0.2949  0.2531  0.7175
   84SAPS  H18X 8010   5.579   3.653   7.545 -0.6064 -2.5801 -0.4048
   84SAPS  H18Y 8011   5.435   3.748   7.509 -2.9618 -1.0234  0.2961
   84SAPS  H18Z 8012   5.424   3.566   7.525  0.3536  0.1912  0.1088
   85SAPS     N 8013   2.357   6.364  10.105 -0.1697  0.6025 -0.5836
   85SAPS   HN1 8014   2.282   6.408  10.162 -0.3964 -0.2514 -0.2024
   85SAPS   HN2 8015   2.414   6.435  10.055  0.1493  1.5903  1.1383
   85SAPS   HN3 8016   2.309   6.303  10.037  1.5228  1.1875 -2.3398
   85SAPS   C12 8017   2.443   6.263  10.175  0.5183 -0.3781  1.0080
   85SAPS  H12A 8018   2.539   6.252  10.125 -0.7716 -0.2104 -1.6106
   85SAPS   C13 8019   2.490   6.302  10.316 -0.5038 -0.5287  0.1374
   85SAPS  O13A 8020   2.479   6.423  10.349  0.1721 -0.3696 -0.0421
   85SAPS  O13B 8021   2.567   6.219  10.371 -0.5398 -0.2959  0.2967
   85SAPS   C11 8022   2.354   6.134  10.171 -0.4571  0.4279 -0.2646
   85SAPS  H11A 8023   2.275   6.136  10.250  0.7307  0.0601  0.9452
   85SAPS  H11B 8024   2.424   6.055  10.204 -2.5920 -0.8099  1.4813
   85SAPS     P 8025   2.344   5.980   9.964  0.9550  0.3666  0.0640
   85SAPS   O13 8026   2.484   6.003   9.924  0.6326  0.0227 -0.3998
   85SAPS   O14 8027   2.321   5.855  10.037  0.1219 -0.1045  0.2398
   85SAPS   O12 8028   2.285   6.106  10.044  0.9807 -0.0855 -0.2052
   85SAPS   O11 8029   2.252   5.978   9.834 -0.6370 -0.6944 -0.5103
   85SAPS    C1 8030   2.115   6.018   9.825  0.8831  0.0637 -0.5898
   85SAPS    HA 8031   2.058   5.935   9.777 -0.9633  1.2195 -0.4348
   85SAPS    HB 8032   2.067   6.028   9.925 -0.8068  0.0218 -1.3653
   85SAPS    C2 8033   2.086   6.138   9.728  0.1116  0.5905 -0.0107
   85SAPS    HS 8034   1.976   6.151   9.728  0.1230  0.9117  2.8058
   85SAPS   O21 8035   2.135   6.109   9.601 -0.2340  0.0374  0.2676
   85SAPS   C21 8036   2.083   6.187   9.506  0.0841  0.1233  0.3342
   85SAPS   O22 8037   1.992   6.267   9.518  0.2458 -0.1597 -0.8279
   85SAPS   C22 8038   2.146   6.148   9.375  0.4750  0.7970 -0.1920
   85SAPS   H2R 8039   2.257   6.151   9.383  0.5534  1.4789 -1.4457
   85SAPS   H2S 8040   2.113   6.043   9.361  0.1681  0.9524 -0.6645
   85SAPS    C3 8041   2.148   6.266   9.790  0.6329  0.4820  0.6435
   85SAPS    HX 8042   2.121   6.256   9.898 -0.9778  1.5638  0.3545
   85SAPS    HY 8043   2.097   6.360   9.759  1.0213  1.1496  1.9835
   85SAPS   O31 8044   2.285   6.274   9.773  0.3639 -0.2275 -0.6692
   85SAPS   C31 8045   2.343   6.360   9.691 -0.2034 -0.3447 -1.0619
   85SAPS   O32 8046   2.289   6.446   9.624 -0.1307 -0.3816  0.2650
   85SAPS   C32 8047   2.494   6.320   9.685 -0.4967 -0.0706  1.1149
   85SAPS   H2X 8048   2.504   6.210   9.678 -1.8998 -0.0566 -1.9096
   85SAPS   H2Y 8049   2.538   6.346   9.783 -0.0802  0.9722  0.6583
   85SAPS   C23 8050   2.098   6.231   9.251  0.6891 -0.7645 -0.1708
   85SAPS   H3R 8051   1.995   6.271   9.260 -0.1683 -3.0165  0.4782
   85SAPS   H3S 8052   2.104   6.166   9.160  0.1874  2.6995 -2.7624
   85SAPS   C24 8053   2.191   6.361   9.250  0.6898 -0.1742 -0.7566
   85SAPS   H4R 8054   2.298   6.332   9.235  0.5196 -0.2248 -1.8920
   85SAPS   H4S 8055   2.171   6.403   9.351  0.7608  0.9255 -1.1866
   85SAPS   C25 8056   2.155   6.457   9.146 -0.3893 -1.0909  0.8707
   85SAPS   H5R 8057   2.140   6.422   9.043  0.7120  1.8445 -0.3271
   85SAPS   C26 8058   2.117   6.584   9.166 -0.1488  0.2271 -0.2293
   85SAPS   H6R 8059   2.067   6.629   9.079  0.5798  2.3913  0.4593
   85SAPS   C27 8060   2.101   6.667   9.296 -0.2753  0.4967  0.2034
   85SAPS   H7R 8061   2.197   6.722   9.309 -0.1575  0.7649 -1.6723
   85SAPS   H7S 8062   2.095   6.591   9.377  0.9629 -1.7409 -1.7607
   85SAPS   C28 8063   2.001   6.776   9.309  0.2863 -0.5368  0.2245
   85SAPS   H8R 8064   1.962   6.793   9.410  2.9475 -0.6672  1.2880
   85SAPS   C29 8065   1.957   6.867   9.214 -0.4166 -0.0647  0.5107
   85SAPS   H9R 8066   1.887   6.946   9.248 -0.8301  0.9220 -2.4678
   85SAPS  C210 8067   1.992   6.880   9.063  0.4670 -0.2518 -0.0301
   85SAPS  H10R 8068   1.941   6.800   9.005  0.2434 -1.2298  1.4901
   85SAPS  H10S 8069   2.102   6.868   9.051  0.7917 -0.4136  2.7917
   85SAPS  C211 8070   1.956   7.014   9.001 -0.4690 -0.4734 -0.3351
   85SAPS  H11R 8071   1.928   7.094   9.071  0.8440 -0.0746 -0.2497
   85SAPS  C212 8072   1.961   7.052   8.871  0.5750 -0.2009  0.3088
   85SAPS  H12R 8073   1.939   7.156   8.845 -0.8813 -0.5331  0.1338
   85SAPS  C213 8074   2.009   6.972   8.755  0.2128 -0.7328  0.8429
   85SAPS  H13R 8075   1.925   6.943   8.688  1.1740  0.2854 -0.8306
   85SAPS  H13S 8076   2.035   6.871   8.794  0.9012 -1.4228 -1.3606
   85SAPS  C214 8077   2.131   7.038   8.689  0.1371 -0.1192 -0.7251
   85SAPS  H14R 8078   2.227   7.025   8.742 -0.5284 -0.0518  0.5193
   85SAPS  C215 8079   2.135   7.117   8.585  0.6240 -0.4359  0.0553
   85SAPS  H15R 8080   2.226   7.143   8.529  1.2491  0.8240  1.6063
   85SAPS  C216 8081   2.016   7.165   8.499  0.3672 -0.0305  0.8117
   85SAPS  H16R 8082   2.017   7.276   8.494 -3.1272  0.0641  1.1844
   85SAPS  H16S 8083   1.918   7.139   8.543 -0.1565 -0.0417 -0.3386
   85SAPS  C217 8084   2.029   7.108   8.360 -0.0739  0.4914 -0.1749
   85SAPS  H17R 8085   2.129   7.137   8.321 -0.0814  0.9398  0.1440
   85SAPS  H17S 8086   1.947   7.151   8.299 -0.6714  0.4001  0.5569
   85SAPS  C218 8087   2.037   6.954   8.353  0.4244  0.5996  0.4505
   85SAPS  H18R 8088   1.935   6.915   8.377  0.4737 -0.2308 -0.6642
   85SAPS  H18S 8089   2.114   6.902   8.414 -0.8779  0.2309  1.8337
   85SAPS  C219 8090   2.059   6.911   8.202  0.6060  0.6873  0.7844
   85SAPS  H19R 8091   2.144   6.968   8.158 -1.2884  2.6714 -0.4102
   85SAPS  H19S 8092   1.968   6.951   8.152  0.1646 -1.5035 -0.2105
   85SAPS  C220 8093   2.089   6.764   8.175  0.7077  0.0705 -0.9779
   85SAPS  H20R 8094   2.012   6.694   8.216 -0.7080  2.1195 -0.0398
   85SAPS  H20S 8095   2.182   6.733   8.228 -0.5893  0.5004  1.6617
   85SAPS  H20T 8096   2.085   6.734   8.068  0.1953 -0.8988 -0.6993
   85SAPS   C33 8097   2.573   6.402   9.576  0.6701 -0.5531  0.7880
   85SAPS   H3X 8098   2.680   6.402   9.608  0.4882 -2.9118  1.4474
   85SAPS   H3Y 8099   2.534   6.506   9.575  0.8345 -0.4915 -0.4531
   85SAPS   C34 8100   2.553   6.335   9.436  0.0031  0.0832  0.6564
   85SAPS   H4X 8101   2.448   6.302   9.424 -1.0277  2.7931  1.7229
   85SAPS   H4Y 8102   2.614   6.242   9.443  1.0004  0.7824  1.5226
   85SAPS   C35 8103   2.596   6.423   9.320 -0.2073  0.0336 -0.1825
   85SAPS   H5X 8104   2.701   6.458   9.330  0.4746 -0.6115 -4.1562
   85SAPS   H5Y 8105   2.533   6.513   9.302 -1.1093 -1.0757 -2.8753
   85SAPS   C36 8106   2.593   6.338   9.190  0.3662 -0.7641 -0.1738
   85SAPS   H6X 8107   2.491   6.307   9.160 -0.3853  2.0259 -0.5758
   85SAPS   H6Y 8108   2.657   6.249   9.211 -0.5673 -0.7343  3.0760
   85SAPS   C37 8109   2.639   6.413   9.067 -0.2142 -0.7440 -0.2932
   85SAPS   H7X 8110   2.743   6.447   9.083 -0.6652  0.2705  0.5438
   85SAPS   H7Y 8111   2.579   6.507   9.058  0.3877 -0.4730 -1.6958
   85SAPS   C38 8112   2.625   6.347   8.927  0.2079 -0.3326 -0.7954
   85SAPS   H8X 8113   2.515   6.347   8.913  0.0416 -2.0638  0.4044
   85SAPS   H8Y 8114   2.655   6.240   8.922  0.8781 -0.2707  1.2963
   85SAPS   C39 8115   2.684   6.434   8.809  0.0644 -0.3494  0.1016
   85SAPS   H9X 8116   2.795   6.440   8.815  0.0374 -0.8144  1.2432
   85SAPS   H9Y 8117   2.648   6.538   8.821  1.0677 -0.0297  0.4372
   85SAPS  C310 8118   2.629   6.379   8.672  0.2232 -0.0895  0.5121
   85SAPS  H10X 8119   2.641   6.460   8.596 -0.5365 -0.4506  0.0116
   85SAPS  H10Y 8120   2.519   6.369   8.684  0.0834 -1.7046 -1.8480
   85SAPS  C311 8121   2.700   6.263   8.608 -0.2518  0.9097  0.4104
   85SAPS  H11X 8122   2.697   6.175   8.677  0.9835 -1.5881 -2.6039
   85SAPS  H11Y 8123   2.806   6.289   8.586  0.2641 -2.2737 -1.2406
   85SAPS  C312 8124   2.632   6.222   8.474 -0.4676 -0.7278  0.7353
   85SAPS  H12X 8125   2.712   6.187   8.404 -0.0594 -0.3674  1.0173
   85SAPS  H12Y 8126   2.599   6.318   8.428  0.4922 -0.5390  0.4234
   85SAPS  C313 8127   2.522   6.121   8.492  0.9431  0.4097  0.2640
   85SAPS  H13X 8128   2.469   6.167   8.578  2.3898 -0.7295  1.7805
   85SAPS  H13Y 8129   2.548   6.020   8.529 -0.6364 -0.6379 -1.4022
   85SAPS  C314 8130   2.446   6.099   8.366 -0.1066 -0.3956 -0.0243
   85SAPS  H14X 8131   2.413   6.196   8.324 -0.7821 -1.0812 -1.0941
   85SAPS  H14Y 8132   2.358   6.037   8.392 -0.5015  0.2422  0.1704
   85SAPS  C315 8133   2.528   6.028   8.256 -0.2915  0.4709 -0.4067
   85SAPS  H15X 8134   2.462   5.944   8.227 -0.5451 -1.1938  4.5481
   85SAPS  H15Y 8135   2.625   5.998   8.302 -0.3412 -0.7678 -1.0826
   85SAPS  C316 8136   2.552   6.113   8.128  0.5939  0.6960 -0.4102
   85SAPS  H16X 8137   2.610   6.203   8.160  0.8545  0.0194  1.0715
   85SAPS  H16Y 8138   2.455   6.133   8.077 -0.0819 -0.4276  0.4104
   85SAPS  C317 8139   2.651   6.044   8.030 -0.2095  0.3140  0.7695
   85SAPS  H17X 8140   2.718   5.989   8.100  0.4452 -1.4595 -1.1937
   85SAPS  H17Y 8141   2.706   6.125   7.978  0.9378  0.4194  2.1345
   85SAPS  C318 8142   2.586   5.954   7.925 -0.1393  0.0522 -0.4334
   85SAPS  H18X 8143   2.501   5.994   7.865  1.6017  4.1696 -0.3449
   85SAPS  H18Y 8144   2.558   5.859   7.976  0.0123  0.7587  1.0164
   85SAPS  H18Z 8145   2.657   5.918   7.848  0.4330 -0.3339  0.2701
   86SAPS     N 8146   5.070   6.395   9.944  0.1153  0.2781 -0.2826
   86SAPS   HN1 8147   5.038   6.493   9.940  0.7727  0.4748 -0.6650
   86SAPS   HN2 8148   5.117   6.372   9.854  2.3673 -1.7621  1.3146
   86SAPS   HN3 8149   4.991   6.329   9.960  2.7008 -2.4750  1.8563
   86SAPS   C12 8150   5.165   6.369  10.055 -0.9448 -0.0304 -0.2290
   86SAPS  H12A 8151   5.255   6.424  10.031 -1.0695  0.5163  0.5350
   86SAPS   C13 8152   5.110   6.419  10.195 -0.2906 -0.1933 -0.4486
   86SAPS  O13A 8153   5.004   6.478  10.199 -0.3194  0.2096  0.6522
   86SAPS  O13B 8154   5.177   6.389  10.297 -0.6434  0.5709 -0.4123
   86SAPS   C11 8155   5.195   6.218  10.059  0.1576  0.1879  0.1810
   86SAPS  H11A 8156   5.098   6.165  10.070 -1.4875  3.6862  4.0911
   86SAPS  H11B 8157   5.267   6.202  10.142 -0.1100 -0.5029  0.2823
   86SAPS     P 8158   5.272   6.014   9.919  0.2953  0.0700 -0.0033
   86SAPS   O13 8159   5.386   5.974  10.003 -0.2918  0.1242  0.7629
   86SAPS   O14 8160   5.142   5.945   9.943 -0.8277  0.0138 -0.0167
   86SAPS   O12 8161   5.257   6.172   9.935  0.3136  0.1726 -0.3848
   86SAPS   O11 8162   5.320   5.993   9.769  0.1251  0.3355 -0.2073
   86SAPS    C1 8163   5.249   6.069   9.671 -0.0394 -0.0386  0.2751
   86SAPS    HA 8164   5.165   6.122   9.719 -1.0607 -1.7842  0.4442
   86SAPS    HB 8165   5.327   6.127   9.618 -0.8189 -0.3881 -1.2796
   86SAPS    C2 8166   5.184   5.969   9.569  0.4168 -0.3176  0.3649
   86SAPS    HS 8167   5.093   5.930   9.619  0.5704  0.4667  1.2884
   86SAPS   O21 8168   5.283   5.875   9.534 -0.2386  0.2190 -0.6577
   86SAPS   C21 8169   5.239   5.756   9.495  0.9516  0.1897  0.1788
   86SAPS   O22 8170   5.123   5.714   9.513  0.2905  0.9843  0.2924
   86SAPS   C22 8171   5.343   5.699   9.403  0.6239  0.4198 -0.5552
   86SAPS   H2R 8172   5.434   5.698   9.467 -0.2827 -2.4836  0.7504
   86SAPS   H2S 8173   5.315   5.593   9.387  0.3436  0.6385 -1.5938
   86SAPS    C3 8174   5.123   6.037   9.432 -1.0987  0.2994 -0.0356
   86SAPS    HX 8175   5.052   6.114   9.466  0.1704  1.8895 -0.9129
   86SAPS    HY 8176   5.070   5.956   9.376 -1.5641  0.7503 -0.2468
   86SAPS   O31 8177   5.230   6.097   9.350  0.1914 -0.1993  0.3797
   86SAPS   C31 8178   5.218   6.228   9.327  0.0646  0.1946 -0.3170
   86SAPS   O32 8179   5.144   6.306   9.378  0.1109 -0.5490  0.7892
   86SAPS   C32 8180   5.317   6.272   9.220  0.5784 -0.4362  0.4284
   86SAPS   H2X 8181   5.403   6.207   9.247 -0.2271 -1.2722  1.0477
   86SAPS   H2Y 8182   5.336   6.380   9.238  0.0474 -0.2168 -0.2909
   86SAPS   C23 8183   5.358   5.778   9.273  0.7211 -0.7452  0.1996
   86SAPS   H3R 8184   5.467   5.775   9.248  0.2956  4.2444 -3.0143
   86SAPS   H3S 8185   5.324   5.882   9.290 -0.6051 -0.8829 -1.5006
   86SAPS   C24 8186   5.266   5.732   9.158  0.3591  0.2278  0.0829
   86SAPS   H4R 8187   5.167   5.727   9.208  1.1307 -0.1354  1.6064
   86SAPS   H4S 8188   5.273   5.626   9.124 -0.9813 -0.1105  0.8129
   86SAPS   C25 8189   5.283   5.830   9.042  0.4548 -0.0303  0.3004
   86SAPS   H5R 8190   5.220   5.919   9.053 -0.5853 -0.4500 -2.1084
   86SAPS   C26 8191   5.355   5.811   8.929  0.4658  0.1763 -0.0935
   86SAPS   H6R 8192   5.363   5.888   8.851 -0.5303 -1.3688 -1.7693
   86SAPS   C27 8193   5.438   5.683   8.896  0.3800  0.2082  0.3208
   86SAPS   H7R 8194   5.414   5.603   8.969 -0.1626  0.1719  0.1060
   86SAPS   H7S 8195   5.544   5.713   8.896 -0.1458  2.2038  2.5844
   86SAPS   C28 8196   5.408   5.623   8.757  0.0908  0.0847  0.6413
   86SAPS   H8R 8197   5.311   5.571   8.754 -0.8075  1.7534  0.0716
   86SAPS   C29 8198   5.481   5.629   8.643 -0.2615 -1.0524 -0.5010
   86SAPS   H9R 8199   5.435   5.597   8.548 -0.0971 -1.6526 -0.3855
   86SAPS  C210 8200   5.614   5.697   8.621 -0.6294 -0.8588  0.1659
   86SAPS  H10R 8201   5.673   5.639   8.546 -0.5111  0.6798 -0.9586
   86SAPS  H10S 8202   5.667   5.687   8.718 -0.3719  0.4676  0.1757
   86SAPS  C211 8203   5.614   5.844   8.575  0.4849 -0.6837 -0.3713
   86SAPS  H11R 8204   5.653   5.919   8.644 -1.6314 -1.9676  2.3058
   86SAPS  C212 8205   5.571   5.891   8.452  0.6304  0.3419  0.1658
   86SAPS  H12R 8206   5.553   5.999   8.436  0.7256  0.6280  1.9103
   86SAPS  C213 8207   5.519   5.819   8.331 -0.3125  0.3683  0.0544
   86SAPS  H13R 8208   5.522   5.711   8.356 -0.3712  0.5784  0.9962
   86SAPS  H13S 8209   5.585   5.834   8.242 -0.5380  0.6665 -0.0642
   86SAPS  C214 8210   5.378   5.867   8.306 -0.0045 -0.2307 -0.0182
   86SAPS  H14R 8211   5.309   5.827   8.382  3.0976 -2.6658  1.6431
   86SAPS  C215 8212   5.330   5.968   8.225 -0.3693  0.4275 -0.2835
   86SAPS  H15R 8213   5.222   5.968   8.201 -0.4779 -1.5406  0.1221
   86SAPS  C216 8214   5.414   6.059   8.139  0.5672 -0.5453 -0.1419
   86SAPS  H16R 8215   5.396   6.020   8.037 -0.3234  1.7066 -0.8798
   86SAPS  H16S 8216   5.523   6.044   8.153  0.6697  1.4867  1.3992
   86SAPS  C217 8217   5.374   6.210   8.148  0.3334  0.0385  0.2595
   86SAPS  H17R 8218   5.342   6.237   8.251  0.5289  0.5966  0.1780
   86SAPS  H17S 8219   5.283   6.230   8.088 -0.4894 -2.0140  0.7677
   86SAPS  C218 8220   5.488   6.306   8.115 -0.0785 -0.4225 -0.0535
   86SAPS  H18R 8221   5.524   6.297   8.010 -2.3467  4.2131 -1.3731
   86SAPS  H18S 8222   5.576   6.293   8.182 -0.1527  1.0841  0.3385
   86SAPS  C219 8223   5.445   6.458   8.102 -0.1275  0.3331 -0.1921
   86SAPS  H19R 8224   5.395   6.481   8.198 -1.8471  0.7112 -1.1456
   86SAPS  H19S 8225   5.361   6.471   8.030 -0.2524 -1.3371 -0.3570
   86SAPS  C220 8226   5.561   6.552   8.064  0.3674  0.0822 -0.3671
   86SAPS  H20R 8227   5.546   6.660   8.085 -1.1781 -0.4435  1.3167
   86SAPS  H20S 8228   5.581   6.535   7.956  0.7506 -0.4339 -0.2154
   86SAPS  H20T 8229   5.653   6.523   8.120  0.3246  1.6717  0.5745
   86SAPS   C33 8230   5.262   6.243   9.078  0.2409  0.1702 -0.1612
   86SAPS   H3X 8231   5.232   6.142   9.044 -1.0076  1.6841 -3.8107
   86SAPS   H3Y 8232   5.346   6.265   9.008 -0.5062  0.0172 -1.1077
   86SAPS   C34 8233   5.145   6.337   9.046 -0.6846  0.0555  0.7889
   86SAPS   H4X 8234   5.165   6.441   9.079 -2.4949  0.5115  0.4966
   86SAPS   H4Y 8235   5.065   6.290   9.108 -0.0938 -3.2248 -0.8235
   86SAPS   C35 8236   5.086   6.341   8.900  0.4239  0.0772  0.4412
   86SAPS   H5X 8237   5.176   6.370   8.841  0.1378  0.2905  0.1051
   86SAPS   H5Y 8238   5.011   6.423   8.897  1.6999  1.2605 -0.4452
   86SAPS   C36 8239   5.021   6.210   8.863  0.2710  0.4047  0.8452
   86SAPS   H6X 8240   4.946   6.187   8.941  0.3320  0.9013  1.0530
   86SAPS   H6Y 8241   5.096   6.128   8.864 -1.2941 -1.0511  0.3244
   86SAPS   C37 8242   4.959   6.213   8.722  0.0597 -0.0651 -0.0201
   86SAPS   H7X 8243   4.904   6.310   8.715  0.0792 -0.0433  0.1134
   86SAPS   H7Y 8244   4.886   6.130   8.712 -1.5167  1.1887  0.7126
   86SAPS   C38 8245   5.061   6.214   8.615 -0.3905  0.1039  0.0925
   86SAPS   H8X 8246   5.128   6.303   8.621 -1.4110  0.8475  0.5847
   86SAPS   H8Y 8247   5.003   6.223   8.520 -0.1548 -1.0290 -0.1666
   86SAPS   C39 8248   5.152   6.091   8.603  0.0976  0.5221 -0.1721
   86SAPS   H9X 8249   5.233   6.093   8.679  1.7169  1.0430 -1.8797
   86SAPS   H9Y 8250   5.206   6.106   8.507  1.9925 -1.9938  0.4538
   86SAPS  C310 8251   5.080   5.952   8.613  0.3509 -0.5452  0.2787
   86SAPS  H10X 8252   5.045   5.948   8.719  1.1424 -1.7529  0.5105
   86SAPS  H10Y 8253   5.168   5.884   8.607  1.9347  1.4171  0.7971
   86SAPS  C311 8254   4.981   5.931   8.498  0.5309  0.6110  0.6934
   86SAPS  H11X 8255   5.032   5.977   8.410 -0.6919  0.3257 -0.1680
   86SAPS  H11Y 8256   4.892   5.995   8.514  1.5487  1.9743  1.0475
   86SAPS  C312 8257   4.968   5.786   8.476  0.0298  0.7980 -0.1060
   86SAPS  H12X 8258   4.945   5.733   8.571 -0.0292  0.6905 -0.1814
   86SAPS  H12Y 8259   5.062   5.737   8.443 -0.2989 -0.2744  0.5273
   86SAPS  C313 8260   4.863   5.748   8.371 -0.0297  0.4470 -0.3176
   86SAPS  H13X 8261   4.758   5.748   8.408 -0.1582  0.0645 -0.6731
   86SAPS  H13Y 8262   4.883   5.639   8.356 -1.1427  0.2321 -0.2552
   86SAPS  C314 8263   4.869   5.833   8.239  0.4046  0.1317  0.4620
   86SAPS  H14X 8264   4.974   5.830   8.201 -0.2035  0.1091 -1.2862
   86SAPS  H14Y 8265   4.841   5.938   8.260  0.3834 -0.1774  2.0231
   86SAPS  C315 8266   4.785   5.786   8.123  0.5525  0.0123  0.5852
   86SAPS  H15X 8267   4.825   5.685   8.103 -0.8286 -0.4321  0.0180
   86SAPS  H15Y 8268   4.800   5.842   8.028  0.1242  1.2509  1.2291
   86SAPS  C316 8269   4.639   5.767   8.162 -0.2153  0.5141 -0.5055
   86SAPS  H16X 8270   4.602   5.862   8.206  1.4764  1.3450 -0.8225
   86SAPS  H16Y 8271   4.627   5.696   8.247 -2.2522  1.5117  0.0755
   86SAPS  C317 8272   4.542   5.736   8.052 -0.4040  0.3916 -0.0830
   86SAPS  H17X 8273   4.574   5.646   7.995 -2.5224  1.0370 -2.3500
   86SAPS  H17Y 8274   4.544   5.818   7.977 -0.4811 -0.2974 -0.8468
   86SAPS  C318 8275   4.397   5.701   8.094  0.0349 -0.7239 -0.0774
   86SAPS  H18X 8276   4.330   5.688   8.006 -1.2388  2.3523  0.3718
   86SAPS  H18Y 8277   4.362   5.772   8.172  3.0602 -0.2764  0.9576
   86SAPS  H18Z 8278   4.404   5.605   8.148 -0.1615 -0.7678 -0.1307
   87SAPS     N 8279   5.717   6.923  10.224 -0.4039 -0.2267 -0.7865
   87SAPS   HN1 8280   5.685   6.932  10.322 -0.7668  2.3537 -1.1054
   87SAPS   HN2 8281   5.760   7.015  10.201 -0.3208 -0.0170  0.1961
   87SAPS   HN3 8282   5.636   6.903  10.162 -0.8180 -0.3057 -0.2154
   87SAPS   C12 8283   5.823   6.816  10.201 -0.7809 -0.0977 -0.0860
   87SAPS  H12A 8284   5.885   6.832  10.114 -0.1094  0.2926  0.4602
   87SAPS   C13 8285   5.922   6.788  10.318 -0.6145  0.2343 -0.6863
   87SAPS  O13A 8286   5.905   6.831  10.431  0.1699 -0.2491 -1.0569
   87SAPS  O13B 8287   6.008   6.699  10.289  0.0823 -0.3268  0.0437
   87SAPS   C11 8288   5.750   6.689  10.162 -0.4927  0.1514 -0.5757
   87SAPS  H11A 8289   5.700   6.639  10.248 -0.5952  0.2808 -0.5632
   87SAPS  H11B 8290   5.822   6.616  10.119  1.3981  1.5420  0.1476
   87SAPS     P 8291   5.550   6.631  10.004  0.1583 -0.0873 -0.3142
   87SAPS   O13 8292   5.607   6.598   9.874 -0.3949 -0.1220 -0.1962
   87SAPS   O14 8293   5.523   6.519  10.095 -0.6214 -0.1967 -0.4989
   87SAPS   O12 8294   5.661   6.725  10.061 -0.0569  0.4836 -0.6037
   87SAPS   O11 8295   5.422   6.720  10.002  0.2376 -0.1354  0.1956
   87SAPS    C1 8296   5.334   6.718  10.121 -0.1709  0.2157  0.5761
   87SAPS    HA 8297   5.253   6.643  10.106 -0.3459  0.6615 -0.8078
   87SAPS    HB 8298   5.391   6.700  10.214  0.4795  0.1338  0.1589
   87SAPS    C2 8299   5.269   6.852  10.131  0.1030  0.7792  0.8796
   87SAPS    HS 8300   5.211   6.851  10.225 -0.1886  2.2041  0.7176
   87SAPS   O21 8301   5.202   6.885  10.001  0.0708  0.1459 -0.2517
   87SAPS   C21 8302   5.090   6.941  10.025 -0.8197 -0.3510  0.3103
   87SAPS   O22 8303   5.048   6.986  10.135  0.0305 -0.2296  0.1001
   87SAPS   C22 8304   5.017   6.957   9.897 -0.0020 -0.0239  0.7336
   87SAPS   H2R 8305   5.082   7.022   9.834  0.3320 -0.6498  0.4278
   87SAPS   H2S 8306   5.001   6.860   9.845 -2.0086  0.5696  0.1905
   87SAPS    C3 8307   5.362   6.977  10.163  0.4374  0.0806  0.3238
   87SAPS    HX 8308   5.381   6.955  10.270 -2.4575  1.1236  1.1278
   87SAPS    HY 8309   5.304   7.073  10.157  1.4925  0.7451  0.6575
   87SAPS   O31 8310   5.484   6.977  10.085  0.3399  0.3442  0.1359
   87SAPS   C31 8311   5.480   7.055   9.978  0.0194  0.0861 -0.2872
   87SAPS   O32 8312   5.387   7.126   9.945  0.3115  0.1485 -0.1316
   87SAPS   C32 8313   5.601   7.029   9.898  0.1704 -0.1005  1.1729
   87SAPS   H2X 8314   5.679   6.981   9.961  1.4117 -2.1865 -1.8173
   87SAPS   H2Y 8315   5.633   7.131   9.870 -0.0707 -0.0335  1.1394
   87SAPS   C23 8316   4.882   7.030   9.906 -0.4947 -0.1294  0.0422
   87SAPS   H3R 8317   4.895   7.136   9.938  0.4283 -0.0144 -0.6823
   87SAPS   H3S 8318   4.827   6.983   9.990  1.9333 -0.9469  1.2276
   87SAPS   C24 8319   4.805   7.019   9.775  0.5455 -0.5996  0.2760
   87SAPS   H4R 8320   4.717   7.086   9.786  0.5750 -0.1212 -2.0796
   87SAPS   H4S 8321   4.758   6.918   9.767 -1.5245  0.4813 -2.2238
   87SAPS   C25 8322   4.873   7.063   9.649  0.4198 -0.2186  0.3162
   87SAPS   H5R 8323   4.881   7.172   9.638 -0.8711 -0.1755 -0.1978
   87SAPS   C26 8324   4.920   6.990   9.545  0.3042 -0.2915 -0.2681
   87SAPS   H6R 8325   4.979   7.048   9.473 -0.9536  0.4803 -0.6922
   87SAPS   C27 8326   4.919   6.838   9.523 -0.0663  0.2184 -0.1450
   87SAPS   H7R 8327   4.836   6.813   9.453  2.5065 -0.2093 -3.1371
   87SAPS   H7S 8328   4.895   6.781   9.615 -1.2589  0.2319 -0.4399
   87SAPS   C28 8329   5.046   6.772   9.468  0.0597 -0.4261  0.2823
   87SAPS   H8R 8330   5.116   6.729   9.541  0.5648  0.0447  0.0830
   87SAPS   C29 8331   5.082   6.776   9.342  1.0729 -0.8007 -0.0430
   87SAPS   H9R 8332   5.174   6.727   9.306  1.1380  0.1063 -1.1694
   87SAPS  C210 8333   5.006   6.852   9.235 -0.2734 -0.4149  0.0074
   87SAPS  H10R 8334   5.076   6.888   9.157 -4.1838  0.8972 -3.0718
   87SAPS  H10S 8335   4.951   6.940   9.276 -0.5724 -1.0789  1.0519
   87SAPS  C211 8336   4.890   6.782   9.163  0.3151 -0.3194  0.1297
   87SAPS  H11R 8337   4.825   6.727   9.231 -0.4581 -0.4590 -0.7092
   87SAPS  C212 8338   4.859   6.792   9.028  0.3842  0.0231  0.8265
   87SAPS  H12R 8339   4.783   6.728   8.982  3.0011 -2.1798 -0.5746
   87SAPS  C213 8340   4.923   6.879   8.917 -0.3134 -0.0013  0.1929
   87SAPS  H13R 8341   4.970   6.965   8.969 -1.8856  1.6251 -0.9997
   87SAPS  H13S 8342   4.840   6.936   8.870  0.4188  0.1735 -0.9261
   87SAPS  C214 8343   5.023   6.816   8.819  0.4382  0.3076  0.2035
   87SAPS  H14R 8344   5.120   6.789   8.863  0.4307  1.1548  0.7412
   87SAPS  C215 8345   4.994   6.792   8.687  0.6716 -0.2573  0.0439
   87SAPS  H15R 8346   5.070   6.750   8.620  1.3829  2.6231 -0.9986
   87SAPS  C216 8347   4.867   6.828   8.619 -0.0692  0.8373 -0.5690
   87SAPS  H16R 8348   4.796   6.881   8.687 -0.1020 -1.8103  1.5434
   87SAPS  H16S 8349   4.820   6.729   8.601 -0.7208  1.0882 -0.2808
   87SAPS  C217 8350   4.869   6.909   8.488 -0.0896 -0.9362 -0.1935
   87SAPS  H17R 8351   4.942   6.993   8.489  0.8256 -1.7323  1.2541
   87SAPS  H17S 8352   4.774   6.964   8.473 -0.1425 -1.6607 -2.7346
   87SAPS  C218 8353   4.894   6.818   8.367 -0.3585  0.1420  0.5413
   87SAPS  H18R 8354   4.838   6.723   8.371 -1.1682  0.4963 -1.5095
   87SAPS  H18S 8355   5.001   6.790   8.372  0.1361  1.8303 -0.0053
   87SAPS  C219 8356   4.864   6.900   8.236 -0.3275  0.4310 -0.4375
   87SAPS  H19R 8357   4.941   6.980   8.228  0.7333 -0.7748 -2.5004
   87SAPS  H19S 8358   4.762   6.942   8.244 -1.1576 -1.9253  2.3522
   87SAPS  C220 8359   4.891   6.811   8.119 -0.0157 -0.6000  0.1781
   87SAPS  H20R 8360   4.843   6.870   8.038  1.5664 -2.0529 -1.8735
   87SAPS  H20S 8361   4.852   6.707   8.115 -1.7346  0.0994 -2.2130
   87SAPS  H20T 8362   5.000   6.800   8.103  0.7316  1.8753  3.1875
   87SAPS   C33 8363   5.577   6.930   9.782  0.6573 -0.1963 -0.1707
   87SAPS   H3X 8364   5.490   6.865   9.803  1.0665 -0.6772  0.0255
   87SAPS   H3Y 8365   5.669   6.870   9.764  0.6250 -0.8128  1.6583
   87SAPS   C34 8366   5.540   6.995   9.643  0.1499 -0.0166 -0.3902
   87SAPS   H4X 8367   5.624   6.978   9.571 -0.3579 -2.2180 -0.4849
   87SAPS   H4Y 8368   5.519   7.104   9.648  2.4698  0.3893  1.0858
   87SAPS   C35 8369   5.419   6.929   9.587  0.5524 -0.4027  0.7903
   87SAPS   H5X 8370   5.333   6.950   9.654 -1.0223 -1.1407 -0.9578
   87SAPS   H5Y 8371   5.442   6.821   9.595 -0.4321 -0.3962  5.5690
   87SAPS   C36 8372   5.398   6.974   9.440  0.3128  0.2354 -0.3507
   87SAPS   H6X 8373   5.450   7.071   9.424  0.5042 -0.2614 -2.9894
   87SAPS   H6Y 8374   5.293   7.000   9.417  0.0421 -0.9304 -0.4495
   87SAPS   C37 8375   5.451   6.869   9.346 -0.4100  0.6153  0.2352
   87SAPS   H7X 8376   5.388   6.778   9.353  1.5398 -0.9153 -1.5756
   87SAPS   H7Y 8377   5.551   6.826   9.370 -1.3107 -1.4748  0.3604
   87SAPS   C38 8378   5.473   6.931   9.209 -0.0053  0.3942 -0.2538
   87SAPS   H8X 8379   5.541   7.018   9.213  1.7077 -0.9636  0.8917
   87SAPS   H8Y 8380   5.380   6.976   9.167 -0.6902  0.9588  1.7789
   87SAPS   C39 8381   5.510   6.826   9.106  0.5284  0.0773 -0.3324
   87SAPS   H9X 8382   5.589   6.755   9.141  0.0026 -0.8256 -0.9600
   87SAPS   H9Y 8383   5.544   6.874   9.012 -0.8868  3.2457  0.7169
   87SAPS  C310 8384   5.386   6.749   9.061 -0.0232  0.2094  0.4489
   87SAPS  H10X 8385   5.349   6.823   8.987 -0.7457 -1.4953 -0.9412
   87SAPS  H10Y 8386   5.316   6.732   9.146  1.2787 -1.3209  1.2346
   87SAPS  C311 8387   5.405   6.611   8.995  0.3268 -0.0915  0.2469
   87SAPS  H11X 8388   5.305   6.564   8.987 -0.2821  0.8189  2.0371
   87SAPS  H11Y 8389   5.466   6.551   9.066 -0.2981 -0.0957  0.7831
   87SAPS  C312 8390   5.479   6.619   8.859  0.4066  0.6892  0.7806
   87SAPS  H12X 8391   5.524   6.520   8.835 -0.2137  0.5470  0.2055
   87SAPS  H12Y 8392   5.559   6.697   8.867  1.0717  0.0036  0.8580
   87SAPS  C313 8393   5.381   6.645   8.747 -0.2331  0.3318 -0.0943
   87SAPS  H13X 8394   5.309   6.724   8.778 -0.7301  0.3853 -1.3516
   87SAPS  H13Y 8395   5.311   6.560   8.731  0.6006 -0.2626 -0.6272
   87SAPS  C314 8396   5.447   6.676   8.610  0.1372  0.1735  0.0247
   87SAPS  H14X 8397   5.497   6.584   8.572  0.6062  0.1733  0.6341
   87SAPS  H14Y 8398   5.522   6.756   8.629 -0.9824  1.4505 -0.8492
   87SAPS  C315 8399   5.353   6.732   8.502 -0.2509 -0.0287 -0.3463
   87SAPS  H15X 8400   5.325   6.836   8.528  1.5280  0.5611 -0.6797
   87SAPS  H15Y 8401   5.264   6.668   8.488  1.1030 -1.4306 -3.0651
   87SAPS  C316 8402   5.425   6.743   8.367 -0.4721  0.1202  0.1408
   87SAPS  H16X 8403   5.458   6.643   8.331 -0.0432 -0.1985  1.4364
   87SAPS  H16Y 8404   5.515   6.806   8.379 -0.6507  0.3988  0.0142
   87SAPS  C317 8405   5.331   6.796   8.262  0.3476 -0.7403 -0.0848
   87SAPS  H17X 8406   5.246   6.724   8.256 -0.1161 -0.0121 -2.5151
   87SAPS  H17Y 8407   5.394   6.790   8.171 -0.4167  0.5711 -0.7057
   87SAPS  C318 8408   5.266   6.932   8.283 -0.1868 -0.0520 -0.3174
   87SAPS  H18X 8409   5.341   7.001   8.328 -0.7853 -0.0686  0.7066
   87SAPS  H18Y 8410   5.175   6.926   8.345  2.2129 -1.4621  3.1996
   87SAPS  H18Z 8411   5.240   6.972   8.182  0.3723 -2.3900 -1.4444
   88SAPS     N 8412   0.001   2.948  10.291  0.1594  0.5141  0.3123
   88SAPS   HN1 8413   0.020   2.879  10.367  0.6296  0.1099 -0.1610
   88SAPS   HN2 8414   0.034   2.898  10.206 -0.0768 -0.8895  1.0274
   88SAPS   HN3 8415   0.071   3.023  10.310 -0.9272  1.0289  2.3678
   88SAPS   C12 8416  -0.132   3.004  10.290  0.6912 -0.2076 -0.1634
   88SAPS  H12A 8417  -0.207   2.927  10.290 -0.2899  0.7377 -0.1772
   88SAPS   C13 8418  -0.159   3.104  10.410  1.0346 -0.1764 -0.2223
   88SAPS  O13A 8419  -0.086   3.114  10.512  0.5491  0.0781 -0.2821
   88SAPS  O13B 8420  -0.281   3.135  10.421  0.1142  0.2521 -0.0927
   88SAPS   C11 8421  -0.137   3.077  10.153  0.4361 -0.0796  0.1505
   88SAPS  H11A 8422  -0.066   3.162  10.164  0.7117 -0.2354 -0.3853
   88SAPS  H11B 8423  -0.231   3.125  10.120  0.6460  1.4933  1.7370
   88SAPS     P 8424  -0.095   3.049   9.893 -0.2267  0.3120 -0.0739
   88SAPS   O13 8425   0.045   3.069   9.848  0.0174 -0.6119 -0.1261
   88SAPS   O14 8426  -0.174   2.946   9.826 -0.5488  0.2881 -0.6039
   88SAPS   O12 8427  -0.090   2.995  10.046 -0.3206  0.5721 -0.2151
   88SAPS   O11 8428  -0.177   3.174   9.895 -0.2160  0.0320  0.2528
   88SAPS    C1 8429  -0.126   3.312   9.906 -0.5199 -0.6339 -0.1728
   88SAPS    HA 8430  -0.139   3.347  10.011 -0.2421  2.8812 -1.2324
   88SAPS    HB 8431  -0.021   3.338   9.878 -0.1345 -0.5354  1.2874
   88SAPS    C2 8432  -0.217   3.408   9.825 -0.2882  0.5713  0.1808
   88SAPS    HS 8433  -0.318   3.415   9.873  0.0440  2.0004  0.6956
   88SAPS   O21 8434  -0.232   3.359   9.696 -0.1946 -0.1328  0.0575
   88SAPS   C21 8435  -0.335   3.279   9.666  0.4269  0.5324  0.2440
   88SAPS   O22 8436  -0.428   3.259   9.740 -0.2333 -0.2926 -0.4063
   88SAPS   C22 8437  -0.314   3.221   9.525  0.1397  0.1456 -0.1043
   88SAPS   H2R 8438  -0.395   3.265   9.463 -0.6431 -1.1535 -0.0118
   88SAPS   H2S 8439  -0.230   3.269   9.470 -0.4563  0.5392 -0.6894
   88SAPS    C3 8440  -0.146   3.546   9.820 -0.0770 -0.7776 -0.5231
   88SAPS    HX 8441  -0.143   3.576   9.927  0.0226 -0.7439 -0.5343
   88SAPS    HY 8442  -0.214   3.610   9.760 -0.6749 -1.6666 -0.8046
   88SAPS   O31 8443  -0.014   3.547   9.756  0.1780 -1.0081  0.1132
   88SAPS   C31 8444   0.086   3.560   9.841 -0.3443  0.7471 -0.4577
   88SAPS   O32 8445   0.081   3.556   9.964 -0.1592 -0.3035 -0.0212
   88SAPS   C32 8446   0.218   3.580   9.766  0.4119  0.2054 -0.0512
   88SAPS   H2X 8447   0.208   3.509   9.681  2.4073  0.5972 -0.6242
   88SAPS   H2Y 8448   0.302   3.544   9.829 -0.2766  0.0932  0.8128
   88SAPS   C23 8449  -0.322   3.067   9.535 -0.1133  0.2206  0.0318
   88SAPS   H3R 8450  -0.417   3.030   9.580  0.3362 -0.3927  0.4899
   88SAPS   H3S 8451  -0.229   3.026   9.581 -0.0041  0.4103 -0.0217
   88SAPS   C24 8452  -0.329   3.000   9.395  0.0138 -1.0837 -1.0420
   88SAPS   H4R 8453  -0.418   3.047   9.348 -0.1147  0.1654  0.4176
   88SAPS   H4S 8454  -0.351   2.892   9.415 -1.1945 -0.5684  0.5047
   88SAPS   C25 8455  -0.196   3.015   9.324  0.0229  0.3152  0.3740
   88SAPS   H5R 8456  -0.119   3.076   9.375  0.5816  1.6355 -1.9573
   88SAPS   C26 8457  -0.170   2.971   9.199  0.1980  0.4823 -0.4253
   88SAPS   H6R 8458  -0.068   2.986   9.161  1.4952 -1.5443  2.0220
   88SAPS   C27 8459  -0.267   2.894   9.117 -0.4466  0.1291  0.0056
   88SAPS   H7R 8460  -0.338   2.967   9.073 -1.4511  0.4434  2.0477
   88SAPS   H7S 8461  -0.332   2.830   9.181  0.6626  0.4973  1.5440
   88SAPS   C28 8462  -0.192   2.821   9.015 -0.5471 -0.9973  0.4033
   88SAPS   H8R 8463  -0.182   2.714   9.033  3.1414 -0.9910 -1.1046
   88SAPS   C29 8464  -0.152   2.865   8.896  0.1789 -0.5192  0.5372
   88SAPS   H9R 8465  -0.083   2.807   8.833  1.8732  1.1398  0.8351
   88SAPS  C210 8466  -0.183   3.002   8.849 -0.2001 -0.2100 -0.2133
   88SAPS  H10R 8467  -0.088   3.056   8.828 -0.5867  0.1086 -1.1372
   88SAPS  H10S 8468  -0.238   3.063   8.924  0.5859  1.1619 -0.7411
   88SAPS  C211 8469  -0.270   2.990   8.726  0.4956  0.1697  0.7989
   88SAPS  H11R 8470  -0.379   2.984   8.737 -0.1349  3.3505 -2.8403
   88SAPS  C212 8471  -0.236   2.991   8.592  0.5445  0.1316 -0.4974
   88SAPS  H12R 8472  -0.322   2.989   8.524  0.1081  0.5386  0.0277
   88SAPS  C213 8473  -0.107   3.004   8.529 -0.2825  0.2792 -0.2060
   88SAPS  H13R 8474  -0.027   2.989   8.604 -1.4712  0.2423  1.0679
   88SAPS  H13S 8475  -0.085   3.104   8.488  1.2184  1.5149  3.4650
   88SAPS  C214 8476  -0.105   2.884   8.435 -0.0012  0.5505  0.4537
   88SAPS  H14R 8477  -0.106   2.787   8.487  1.8243  0.7304  0.8804
   88SAPS  C215 8478  -0.078   2.885   8.306  0.6129  0.0490 -0.2304
   88SAPS  H15R 8479  -0.090   2.790   8.252 -2.2827 -0.3338  0.9737
   88SAPS  C216 8480  -0.049   3.008   8.222  1.0447 -0.8077 -0.2967
   88SAPS  H16R 8481   0.060   3.006   8.200  0.7624  0.8809 -2.0020
   88SAPS  H16S 8482  -0.072   3.102   8.278 -1.9120 -0.5968 -1.7444
   88SAPS  C217 8483  -0.127   3.019   8.090 -0.4090  0.2772  0.0553
   88SAPS  H17R 8484  -0.129   2.920   8.040 -2.4810 -0.7106  2.0135
   88SAPS  H17S 8485  -0.072   3.085   8.019 -1.3867 -2.7149 -3.6771
   88SAPS  C218 8486  -0.272   3.069   8.110 -0.2565 -0.0823 -0.6884
   88SAPS  H18R 8487  -0.277   3.180   8.107 -1.4266 -0.1341 -0.8525
   88SAPS  H18S 8488  -0.324   3.031   8.200 -0.1917 -0.6079 -0.8703
   88SAPS  C219 8489  -0.359   3.027   7.988  0.1599  0.0088  0.3214
   88SAPS  H19R 8490  -0.330   2.925   7.954 -1.1342 -0.3429  0.2421
   88SAPS  H19S 8491  -0.320   3.092   7.908  0.5561 -1.1274 -0.4267
   88SAPS  C220 8492  -0.511   3.060   8.002  0.0588  0.2784  0.8429
   88SAPS  H20R 8493  -0.568   3.012   7.919  0.5810 -0.6986  1.0322
   88SAPS  H20S 8494  -0.536   3.168   7.997 -3.8071 -0.6354 -2.2977
   88SAPS  H20T 8495  -0.541   3.021   8.101  0.0971 -0.9686  0.3763
   88SAPS   C33 8496   0.225   3.728   9.710  0.1676  0.1095 -0.2907
   88SAPS   H3X 8497   0.265   3.794   9.789 -1.2481  0.3276  0.2717
   88SAPS   H3Y 8498   0.121   3.767   9.701  0.5049  0.9090 -0.7220
   88SAPS   C34 8499   0.289   3.729   9.568  0.0336 -0.7785 -0.0139
   88SAPS   H4X 8500   0.395   3.695   9.570  0.9709  2.0604  0.7073
   88SAPS   H4Y 8501   0.288   3.835   9.535  0.0940 -0.7540  0.0668
   88SAPS   C35 8502   0.206   3.644   9.468 -0.1330 -0.4720  0.0982
   88SAPS   H5X 8503   0.099   3.647   9.495 -0.7698  0.9787 -2.3897
   88SAPS   H5Y 8504   0.235   3.537   9.463  0.5769 -0.4028  2.1566
   88SAPS   C36 8505   0.216   3.692   9.325  0.1807  0.9385 -0.2480
   88SAPS   H6X 8506   0.324   3.683   9.299  0.3285  1.2554  0.2449
   88SAPS   H6Y 8507   0.189   3.799   9.324 -2.2934  0.3864  1.7085
   88SAPS   C37 8508   0.143   3.599   9.231 -0.6287  0.1029 -0.0299
   88SAPS   H7X 8509   0.196   3.503   9.213  0.4624  0.3241  1.8673
   88SAPS   H7Y 8510   0.134   3.644   9.129  0.3020 -2.6912 -1.4050
   88SAPS   C38 8511  -0.007   3.583   9.256 -0.1123  1.1022 -0.5355
   88SAPS   H8X 8512  -0.063   3.677   9.268  0.5534  1.3396  0.8566
   88SAPS   H8Y 8513  -0.034   3.529   9.350  2.6693  3.0778  1.5015
   88SAPS   C39 8514  -0.069   3.493   9.154  0.0080 -0.4463  0.4817
   88SAPS   H9X 8515  -0.013   3.398   9.159  1.2920  0.2777  0.2073
   88SAPS   H9Y 8516  -0.057   3.539   9.053 -1.5791  1.4515  1.1259
   88SAPS  C310 8517  -0.214   3.469   9.175  1.0227  0.0798  0.0174
   88SAPS  H10X 8518  -0.281   3.540   9.124 -0.0595 -1.5412 -0.8683
   88SAPS  H10Y 8519  -0.252   3.466   9.280  1.9509 -2.3625  0.3180
   88SAPS  C311 8520  -0.259   3.330   9.117 -0.2126 -0.3163  0.1474
   88SAPS  H11X 8521  -0.334   3.289   9.189  1.5754 -1.4367  1.4248
   88SAPS  H11Y 8522  -0.191   3.242   9.113  1.0516  0.4771  2.9510
   88SAPS  C312 8523  -0.334   3.346   8.980  0.5249  0.5083  0.1801
   88SAPS  H12X 8524  -0.413   3.418   9.008  0.9259  0.4094  1.5936
   88SAPS  H12Y 8525  -0.386   3.254   8.946 -0.1797  1.1180 -0.4028
   88SAPS  C313 8526  -0.246   3.389   8.865  0.1503  0.0185  0.1877
   88SAPS  H13X 8527  -0.159   3.323   8.846 -0.1812 -0.3788  0.0269
   88SAPS  H13Y 8528  -0.204   3.486   8.897  1.6368  0.9498 -4.2194
   88SAPS  C314 8529  -0.322   3.406   8.732  0.3509  0.1734 -0.2984
   88SAPS  H14X 8530  -0.408   3.473   8.751 -0.5394 -0.8806 -0.5610
   88SAPS  H14Y 8531  -0.355   3.302   8.712 -2.4965  0.7862  1.0069
   88SAPS  C315 8532  -0.247   3.474   8.621  0.0213 -0.0391  0.8022
   88SAPS  H15X 8533  -0.179   3.401   8.572 -0.0943 -0.9259  1.9320
   88SAPS  H15Y 8534  -0.193   3.558   8.670  3.1351  0.4928 -3.3264
   88SAPS  C316 8535  -0.335   3.544   8.517 -0.1870  0.8841  1.0212
   88SAPS  H16X 8536  -0.268   3.567   8.431  0.1218  1.7408  1.4872
   88SAPS  H16Y 8537  -0.381   3.631   8.568  0.0099  1.1175  0.8004
   88SAPS  C317 8538  -0.459   3.460   8.472  0.2505  0.0322 -0.1127
   88SAPS  H17X 8539  -0.524   3.520   8.405  1.1456  1.6709  0.4600
   88SAPS  H17Y 8540  -0.523   3.436   8.560 -2.1533 -1.2710 -2.1622
   88SAPS  C318 8541  -0.422   3.332   8.399  0.5140  0.5435 -0.1763
   88SAPS  H18X 8542  -0.359   3.357   8.310  1.5522  0.5893  0.5558
   88SAPS  H18Y 8543  -0.507   3.263   8.382  2.3396 -1.6793 -0.6052
   88SAPS  H18Z 8544  -0.356   3.273   8.467 -0.4634 -0.9061 -0.4626
   89SAPS     N 8545   6.127   0.705   9.846  0.5043 -0.5659 -0.3748
   89SAPS   HN1 8546   6.181   0.782   9.804 -2.0495  0.7908 -1.2854
   89SAPS   HN2 8547   6.128   0.630   9.773 -0.2512 -1.1127  0.1646
   89SAPS   HN3 8548   6.032   0.741   9.867  0.6400 -0.4339  0.0204
   89SAPS   C12 8549   6.198   0.661   9.969 -0.4067 -0.0390 -0.2737
   89SAPS  H12A 8550   6.290   0.614   9.935 -1.0384 -0.6201 -1.2152
   89SAPS   C13 8551   6.259   0.782  10.047  0.4075 -0.2204  0.9320
   89SAPS  O13A 8552   6.256   0.904  10.007 -0.1010 -0.0080 -0.2593
   89SAPS  O13B 8553   6.297   0.762  10.164 -0.3530 -0.6783 -0.2293
   89SAPS   C11 8554   6.106   0.569  10.055 -0.2713 -0.8343  1.2399
   89SAPS  H11A 8555   6.032   0.635  10.105 -1.0657 -1.6509  1.1577
   89SAPS  H11B 8556   6.174   0.530  10.133 -0.1507 -1.5987  0.7577
   89SAPS     P 8557   6.109   0.336   9.946 -0.0237  0.4708 -0.0995
   89SAPS   O13 8558   6.161   0.268  10.066 -0.5081 -0.5112  0.1609
   89SAPS   O14 8559   6.013   0.264   9.863  0.3048  0.1376  0.5755
   89SAPS   O12 8560   6.050   0.474   9.977  0.2289  0.2823 -0.2092
   89SAPS   O11 8561   6.244   0.364   9.863  0.1054 -0.4823 -0.2435
   89SAPS    C1 8562   6.322   0.251   9.822 -0.5848  1.0167  0.5946
   89SAPS    HA 8563   6.426   0.253   9.861  0.0919 -0.6150 -1.0359
   89SAPS    HB 8564   6.286   0.155   9.864  1.4932 -0.1951 -0.2575
   89SAPS    C2 8565   6.339   0.229   9.670  0.3530 -0.6426 -0.3417
   89SAPS    HS 8566   6.419   0.151   9.663  0.3251 -0.7221  0.1995
   89SAPS   O21 8567   6.377   0.349   9.603  0.0390  0.4594 -0.1921
   89SAPS   C21 8568   6.507   0.367   9.595 -0.7319 -0.8319  0.4308
   89SAPS   O22 8569   6.601   0.305   9.644 -0.4873  0.3432 -0.1572
   89SAPS   C22 8570   6.536   0.489   9.504  0.7643 -0.3829 -0.0214
   89SAPS   H2R 8571   6.554   0.573   9.575 -1.2234 -1.7544  2.1714
   89SAPS   H2S 8572   6.638   0.468   9.467  1.4299 -2.2416  2.7226
   89SAPS    C3 8573   6.207   0.167   9.611  0.4858  0.5590 -0.5049
   89SAPS    HX 8574   6.125   0.231   9.649 -1.3299 -1.6644 -0.6172
   89SAPS    HY 8575   6.202   0.067   9.659  2.1219  0.4377 -0.5422
   89SAPS   O31 8576   6.221   0.164   9.474  0.0848  0.5241  0.2636
   89SAPS   C31 8577   6.159   0.263   9.403 -0.6759 -1.2250  0.4048
   89SAPS   O32 8578   6.089   0.350   9.451 -0.8232 -0.1405  0.7516
   89SAPS   C32 8579   6.174   0.246   9.248  0.4298 -0.0220  0.7679
   89SAPS   H2X 8580   6.148   0.141   9.222 -1.0505  0.4497  0.3046
   89SAPS   H2Y 8581   6.283   0.255   9.224  0.4919 -1.0465  0.6603
   89SAPS   C23 8582   6.430   0.525   9.394  0.2030 -0.5734  0.1802
   89SAPS   H3R 8583   6.330   0.533   9.442  1.2344  1.5030  2.0982
   89SAPS   H3S 8584   6.435   0.433   9.333 -0.7202  0.8005 -2.0272
   89SAPS   C24 8585   6.473   0.650   9.311 -0.2169  0.0087  0.4639
   89SAPS   H4R 8586   6.575   0.627   9.276 -1.5485 -0.4311 -3.3201
   89SAPS   H4S 8587   6.486   0.735   9.381  1.1331  0.1748  0.0115
   89SAPS   C25 8588   6.379   0.685   9.205  0.3361 -0.0803 -0.3737
   89SAPS   H5R 8589   6.284   0.713   9.253 -1.2685 -1.7282 -2.5202
   89SAPS   C26 8590   6.396   0.675   9.076 -0.2077  0.1810  0.1741
   89SAPS   H6R 8591   6.320   0.713   9.006  0.0627  2.1180  0.8993
   89SAPS   C27 8592   6.524   0.618   9.013 -0.0995 -0.4356  1.1253
   89SAPS   H7R 8593   6.593   0.572   9.086  1.0654  0.7385  0.7777
   89SAPS   H7S 8594   6.576   0.711   8.981  0.9497 -1.3521  0.1695
   89SAPS   C28 8595   6.506   0.519   8.903  0.5918  0.5902 -0.0815
   89SAPS   H8R 8596   6.486   0.415   8.933 -2.1364  0.9260 -0.6746
   89SAPS   C29 8597   6.506   0.541   8.775 -0.0664 -0.8808  0.1488
   89SAPS   H9R 8598   6.506   0.454   8.709 -1.1160 -0.6441 -0.1802
   89SAPS  C210 8599   6.525   0.674   8.708 -0.5523 -0.0180 -0.1989
   89SAPS  H10R 8600   6.568   0.743   8.784 -0.8067  0.0632 -0.1275
   89SAPS  H10S 8601   6.428   0.723   8.684 -1.1097 -0.4247  1.1731
   89SAPS  C211 8602   6.631   0.683   8.598  0.8564 -0.1146 -0.3726
   89SAPS  H11R 8603   6.721   0.622   8.616  1.3903  0.7858  0.1090
   89SAPS  C212 8604   6.620   0.743   8.473 -0.5198  0.5768 -0.1780
   89SAPS  H12R 8605   6.705   0.730   8.404 -0.8762  0.8782 -0.6726
   89SAPS  C213 8606   6.501   0.815   8.425 -0.0934  0.2335 -0.1752
   89SAPS  H13R 8607   6.463   0.880   8.507  0.8673  0.5778  0.0129
   89SAPS  H13S 8608   6.424   0.741   8.395  0.7320 -0.5472 -0.3827
   89SAPS  C214 8609   6.532   0.913   8.309 -0.3468  0.4765 -0.5099
   89SAPS  H14R 8610   6.611   0.988   8.323  0.8544 -0.5755 -1.5569
   89SAPS  C215 8611   6.455   0.919   8.199 -0.2090 -0.2660 -0.1975
   89SAPS  H15R 8612   6.459   1.001   8.126  1.5762 -0.2038 -0.0619
   89SAPS  C216 8613   6.326   0.839   8.160  0.1791 -0.0712 -0.6821
   89SAPS  H16R 8614   6.278   0.805   8.255 -1.3215 -0.9163 -1.7216
   89SAPS  H16S 8615   6.351   0.750   8.098  1.0936  0.2406 -0.7636
   89SAPS  C217 8616   6.223   0.921   8.078  0.0997  0.9287  0.0179
   89SAPS  H17R 8617   6.158   0.849   8.023 -0.1652  1.6923 -0.6734
   89SAPS  H17S 8618   6.277   0.975   7.997  1.4838  0.0543  0.3241
   89SAPS  C218 8619   6.129   1.019   8.153  0.1575 -0.6724 -0.2741
   89SAPS  H18R 8620   6.192   1.061   8.235  0.3364  3.1005 -2.2188
   89SAPS  H18S 8621   6.057   0.956   8.209  0.2323 -0.7790 -0.2959
   89SAPS  C219 8622   6.076   1.115   8.052  0.7465  0.1213 -0.2495
   89SAPS  H19R 8623   6.161   1.155   7.993  1.4325  2.1076  1.9561
   89SAPS  H19S 8624   6.049   1.206   8.110  1.7550 -0.7780  1.6736
   89SAPS  C220 8625   5.956   1.060   7.965 -0.4469  0.1750 -0.8082
   89SAPS  H20R 8626   5.927   1.138   7.892  0.3626  1.0097 -0.2433
   89SAPS  H20S 8627   5.868   1.033   8.027 -1.4825  0.1079 -2.2914
   89SAPS  H20T 8628   5.985   0.966   7.912 -0.1711  0.7134 -1.6209
   89SAPS   C33 8629   6.077   0.331   9.160  0.3914  0.0587  0.6417
   89SAPS   H3X 8630   6.101   0.439   9.171 -4.1204  1.5122 -2.1627
   89SAPS   H3Y 8631   5.977   0.315   9.207 -0.3239  0.0351 -0.8422
   89SAPS   C34 8632   6.056   0.284   9.014 -0.3589 -0.0135  0.6672
   89SAPS   H4X 8633   5.967   0.344   8.985  0.8862  1.0545 -1.0695
   89SAPS   H4Y 8634   6.020   0.179   9.005 -0.3326  0.0403 -0.0927
   89SAPS   C35 8635   6.159   0.334   8.918  0.3736 -0.2502 -0.2597
   89SAPS   H5X 8636   6.258   0.291   8.943 -0.9918 -2.9478  0.6451
   89SAPS   H5Y 8637   6.169   0.444   8.934 -1.0924 -0.5109  2.6981
   89SAPS   C36 8638   6.126   0.283   8.778 -0.5213 -0.8278 -0.0627
   89SAPS   H6X 8639   6.047   0.352   8.740  0.1540  0.7213  1.2915
   89SAPS   H6Y 8640   6.087   0.179   8.781  0.8054 -1.3209  0.3705
   89SAPS   C37 8641   6.238   0.286   8.678  0.2983 -0.6461 -0.2329
   89SAPS   H7X 8642   6.332   0.243   8.719 -0.1895 -0.3939  1.1846
   89SAPS   H7Y 8643   6.256   0.395   8.674 -1.6921 -0.3252 -1.1014
   89SAPS   C38 8644   6.198   0.226   8.545  0.6119 -1.0300  1.3661
   89SAPS   H8X 8645   6.109   0.284   8.514  1.3383  0.3379  1.8042
   89SAPS   H8Y 8646   6.160   0.122   8.559 -0.9704 -0.7932 -0.9920
   89SAPS   C39 8647   6.304   0.243   8.437 -0.0991  0.0340 -0.3923
   89SAPS   H9X 8648   6.401   0.202   8.473  0.2499  2.0516  1.0459
   89SAPS   H9Y 8649   6.324   0.351   8.418 -1.6941  0.6824  1.4169
   89SAPS  C310 8650   6.276   0.199   8.293  0.5572  0.6190  0.5021
   89SAPS  H10X 8651   6.206   0.267   8.242  2.0739  0.8719 -1.2760
   89SAPS  H10Y 8652   6.226   0.099   8.302  2.0970 -0.1208  1.0346
   89SAPS  C311 8653   6.398   0.175   8.201 -0.5055 -1.0317 -0.5317
   89SAPS  H11X 8654   6.464   0.094   8.240  0.3877  0.1499  0.4458
   89SAPS  H11Y 8655   6.464   0.264   8.196  0.3081 -1.6974 -2.1160
   89SAPS  C312 8656   6.371   0.144   8.057  0.9220 -0.8911 -0.4618
   89SAPS  H12X 8657   6.302   0.220   8.016  2.6153  1.3823  0.7871
   89SAPS  H12Y 8658   6.323   0.047   8.030  1.5319 -1.7450  1.4046
   89SAPS  C313 8659   6.505   0.162   7.977  0.5411 -0.2869 -0.5530
   89SAPS  H13X 8660   6.568   0.074   8.006 -0.8324 -0.4145  2.1429
   89SAPS  H13Y 8661   6.554   0.254   8.015  0.4868  0.1302 -1.5001
   89SAPS  C314 8662   6.492   0.200   7.827 -0.7432 -0.3903 -0.1566
   89SAPS  H14X 8663   6.430   0.292   7.822 -0.2961 -0.1575 -1.6929
   89SAPS  H14Y 8664   6.441   0.117   7.773  1.0809 -1.4523 -0.2895
   89SAPS  C315 8665   6.624   0.226   7.762 -0.5765  0.3654  0.9404
   89SAPS  H15X 8666   6.672   0.127   7.750 -0.3721  0.3425  1.9049
   89SAPS  H15Y 8667   6.688   0.283   7.832  0.6794  2.5328 -1.8505
   89SAPS  C316 8668   6.610   0.306   7.628 -0.1522  0.2536 -0.0707
   89SAPS  H16X 8669   6.715   0.330   7.602 -0.1038 -0.1934 -0.2838
   89SAPS  H16Y 8670   6.551   0.397   7.653  1.0581  1.5304 -1.7402
   89SAPS  C317 8671   6.539   0.221   7.519  0.0433 -0.5768  0.5805
   89SAPS  H17X 8672   6.432   0.218   7.546 -0.3899 -2.1141 -1.1834
   89SAPS  H17Y 8673   6.584   0.119   7.515 -1.2949 -1.1456 -0.0252
   89SAPS  C318 8674   6.559   0.282   7.374  0.3177  0.6085 -0.8791
   89SAPS  H18X 8675   6.509   0.216   7.300  1.1862  0.2682 -1.1612
   89SAPS  H18Y 8676   6.667   0.296   7.352  0.5676 -1.5810 -1.1270
   89SAPS  H18Z 8677   6.518   0.385   7.362  1.8135  1.1782 -1.1837
   90SAPS     N 8678   0.043   0.927  10.330 -0.8373  0.4463 -0.0627
   90SAPS   HN1 8679  -0.024   0.857  10.291 -2.3922  1.1940  1.2148
   90SAPS   HN2 8680   0.105   0.881  10.399 -1.8524  1.6996  1.7228
   90SAPS   HN3 8681  -0.011   1.002  10.376  0.3792  1.4013 -0.1765
   90SAPS   C12 8682   0.110   0.988  10.212  0.1086  0.3755  0.1305
   90SAPS  H12A 8683   0.042   1.033  10.141  0.4459  0.3178 -0.2309
   90SAPS   C13 8684   0.212   1.094  10.252 -0.0608  0.3994  0.8152
   90SAPS  O13A 8685   0.239   1.118  10.370 -0.1540 -0.1226  0.0908
   90SAPS  O13B 8686   0.252   1.168  10.157 -0.9242  0.5598  0.0859
   90SAPS   C11 8687   0.186   0.870  10.137  0.7090 -0.2956 -0.1142
   90SAPS  H11A 8688   0.275   0.831  10.191  0.8334 -1.1537 -0.9263
   90SAPS  H11B 8689   0.220   0.905  10.037 -0.9523 -2.2017 -1.3897
   90SAPS     P 8690   0.155   0.629  10.041  0.0960 -0.0950  0.6131
   90SAPS   O13 8691   0.288   0.591  10.099 -0.4597  0.0377 -0.1060
   90SAPS   O14 8692   0.053   0.523  10.037 -0.2757  0.1041  0.4874
   90SAPS   O12 8693   0.097   0.756  10.117 -0.2097  0.3057 -0.0599
   90SAPS   O11 8694   0.175   0.700   9.898  0.2678 -0.0468  0.2752
   90SAPS    C1 8695   0.217   0.624   9.786 -0.3888  0.9827 -0.1691
   90SAPS    HA 8696   0.324   0.601   9.805 -0.9055 -0.9545  0.4327
   90SAPS    HB 8697   0.153   0.534   9.779 -0.2812  0.8449  0.5695
   90SAPS    C2 8698   0.206   0.690   9.641 -0.3587  0.2893  0.4367
   90SAPS    HS 8699   0.305   0.728   9.607 -0.2915  1.7712  2.1725
   90SAPS   O21 8700   0.111   0.796   9.640 -0.1609  0.4266 -0.3257
   90SAPS   C21 8701   0.149   0.916   9.681 -0.0659 -0.4931  0.7265
   90SAPS   O22 8702   0.266   0.950   9.701  0.6274  0.6073 -0.5190
   90SAPS   C22 8703   0.024   1.008   9.673 -0.4049  0.4090 -0.8124
   90SAPS   H2R 8704   0.052   1.114   9.690  1.3621  0.1545 -2.0227
   90SAPS   H2S 8705  -0.000   1.007   9.564 -2.4495 -0.2560 -0.3768
   90SAPS    C3 8706   0.172   0.586   9.531 -0.0550  1.2330 -0.9453
   90SAPS    HX 8707   0.258   0.517   9.544  0.4254  2.0069  0.0371
   90SAPS    HY 8708   0.164   0.635   9.431 -0.2389 -0.0209 -1.5635
   90SAPS   O31 8709   0.051   0.508   9.552 -0.0467 -0.2612  0.1124
   90SAPS   C31 8710   0.019   0.446   9.443 -0.2614 -0.2301  0.3570
   90SAPS   O32 8711   0.090   0.426   9.345 -0.4336 -0.1882  0.2937
   90SAPS   C32 8712  -0.124   0.392   9.456  0.3055  0.3355 -0.3247
   90SAPS   H2X 8713  -0.186   0.429   9.372  0.2342 -1.8154 -1.2220
   90SAPS   H2Y 8714  -0.166   0.435   9.550 -0.1190  1.5349 -1.0523
   90SAPS   C23 8715  -0.090   0.965   9.766  0.1164 -0.1139  0.3428
   90SAPS   H3R 8716  -0.067   1.014   9.863 -1.1918  1.6713 -0.2010
   90SAPS   H3S 8717  -0.067   0.857   9.768  1.3860  0.1465  0.0306
   90SAPS   C24 8718  -0.231   1.001   9.714  0.1071 -0.5776  0.9991
   90SAPS   H4R 8719  -0.302   0.937   9.771 -1.9163  0.6676 -0.0638
   90SAPS   H4S 8720  -0.239   0.953   9.614 -0.3069 -1.5673  1.4978
   90SAPS   C25 8721  -0.280   1.143   9.722 -0.1374 -0.3949  0.5718
   90SAPS   H5R 8722  -0.321   1.171   9.821 -1.1702 -1.4097  0.4516
   90SAPS   C26 8723  -0.304   1.220   9.614 -0.0717  0.2265 -0.7591
   90SAPS   H6R 8724  -0.341   1.323   9.628  2.9049  1.6693 -3.1103
   90SAPS   C27 8725  -0.284   1.180   9.474  0.0943  0.1432 -0.0678
   90SAPS   H7R 8726  -0.349   1.093   9.450 -0.3623  0.9593 -1.9539
   90SAPS   H7S 8727  -0.178   1.146   9.471  0.2874  0.6942  0.3853
   90SAPS   C28 8728  -0.300   1.280   9.355  0.4747 -0.0751 -0.7898
   90SAPS   H8R 8729  -0.320   1.384   9.384  0.2531  0.1585 -1.7599
   90SAPS   C29 8730  -0.303   1.266   9.226 -0.8095  0.0022  0.1901
   90SAPS   H9R 8731  -0.290   1.356   9.164 -1.2426 -0.7075 -0.9366
   90SAPS  C210 8732  -0.291   1.134   9.153  0.5180  0.9833  0.0343
   90SAPS  H10R 8733  -0.319   1.150   9.047  2.9138 -3.9355 -1.4617
   90SAPS  H10S 8734  -0.359   1.058   9.196 -0.0717  0.4593 -1.8026
   90SAPS  C211 8735  -0.156   1.072   9.162  0.1859  1.0137  0.3055
   90SAPS  H11R 8736  -0.134   1.040   9.265  0.9818 -1.1379 -0.5012
   90SAPS  C212 8737  -0.063   1.049   9.067 -0.0486 -0.1833 -0.3025
   90SAPS  H12R 8738   0.030   0.996   9.092 -0.5166  0.2083  2.3675
   90SAPS  C213 8739  -0.081   1.100   8.924 -0.1830 -0.3987 -0.0858
   90SAPS  H13R 8740  -0.001   1.172   8.897 -0.4932  0.6099  1.5921
   90SAPS  H13S 8741  -0.178   1.152   8.908  0.8580  2.5618  2.6142
   90SAPS  C214 8742  -0.081   0.972   8.844  0.1270 -0.1243 -0.4002
   90SAPS  H14R 8743   0.016   0.920   8.847  0.2669 -0.0429 -2.6756
   90SAPS  C215 8744  -0.166   0.921   8.751  1.1440 -0.3052 -0.0484
   90SAPS  H15R 8745  -0.152   0.815   8.728 -0.2810 -0.1845 -1.5505
   90SAPS  C216 8746  -0.292   0.993   8.711 -0.0432 -0.1981  0.4216
   90SAPS  H16R 8747  -0.284   1.104   8.712  0.2098 -0.2065 -1.0701
   90SAPS  H16S 8748  -0.356   0.967   8.798  0.6283 -0.0352  0.9689
   90SAPS  C217 8749  -0.356   0.964   8.570 -0.2880  0.3917 -0.0244
   90SAPS  H17R 8750  -0.440   1.034   8.557 -0.8013 -0.7090 -3.2934
   90SAPS  H17S 8751  -0.390   0.858   8.572  1.3761 -0.1981 -1.0999
   90SAPS  C218 8752  -0.256   0.985   8.460  0.1549  0.0648 -0.1536
   90SAPS  H18R 8753  -0.175   0.910   8.458  0.3591  0.3130 -3.6686
   90SAPS  H18S 8754  -0.214   1.087   8.474 -2.1251  0.7555  2.1143
   90SAPS  C219 8755  -0.333   0.988   8.326  0.2404  0.5130  0.1139
   90SAPS  H19R 8756  -0.421   1.053   8.346 -0.5200 -0.4954  0.1007
   90SAPS  H19S 8757  -0.376   0.887   8.309 -1.5095  1.0608  1.0571
   90SAPS  C220 8758  -0.244   1.030   8.198 -0.1427 -0.7204 -0.4106
   90SAPS  H20R 8759  -0.164   0.955   8.182  0.6432 -0.1150  0.6367
   90SAPS  H20S 8760  -0.207   1.132   8.221 -5.0181  1.2580 -0.8478
   90SAPS  H20T 8761  -0.311   1.043   8.111 -2.8242 -0.3128  1.6413
   90SAPS   C33 8762  -0.130   0.237   9.466  1.0239 -0.0970 -0.2526
   90SAPS   H3X 8763  -0.037   0.201   9.516  0.3183 -1.4407  0.1211
   90SAPS   H3Y 8764  -0.129   0.199   9.361 -1.4393 -1.0982  0.0582
   90SAPS   C34 8765  -0.259   0.198   9.534  0.3314  0.1712  0.6301
   90SAPS   H4X 8766  -0.247   0.227   9.640  1.5931  0.1774  0.4970
   90SAPS   H4Y 8767  -0.268   0.087   9.531  0.3017  0.1932 -0.3930
   90SAPS   C35 8768  -0.386   0.255   9.462  1.2152  0.4411  0.7928
   90SAPS   H5X 8769  -0.406   0.361   9.490  1.4715  0.3805  1.2048
   90SAPS   H5Y 8770  -0.470   0.201   9.510  0.6304  0.3359 -0.3286
   90SAPS   C36 8771  -0.420   0.229   9.315  0.0188 -0.1878  0.1218
   90SAPS   H6X 8772  -0.416   0.120   9.299 -0.1169 -0.5265  2.2014
   90SAPS   H6Y 8773  -0.337   0.276   9.258 -1.2615  0.4357 -1.2702
   90SAPS   C37 8774  -0.561   0.268   9.265  0.1834  0.4360  0.0735
   90SAPS   H7X 8775  -0.565   0.377   9.243  0.1727  0.5769  0.7572
   90SAPS   H7Y 8776  -0.641   0.244   9.339  1.0529 -1.4756  0.4403
   90SAPS   C38 8777  -0.599   0.197   9.134  0.0387 -0.3622  0.9368
   90SAPS   H8X 8778  -0.709   0.210   9.122  0.1344  0.5535  1.0352
   90SAPS   H8Y 8779  -0.587   0.086   9.133 -2.0861 -0.6205  0.3591
   90SAPS   C39 8780  -0.537   0.264   9.006 -0.3747  0.1772  0.5535
   90SAPS   H9X 8781  -0.427   0.253   8.997 -0.2046  0.6954  1.9509
   90SAPS   H9Y 8782  -0.552   0.373   9.015  2.0476  0.2470  4.7608
   90SAPS  C310 8783  -0.606   0.214   8.883  0.7167  0.4817 -0.1257
   90SAPS  H10X 8784  -0.707   0.261   8.875  1.3961  2.3513  1.7718
   90SAPS  H10Y 8785  -0.625   0.105   8.877 -0.0236  0.5365  1.1797
   90SAPS  C311 8786  -0.526   0.255   8.762  0.4061  0.4256 -0.5573
   90SAPS  H11X 8787  -0.424   0.213   8.775 -0.0431  0.2062  2.6406
   90SAPS  H11Y 8788  -0.534   0.364   8.747 -2.1730  0.4791  0.8382
   90SAPS  C312 8789  -0.568   0.197   8.629  0.8586 -0.2648  0.0557
   90SAPS  H12X 8790  -0.678   0.195   8.624  0.8806 -0.0113 -0.5455
   90SAPS  H12Y 8791  -0.529   0.095   8.610 -0.8886 -0.7319 -1.1117
   90SAPS  C313 8792  -0.510   0.274   8.509  0.4458  0.2819  0.3025
   90SAPS  H13X 8793  -0.406   0.235   8.504 -0.1660 -1.3281 -0.4996
   90SAPS  H13Y 8794  -0.505   0.380   8.541 -0.0307 -0.0964  1.6712
   90SAPS  C314 8795  -0.597   0.257   8.384 -0.6175  0.1097  0.0284
   90SAPS  H14X 8796  -0.702   0.292   8.396 -0.2733  1.3188 -0.4198
   90SAPS  H14Y 8797  -0.596   0.149   8.355  2.4840 -0.5492  2.3371
   90SAPS  C315 8798  -0.539   0.339   8.265 -0.1046 -0.6403  0.0392
   90SAPS  H15X 8799  -0.565   0.278   8.176  0.7662 -0.4702 -0.3282
   90SAPS  H15Y 8800  -0.428   0.336   8.269  0.0098  0.1370 -1.7327
   90SAPS  C316 8801  -0.598   0.484   8.248  0.8028 -0.7673 -0.6284
   90SAPS  H16X 8802  -0.527   0.546   8.306 -1.3332  1.0254  0.1436
   90SAPS  H16Y 8803  -0.700   0.500   8.290  1.6683  3.1858  0.1075
   90SAPS  C317 8804  -0.593   0.525   8.098  0.4427  0.0348 -0.6433
   90SAPS  H17X 8805  -0.662   0.464   8.036  0.0173  0.5008 -0.6254
   90SAPS  H17Y 8806  -0.488   0.509   8.064  0.6904 -0.1278  0.1777
   90SAPS  C318 8807  -0.628   0.669   8.075 -0.5844 -0.1482 -0.2756
   90SAPS  H18X 8808  -0.610   0.701   7.970  0.1835  1.9266  0.4564
   90SAPS  H18Y 8809  -0.551   0.724   8.134  0.0356 -0.3743 -0.8662
   90SAPS  H18Z 8810  -0.728   0.707   8.105 -0.4894 -0.1425  0.0293
   91SAPS     N 8811   3.587   3.829   5.815  0.1215  0.7460 -0.0021
   91SAPS   HN1 8812   3.630   3.839   5.909  0.2867  1.1235 -0.1179
   91SAPS   HN2 8813   3.529   3.743   5.812  0.9742  0.0585  2.0204
   91SAPS   HN3 8814   3.665   3.816   5.748 -0.6300  0.4601 -0.8263
   91SAPS   C12 8815   3.515   3.952   5.775  0.3724 -0.6639  0.2416
   91SAPS  H12A 8816   3.572   4.003   5.699  0.8751  0.7209  1.5131
   91SAPS   C13 8817   3.374   3.941   5.716  0.6029  0.1929  0.1224
   91SAPS  O13A 8818   3.334   3.822   5.693  0.0929 -0.0590  0.3395
   91SAPS  O13B 8819   3.332   4.035   5.639  0.2164 -0.3060  0.2580
   91SAPS   C11 8820   3.506   4.041   5.907 -1.0377  0.2853  0.3028
   91SAPS  H11A 8821   3.446   3.994   5.988  0.2631  2.7625  2.7779
   91SAPS  H11B 8822   3.449   4.134   5.885  0.1648  1.2236  1.0683
   91SAPS     P 8823   3.710   4.006   6.075 -0.5672 -0.6029 -0.0046
   91SAPS   O13 8824   3.695   3.862   6.062 -0.2292  0.3486  0.2601
   91SAPS   O14 8825   3.854   4.046   6.077  0.0844 -0.1435  0.0035
   91SAPS   O12 8826   3.631   4.079   5.955  0.0642 -0.2623  0.3387
   91SAPS   O11 8827   3.645   4.052   6.202  0.2687 -0.3133  0.6651
   91SAPS    C1 8828   3.606   4.193   6.211 -0.0602  0.4658 -0.2585
   91SAPS    HA 8829   3.689   4.255   6.252  1.0197 -2.0145  1.4829
   91SAPS    HB 8830   3.580   4.240   6.114  2.6322  3.9509  0.5820
   91SAPS    C2 8831   3.492   4.222   6.316 -0.8664 -0.0754 -0.2825
   91SAPS    HS 8832   3.502   4.329   6.343  0.6415 -0.3502  0.2768
   91SAPS   O21 8833   3.509   4.137   6.432  0.2413  0.2627  0.0198
   91SAPS   C21 8834   3.432   4.169   6.536 -0.2945  0.2815  0.0243
   91SAPS   O22 8835   3.358   4.272   6.539 -1.2595  0.6087  0.2773
   91SAPS   C22 8836   3.430   4.054   6.643 -0.2225  1.0178  0.0036
   91SAPS   H2R 8837   3.337   3.996   6.623 -0.0965  0.9589 -0.4067
   91SAPS   H2S 8838   3.525   3.999   6.632 -1.0486 -0.9680  2.4246
   91SAPS    C3 8839   3.338   4.197   6.262  0.2546 -0.0017  0.2004
   91SAPS    HX 8840   3.327   4.263   6.173 -2.1930  0.7935  1.0433
   91SAPS    HY 8841   3.264   4.235   6.336 -2.2900 -2.5680 -0.9219
   91SAPS   O31 8842   3.307   4.067   6.220 -0.5128 -0.3080  0.0271
   91SAPS   C31 8843   3.242   3.986   6.310 -0.2845 -0.7635 -0.3068
   91SAPS   O32 8844   3.200   4.027   6.417 -0.2585 -0.4498 -0.1101
   91SAPS   C32 8845   3.207   3.845   6.255  1.2098 -0.6154 -0.2379
   91SAPS   H2X 8846   3.145   3.870   6.166 -1.5430 -0.4240  1.6631
   91SAPS   H2Y 8847   3.141   3.803   6.334  2.7380 -1.0675  0.8224
   91SAPS   C23 8848   3.416   4.115   6.787  0.0594 -0.2970 -0.0188
   91SAPS   H3R 8849   3.411   4.034   6.863  1.3228 -0.3828 -0.0149
   91SAPS   H3S 8850   3.332   4.184   6.807  0.3050  0.0142 -0.0452
   91SAPS   C24 8851   3.548   4.197   6.819  0.0671  0.2487  0.3251
   91SAPS   H4R 8852   3.519   4.259   6.906  1.7213  0.3803  0.8075
   91SAPS   H4S 8853   3.560   4.275   6.740 -0.5584  2.4463  2.3527
   91SAPS   C25 8854   3.677   4.133   6.845 -0.1894  0.4141  0.0607
   91SAPS   H5R 8855   3.745   4.137   6.759  0.6595  0.0731  0.7124
   91SAPS   C26 8856   3.708   4.068   6.958 -0.3472 -0.3707 -0.1369
   91SAPS   H6R 8857   3.815   4.045   6.969  0.0986  2.0930  1.1741
   91SAPS   C27 8858   3.627   4.046   7.077 -0.0223 -0.6434 -0.0803
   91SAPS   H7R 8859   3.538   3.992   7.037  1.1634 -0.7553 -2.7172
   91SAPS   H7S 8860   3.575   4.139   7.110 -0.6686 -1.2885  0.7405
   91SAPS   C28 8861   3.698   3.977   7.194  0.1616  0.4887 -0.4331
   91SAPS   H8R 8862   3.695   3.867   7.200  1.3096  0.4206 -1.0903
   91SAPS   C29 8863   3.756   4.049   7.291  0.4406  0.5313 -0.1762
   91SAPS   H9R 8864   3.793   3.998   7.382 -2.4395  0.2970  0.9150
   91SAPS  C210 8865   3.760   4.197   7.298  0.4091 -0.2025  0.3238
   91SAPS  H10R 8866   3.668   4.224   7.353  0.7774  1.8875 -0.0262
   91SAPS  H10S 8867   3.746   4.228   7.192  1.4855  0.2196  0.2972
   91SAPS  C211 8868   3.890   4.259   7.360  0.6045 -0.8890  0.5490
   91SAPS  H11R 8869   3.964   4.308   7.295  0.2096 -0.5595  0.3499
   91SAPS  C212 8870   3.922   4.252   7.493  0.1010 -0.0030 -0.5056
   91SAPS  H12R 8871   4.018   4.294   7.526 -0.4179  1.3747 -0.6924
   91SAPS  C213 8872   3.843   4.179   7.597 -0.3162 -0.4228  0.0009
   91SAPS  H13R 8873   3.745   4.152   7.552 -0.2393  1.5498 -1.3929
   91SAPS  H13S 8874   3.814   4.245   7.682 -2.6104 -3.0791  1.3969
   91SAPS  C214 8875   3.910   4.053   7.659  0.3246  0.3267  0.4163
   91SAPS  H14R 8876   4.015   4.026   7.644  0.3868  0.1491  1.1902
   91SAPS  C215 8877   3.834   3.968   7.735 -0.1007  0.6225  0.5206
   91SAPS  H15R 8878   3.890   3.881   7.770 -0.0836  0.6264  0.5027
   91SAPS  C216 8879   3.689   3.972   7.773 -0.4031 -0.2422 -0.3392
   91SAPS  H16R 8880   3.641   3.916   7.690 -2.3072 -0.4979  0.9216
   91SAPS  H16S 8881   3.656   4.078   7.768 -0.8718 -0.4857 -3.0234
   91SAPS  C217 8882   3.650   3.917   7.910  0.7282 -0.4438 -0.6140
   91SAPS  H17R 8883   3.735   3.936   7.979  0.3753  1.0998 -0.5660
   91SAPS  H17S 8884   3.634   3.807   7.912 -0.7571 -0.2249  0.4965
   91SAPS  C218 8885   3.522   3.984   7.965  0.2333 -0.0750 -0.2677
   91SAPS  H18R 8886   3.439   3.978   7.891 -0.2308  0.5863  0.1926
   91SAPS  H18S 8887   3.541   4.090   7.993 -0.8463  0.7701 -2.5977
   91SAPS  C219 8888   3.464   3.917   8.088 -0.0471 -0.1460  0.4203
   91SAPS  H19R 8889   3.554   3.915   8.152 -1.6326 -0.7970  2.7072
   91SAPS  H19S 8890   3.434   3.813   8.061 -2.0053  0.6239 -0.4843
   91SAPS  C220 8891   3.354   4.003   8.148 -0.8455  0.0043  0.8174
   91SAPS  H20R 8892   3.313   3.961   8.242 -1.5591  3.0073  1.9007
   91SAPS  H20S 8893   3.271   4.001   8.074 -1.9893 -0.3484  2.0824
   91SAPS  H20T 8894   3.397   4.105   8.151  0.0579 -0.3308 -0.4351
   91SAPS   C33 8895   3.325   3.757   6.212  0.3262 -0.3725  0.1687
   91SAPS   H3X 8896   3.401   3.812   6.153 -0.1235 -0.7445 -0.7539
   91SAPS   H3Y 8897   3.293   3.671   6.150  0.0859  1.0420 -1.7037
   91SAPS   C34 8898   3.384   3.687   6.334 -0.0684 -0.3377 -0.1829
   91SAPS   H4X 8899   3.371   3.577   6.324  1.6916 -0.4242 -1.9578
   91SAPS   H4Y 8900   3.322   3.722   6.419  0.8527  0.7021  0.0832
   91SAPS   C35 8901   3.526   3.731   6.367 -0.7597  0.4470  0.2732
   91SAPS   H5X 8902   3.536   3.842   6.364  0.2350  0.3585  0.0109
   91SAPS   H5Y 8903   3.584   3.693   6.280 -1.7970  2.2199 -1.2316
   91SAPS   C36 8904   3.578   3.671   6.490  0.6800 -0.2964  0.3261
   91SAPS   H6X 8905   3.563   3.560   6.486 -0.4110 -0.1934  1.2933
   91SAPS   H6Y 8906   3.508   3.715   6.564 -0.3492 -1.4051  0.0402
   91SAPS   C37 8907   3.726   3.700   6.528 -0.0053  0.3254  0.4698
   91SAPS   H7X 8908   3.750   3.798   6.481  4.6015  0.1856  2.2364
   91SAPS   H7Y 8909   3.782   3.619   6.476 -1.1370 -0.8511  1.0599
   91SAPS   C38 8910   3.748   3.705   6.680 -0.0878 -0.3934  0.2947
   91SAPS   H8X 8911   3.719   3.605   6.718  1.6577 -0.5654  1.2540
   91SAPS   H8Y 8912   3.680   3.778   6.728 -1.9167 -0.6057 -1.8966
   91SAPS   C39 8913   3.896   3.725   6.723 -0.2773  0.1084  0.6235
   91SAPS   H9X 8914   3.939   3.813   6.670  2.8377 -1.7705 -0.1426
   91SAPS   H9Y 8915   3.955   3.637   6.689  1.7090  1.8328 -0.5002
   91SAPS  C310 8916   3.916   3.734   6.876  0.0783  0.4639  0.0528
   91SAPS  H10X 8917   3.878   3.638   6.919  1.0052 -0.4381 -1.1317
   91SAPS  H10Y 8918   3.856   3.822   6.906  1.1747  1.4664 -0.6989
   91SAPS  C311 8919   4.060   3.761   6.918 -0.2644 -0.6878  1.1269
   91SAPS  H11X 8920   4.093   3.862   6.885  0.0899 -1.6146 -1.4888
   91SAPS  H11Y 8921   4.125   3.682   6.874  0.7649  1.7004 -1.7674
   91SAPS  C312 8922   4.081   3.740   7.069 -0.3379 -0.4619 -0.5978
   91SAPS  H12X 8923   4.191   3.726   7.077 -0.5350 -1.8731 -0.1737
   91SAPS  H12Y 8924   4.034   3.646   7.106 -0.8022  0.3812  1.0127
   91SAPS  C313 8925   4.016   3.852   7.151 -0.1112 -0.2869 -0.5098
   91SAPS  H13X 8926   3.905   3.850   7.142 -0.1256 -0.4446 -0.3147
   91SAPS  H13Y 8927   4.041   3.950   7.105  1.3502  0.9582  2.7305
   91SAPS  C314 8928   4.061   3.860   7.299  0.0802  0.2095 -0.0507
   91SAPS  H14X 8929   3.975   3.896   7.360 -3.3423 -4.3714 -1.8012
   91SAPS  H14Y 8930   4.138   3.939   7.310  0.8991 -0.4387 -1.0194
   91SAPS  C315 8931   4.105   3.722   7.367 -0.1449  1.1797  0.1511
   91SAPS  H15X 8932   4.205   3.693   7.328 -0.0757  1.2070  0.3111
   91SAPS  H15Y 8933   4.030   3.642   7.348  0.6082  0.2165  1.1762
   91SAPS  C316 8934   4.123   3.732   7.527 -0.7806  0.1871  0.1145
   91SAPS  H16X 8935   4.019   3.747   7.562 -0.0207  0.7835  2.2042
   91SAPS  H16Y 8936   4.193   3.818   7.539 -0.9554  0.4943 -0.9313
   91SAPS  C317 8937   4.174   3.604   7.597  0.2862 -0.4907  0.4256
   91SAPS  H17X 8938   4.263   3.558   7.550  0.3045 -1.2033  1.1542
   91SAPS  H17Y 8939   4.101   3.525   7.568  0.4771  0.2572 -2.3054
   91SAPS  C318 8940   4.196   3.607   7.747 -0.3293 -0.0622 -0.3459
   91SAPS  H18X 8941   4.227   3.507   7.783 -0.1126 -0.3051 -1.1834
   91SAPS  H18Y 8942   4.102   3.630   7.801 -0.2727  0.2433 -0.3718
   91SAPS  H18Z 8943   4.259   3.696   7.768 -0.5423 -0.2859  1.3193
   92SAPS     N 8944   2.950   3.593   5.958  0.5373 -0.5311 -0.1044
   92SAPS   HN1 8945   3.011   3.510   5.975 -0.6117 -1.8609 -2.2539
   92SAPS   HN2 8946   3.018   3.666   5.929  1.6781 -2.1161 -1.5484
   92SAPS   HN3 8947   2.896   3.614   6.044 -1.6295 -2.1122 -1.0304
   92SAPS   C12 8948   2.866   3.551   5.845 -0.0416  0.1872 -0.3861
   92SAPS  H12A 8949   2.836   3.646   5.803  1.9122  0.5956 -0.9196
   92SAPS   C13 8950   2.943   3.477   5.732 -0.4428 -0.2120  0.2545
   92SAPS  O13A 8951   3.058   3.435   5.755 -0.0864 -0.8547 -0.5067
   92SAPS  O13B 8952   2.888   3.466   5.621 -0.1839  0.0571  0.9463
   92SAPS   C11 8953   2.750   3.454   5.896  0.9602 -0.2101 -0.5681
   92SAPS  H11A 8954   2.807   3.365   5.932 -1.8862 -2.2192 -0.9260
   92SAPS  H11B 8955   2.686   3.427   5.810 -2.1695 -0.2197  1.6630
   92SAPS     P 8956   2.591   3.436   6.118  0.0169  0.0195  0.5944
   92SAPS   O13 8957   2.627   3.482   6.249 -0.8086  0.3041  0.2290
   92SAPS   O14 8958   2.448   3.441   6.088  0.6178 -0.4382 -0.2934
   92SAPS   O12 8959   2.668   3.519   6.000  0.2770  0.4920  0.3245
   92SAPS   O11 8960   2.633   3.282   6.096 -0.3670 -0.5098  0.2628
   92SAPS    C1 8961   2.571   3.211   5.988 -0.5771 -0.0111  0.0505
   92SAPS    HA 8962   2.463   3.197   6.007 -0.3669 -1.3056  0.3164
   92SAPS    HB 8963   2.583   3.258   5.888  2.2967 -2.2952 -0.7626
   92SAPS    C2 8964   2.606   3.059   5.967 -0.4577  0.0836  0.3544
   92SAPS    HS 8965   2.526   3.019   5.901  0.0849  0.8594 -0.8063
   92SAPS   O21 8966   2.612   2.994   6.091 -0.0144 -0.5064  0.3277
   92SAPS   C21 8967   2.509   2.995   6.163 -0.1772  0.3739 -0.3470
   92SAPS   O22 8968   2.388   3.005   6.134  0.6419  0.1263  0.1411
   92SAPS   C22 8969   2.550   2.959   6.309  0.2425 -0.4348  0.1766
   92SAPS   H2R 8970   2.652   3.003   6.319  0.2726 -0.0192 -1.8565
   92SAPS   H2S 8971   2.475   3.001   6.379  0.0657  0.5911 -0.6162
   92SAPS    C3 8972   2.743   3.039   5.897  0.3410 -0.1230  0.5737
   92SAPS    HX 8973   2.746   3.083   5.795 -0.3196  0.4861  0.8143
   92SAPS    HY 8974   2.777   2.935   5.879  1.9822  0.8133 -2.0898
   92SAPS   O31 8975   2.846   3.124   5.960 -0.4334 -0.3992 -0.1306
   92SAPS   C31 8976   2.902   3.064   6.060 -0.1128  0.7619  0.1592
   92SAPS   O32 8977   2.909   2.944   6.081  0.5877 -0.3810 -0.6956
   92SAPS   C32 8978   2.983   3.157   6.138 -0.8292  0.0604  0.0230
   92SAPS   H2X 8979   2.934   3.254   6.160 -0.9393  0.1241 -0.4980
   92SAPS   H2Y 8980   3.083   3.172   6.092  0.4156 -1.9540  1.9386
   92SAPS   C23 8981   2.544   2.806   6.331  1.1723 -0.6507 -0.0717
   92SAPS   H3R 8982   2.577   2.747   6.243 -1.4222 -0.1580 -1.4270
   92SAPS   H3S 8983   2.441   2.775   6.358 -0.4523  1.9130 -2.9416
   92SAPS   C24 8984   2.622   2.769   6.459 -0.1176  0.3156 -0.1281
   92SAPS   H4R 8985   2.609   2.661   6.483 -0.3588  0.2398 -0.5951
   92SAPS   H4S 8986   2.565   2.819   6.540  1.2084 -0.4484  1.3064
   92SAPS   C25 8987   2.771   2.799   6.457 -0.4040 -0.0760  1.2145
   92SAPS   H5R 8988   2.837   2.747   6.386 -1.0269 -0.5963  1.0046
   92SAPS   C26 8989   2.824   2.862   6.559 -0.0157  0.5014 -0.1754
   92SAPS   H6R 8990   2.927   2.897   6.543 -0.3938  1.4174 -0.5903
   92SAPS   C27 8991   2.764   2.917   6.687  0.2509 -0.2561  0.4519
   92SAPS   H7R 8992   2.843   2.936   6.763  0.4042 -1.4871  0.6236
   92SAPS   H7S 8993   2.702   2.832   6.725  1.5333 -1.2464  0.3666
   92SAPS   C28 8994   2.687   3.041   6.660  0.4354  0.1053 -0.4671
   92SAPS   H8R 8995   2.602   3.033   6.590 -0.1287 -1.8186  0.4139
   92SAPS   C29 8996   2.727   3.163   6.707 -0.7490  0.3011 -0.5594
   92SAPS   H9R 8997   2.656   3.247   6.700  1.0924  1.7384 -3.1778
   92SAPS  C210 8998   2.850   3.196   6.789 -0.5750  0.3101  0.0136
   92SAPS  H10R 8999   2.932   3.149   6.731 -0.4202 -0.6307  0.9727
   92SAPS  H10S 9000   2.828   3.148   6.887 -1.2025 -2.1982 -1.3189
   92SAPS  C211 9001   2.882   3.339   6.817  1.6906 -0.6548 -0.0866
   92SAPS  H11R 9002   2.858   3.404   6.731 -0.9252  1.0157  1.8138
   92SAPS  C212 9003   2.905   3.400   6.936  0.0984 -0.3203 -0.7197
   92SAPS  H12R 9004   2.934   3.506   6.936  0.9705 -0.5520 -0.8652
   92SAPS  C213 9005   2.910   3.342   7.073  0.2153  0.1953 -0.3715
   92SAPS  H13R 9006   3.014   3.346   7.113  0.3804  0.0694 -0.7809
   92SAPS  H13S 9007   2.894   3.234   7.051  0.2457  0.1296 -0.0685
   92SAPS  C214 9008   2.799   3.396   7.162  0.4875 -0.3657  0.0562
   92SAPS  H14R 9009   2.703   3.343   7.155  0.7538 -0.8213 -0.1478
   92SAPS  C215 9010   2.812   3.486   7.263  0.5618  0.6012 -0.1517
   92SAPS  H15R 9011   2.730   3.516   7.330 -0.3774  1.1487 -1.5271
   92SAPS  C216 9012   2.946   3.542   7.301 -0.3466 -0.0720  0.5455
   92SAPS  H16R 9013   2.932   3.627   7.371 -0.1064 -0.3737  0.9624
   92SAPS  H16S 9014   3.016   3.568   7.219 -1.1927 -2.2555 -0.9225
   92SAPS  C217 9015   3.022   3.436   7.387 -0.6158  0.2682  0.2800
   92SAPS  H17R 9016   3.120   3.483   7.407 -1.1303  1.5106 -0.0809
   92SAPS  H17S 9017   3.036   3.343   7.326  0.6557  0.4308  0.3154
   92SAPS  C218 9018   2.957   3.395   7.517 -0.3711 -0.5461 -0.3952
   92SAPS  H18R 9019   2.867   3.335   7.489 -0.9115 -0.2472  0.6886
   92SAPS  H18S 9020   2.918   3.479   7.577  0.1576 -0.2719 -0.4370
   92SAPS  C219 9021   3.062   3.330   7.611  0.1491  0.3003  0.0945
   92SAPS  H19R 9022   3.134   3.409   7.641 -0.6907  1.2125 -0.2646
   92SAPS  H19S 9023   3.121   3.256   7.554  1.0060  1.9166 -1.1607
   92SAPS  C220 9024   3.000   3.267   7.736 -0.1268 -0.1648  0.3601
   92SAPS  H20R 9025   3.087   3.218   7.785 -1.1944 -2.4828 -0.0112
   92SAPS  H20S 9026   2.929   3.192   7.694  0.8429 -0.6207 -0.4823
   92SAPS  H20T 9027   2.952   3.337   7.808 -1.2740  0.0062 -0.5649
   92SAPS   C33 9028   2.999   3.104   6.281 -0.1108 -0.8013 -0.7290
   92SAPS   H3X 9029   3.056   3.009   6.280 -1.2436 -1.5217  0.6272
   92SAPS   H3Y 9030   2.898   3.073   6.316  0.8278 -1.2120  1.6768
   92SAPS   C34 9031   3.063   3.197   6.380  0.1758 -0.0637  0.4973
   92SAPS   H4X 9032   3.011   3.176   6.476  0.6087  1.2019  1.0138
   92SAPS   H4Y 9033   3.046   3.303   6.354 -0.1963 -1.0418 -3.5838
   92SAPS   C35 9034   3.216   3.179   6.403 -0.6982 -0.1977 -0.5344
   92SAPS   H5X 9035   3.271   3.171   6.307  0.2605 -1.1354  0.0845
   92SAPS   H5Y 9036   3.248   3.089   6.460  0.7722 -0.9785 -2.4977
   92SAPS   C36 9037   3.284   3.307   6.461  0.7507  0.1958 -0.2994
   92SAPS   H6X 9038   3.234   3.399   6.424  0.7574 -0.3186 -1.5998
   92SAPS   H6Y 9039   3.389   3.300   6.425  1.1303  0.9893  0.6232
   92SAPS   C37 9040   3.270   3.311   6.619 -0.1090 -0.6054 -0.0696
   92SAPS   H7X 9041   3.310   3.213   6.651  0.3701 -0.6763 -0.8716
   92SAPS   H7Y 9042   3.163   3.317   6.647  0.2930 -0.2014  1.4236
   92SAPS   C38 9043   3.342   3.422   6.692 -0.4010 -0.2629 -0.3626
   92SAPS   H8X 9044   3.287   3.516   6.672 -1.4744 -0.8502 -0.2440
   92SAPS   H8Y 9045   3.447   3.430   6.658 -0.1077 -0.7091  0.3980
   92SAPS   C39 9046   3.329   3.412   6.841 -0.0248  0.5732 -0.3147
   92SAPS   H9X 9047   3.352   3.308   6.874  0.6479  0.8476  0.0977
   92SAPS   H9Y 9048   3.223   3.425   6.873  0.2574 -0.0758  0.9320
   92SAPS  C310 9049   3.417   3.514   6.916 -0.2677  0.2701 -0.3759
   92SAPS  H10X 9050   3.364   3.612   6.909 -1.3751 -0.0901  2.2602
   92SAPS  H10Y 9051   3.511   3.520   6.858 -1.0523 -1.3572 -1.8492
   92SAPS  C311 9052   3.457   3.468   7.059 -0.1322 -0.2012  0.1483
   92SAPS  H11X 9053   3.533   3.541   7.094  1.2561 -1.2966 -0.5227
   92SAPS  H11Y 9054   3.498   3.365   7.050 -3.0755 -1.2881 -1.4599
   92SAPS  C312 9055   3.334   3.441   7.162  0.1911 -0.2922  0.1199
   92SAPS  H12X 9056   3.278   3.354   7.120 -0.8681 -0.2208  1.3588
   92SAPS  H12Y 9057   3.258   3.522   7.167  0.0054 -0.4710  0.1877
   92SAPS  C313 9058   3.378   3.419   7.304  0.7940  0.1162  0.7679
   92SAPS  H13X 9059   3.454   3.339   7.300  0.3424 -0.2967  0.4431
   92SAPS  H13Y 9060   3.301   3.393   7.380 -0.9277 -2.0153 -1.6608
   92SAPS  C314 9061   3.464   3.537   7.364  0.6076  0.2290  0.2120
   92SAPS  H14X 9062   3.420   3.639   7.366 -0.0816 -0.0729  0.4850
   92SAPS  H14Y 9063   3.554   3.550   7.301 -0.4056  1.1099 -1.0709
   92SAPS  C315 9064   3.518   3.501   7.503  0.0509  0.3663 -0.4501
   92SAPS  H15X 9065   3.558   3.398   7.495 -1.8523 -0.3867 -0.4766
   92SAPS  H15Y 9066   3.429   3.486   7.567  0.3050 -2.0835 -0.6167
   92SAPS  C316 9067   3.616   3.604   7.558  0.5815  0.3145 -0.3611
   92SAPS  H16X 9068   3.545   3.664   7.619 -0.8789 -0.5502 -1.1823
   92SAPS  H16Y 9069   3.643   3.670   7.472  0.8893  0.2134 -0.3398
   92SAPS  C317 9070   3.732   3.552   7.646  0.1360 -0.3004  0.4224
   92SAPS  H17X 9071   3.787   3.644   7.676 -0.4644 -0.8854  3.3785
   92SAPS  H17Y 9072   3.791   3.484   7.580  1.3494  0.8903  0.2543
   92SAPS  C318 9073   3.683   3.484   7.771 -0.4176 -0.1781  0.3504
   92SAPS  H18X 9074   3.764   3.459   7.843 -1.7293 -1.1992  1.4853
   92SAPS  H18Y 9075   3.631   3.388   7.751 -1.6308 -0.0615  2.8192
   92SAPS  H18Z 9076   3.613   3.549   7.827  1.9999  2.9552 -0.1040
   93SAPS     N 9077   3.849   2.271   5.954 -0.3831 -0.1061  0.2763
   93SAPS   HN1 9078   3.813   2.195   5.893  0.2492 -0.1561 -0.0418
   93SAPS   HN2 9079   3.932   2.238   6.008 -0.8290 -1.2594  0.2800
   93SAPS   HN3 9080   3.782   2.306   6.025 -0.6174 -0.0645  0.0334
   93SAPS   C12 9081   3.885   2.374   5.857 -0.0768  0.2073 -0.3247
   93SAPS  H12A 9082   3.954   2.328   5.787 -1.9210 -2.1294 -0.6872
   93SAPS   C13 9083   3.764   2.436   5.789 -0.4361  0.9356  0.0085
   93SAPS  O13A 9084   3.648   2.413   5.827  0.3128 -0.5669  0.1425
   93SAPS  O13B 9085   3.787   2.514   5.691  0.0303  0.0549  0.3203
   93SAPS   C11 9086   3.955   2.487   5.939 -0.1847  0.1524  0.7742
   93SAPS  H11A 9087   4.023   2.438   6.011  1.5603  0.7859 -0.3991
   93SAPS  H11B 9088   3.884   2.559   5.987 -1.6203  0.1869 -1.3021
   93SAPS     P 9089   4.178   2.528   5.807 -0.1406  0.2067 -0.1356
   93SAPS   O13 9090   4.243   2.443   5.909  0.3414 -0.6603 -0.1971
   93SAPS   O14 9091   4.176   2.477   5.669 -0.3026 -0.3015  0.4451
   93SAPS   O12 9092   4.028   2.569   5.849 -0.7397 -0.4322  0.7615
   93SAPS   O11 9093   4.251   2.667   5.815 -0.3166 -0.2149 -0.6219
   93SAPS    C1 9094   4.201   2.777   5.895  0.0475  0.3370 -0.0025
   93SAPS    HA 9095   4.147   2.851   5.833 -2.8598 -0.2436  1.7819
   93SAPS    HB 9096   4.129   2.742   5.972  0.7825 -0.7884  0.1951
   93SAPS    C2 9097   4.321   2.856   5.962  0.1830 -0.4157  0.1186
   93SAPS    HS 9098   4.384   2.894   5.879 -0.9313 -0.3765 -0.7214
   93SAPS   O21 9099   4.380   2.774   6.066  0.1073 -0.2871 -0.1507
   93SAPS   C21 9100   4.479   2.697   6.022 -0.0525  0.0941 -0.7246
   93SAPS   O22 9101   4.523   2.688   5.910 -0.0598 -0.0430 -0.4830
   93SAPS   C22 9102   4.531   2.614   6.139  0.9655  0.5069 -0.3884
   93SAPS   H2R 9103   4.556   2.684   6.222 -1.8749  1.1933 -0.0254
   93SAPS   H2S 9104   4.437   2.555   6.151  1.1052  0.3665  0.0165
   93SAPS    C3 9105   4.269   2.984   6.026  0.5424  0.1621 -0.0224
   93SAPS    HX 9106   4.236   3.036   5.934 -0.0355 -1.8285 -0.9627
   93SAPS    HY 9107   4.345   3.054   6.067  0.8043  1.4206 -2.5391
   93SAPS   O31 9108   4.155   2.960   6.118 -0.4257 -0.4022 -0.5265
   93SAPS   C31 9109   4.181   2.999   6.245 -0.2401 -0.1104  0.0746
   93SAPS   O32 9110   4.279   3.059   6.286 -0.0888 -0.7657 -0.8312
   93SAPS   C32 9111   4.067   2.947   6.331  0.3988  0.1758 -0.0926
   93SAPS   H2X 9112   3.983   3.015   6.304  0.9428  0.8598 -0.0629
   93SAPS   H2Y 9113   4.098   2.965   6.436  0.3676  0.6753 -0.1690
   93SAPS   C23 9114   4.646   2.532   6.081  0.1361  1.0257 -0.1173
   93SAPS   H3R 9115   4.712   2.606   6.030 -0.8716  2.0094 -0.0168
   93SAPS   H3S 9116   4.603   2.462   6.007 -1.0088 -1.6776  2.9704
   93SAPS   C24 9117   4.735   2.453   6.182 -0.4447  0.1088  0.2831
   93SAPS   H4R 9118   4.804   2.531   6.222 -0.3733  0.6452 -0.8553
   93SAPS   H4S 9119   4.811   2.394   6.127 -0.0780  0.1968  0.6974
   93SAPS   C25 9120   4.662   2.368   6.284 -0.7854  0.2390 -0.4849
   93SAPS   H5R 9121   4.606   2.298   6.219  0.9777  1.0299 -2.9440
   93SAPS   C26 9122   4.657   2.376   6.422 -0.2834 -0.1498 -0.0373
   93SAPS   H6R 9123   4.602   2.293   6.468 -2.1164  0.9014 -0.2484
   93SAPS   C27 9124   4.727   2.483   6.502 -1.0100  0.4301 -0.6719
   93SAPS   H7R 9125   4.772   2.554   6.430 -4.3680  1.5747 -1.7395
   93SAPS   H7S 9126   4.808   2.443   6.566  0.1641 -0.6939 -2.8084
   93SAPS   C28 9127   4.627   2.567   6.579 -0.3283  0.6759 -0.8186
   93SAPS   H8R 9128   4.599   2.666   6.538  1.6285  0.8359 -1.8192
   93SAPS   C29 9129   4.579   2.533   6.701  0.9026 -0.3881  0.6102
   93SAPS   H9R 9130   4.506   2.601   6.749 -1.0268  0.2648 -3.0811
   93SAPS  C210 9131   4.617   2.411   6.780  0.1323 -0.0887 -0.2416
   93SAPS  H10R 9132   4.631   2.436   6.888  0.2587  1.4319 -0.5981
   93SAPS  H10S 9133   4.717   2.366   6.763  1.1331  0.8885  2.6394
   93SAPS  C211 9134   4.500   2.315   6.773 -0.1288  0.6369 -0.7089
   93SAPS  H11R 9135   4.503   2.256   6.681 -0.8753  0.8301 -0.8696
   93SAPS  C212 9136   4.386   2.315   6.844 -0.1915  0.3029  0.0190
   93SAPS  H12R 9137   4.310   2.238   6.823  2.5538 -1.7549 -2.7557
   93SAPS  C213 9138   4.348   2.413   6.949 -0.2814  0.3542 -0.6337
   93SAPS  H13R 9139   4.385   2.514   6.920 -0.8414  0.5683 -0.5991
   93SAPS  H13S 9140   4.412   2.398   7.038  1.4371  0.9592 -1.7270
   93SAPS  C214 9141   4.202   2.422   6.991 -0.2962  0.0670 -0.1436
   93SAPS  H14R 9142   4.138   2.462   6.912  0.1090  0.7315 -0.1386
   93SAPS  C215 9143   4.152   2.376   7.108  0.3677 -0.0743 -0.5509
   93SAPS  H15R 9144   4.044   2.386   7.125  0.1496  0.6357 -2.2211
   93SAPS  C216 9145   4.218   2.305   7.221  0.1999 -0.0913 -0.5065
   93SAPS  H16R 9146   4.324   2.274   7.209  0.3993  0.5696 -0.4707
   93SAPS  H16S 9147   4.166   2.208   7.239  2.1814 -1.4263 -1.8095
   93SAPS  C217 9148   4.218   2.377   7.358 -0.6987  0.3014 -0.6534
   93SAPS  H17R 9149   4.273   2.473   7.348 -0.8812  0.4268 -0.4499
   93SAPS  H17S 9150   4.281   2.327   7.435 -2.4892 -0.5622  0.2818
   93SAPS  C218 9151   4.074   2.396   7.419  0.0727  0.6526  0.0468
   93SAPS  H18R 9152   4.025   2.296   7.411 -2.4567  1.8228  0.4541
   93SAPS  H18S 9153   4.017   2.465   7.353  1.3678 -0.1738 -1.9628
   93SAPS  C219 9154   4.064   2.452   7.561  0.5575 -0.1686  0.0089
   93SAPS  H19R 9155   3.958   2.436   7.589 -0.3920  0.7136 -2.9080
   93SAPS  H19S 9156   4.087   2.561   7.565 -2.0030  0.3789  0.2501
   93SAPS  C220 9157   4.141   2.380   7.678 -0.2013  0.2493  0.2465
   93SAPS  H20R 9158   4.099   2.278   7.690 -1.1811  0.5752 -0.3117
   93SAPS  H20S 9159   4.120   2.433   7.774  1.8935  0.5455  0.5595
   93SAPS  H20T 9160   4.249   2.384   7.656  0.0820  0.5240  1.6143
   93SAPS   C33 9161   4.040   2.794   6.324 -0.3081  0.3218  0.4255
   93SAPS   H3X 9162   4.013   2.781   6.218 -1.4872 -1.2161  0.9078
   93SAPS   H3Y 9163   3.954   2.771   6.391 -1.5911  2.2159 -0.5162
   93SAPS   C34 9164   4.171   2.713   6.345  0.0104 -0.9133 -1.0311
   93SAPS   H4X 9165   4.251   2.746   6.277  1.2263 -3.1370 -0.7351
   93SAPS   H4Y 9166   4.157   2.605   6.322 -1.4255 -0.9050 -0.2659
   93SAPS   C35 9167   4.225   2.729   6.490  0.1579  0.6666  0.3075
   93SAPS   H5X 9168   4.268   2.832   6.490 -1.5030  1.3910  1.2012
   93SAPS   H5Y 9169   4.307   2.656   6.501  0.1027  0.5706  0.0968
   93SAPS   C36 9170   4.122   2.710   6.598 -0.1083 -0.2216 -0.3031
   93SAPS   H6X 9171   4.054   2.622   6.595 -2.0477  1.2326  0.0655
   93SAPS   H6Y 9172   4.045   2.790   6.596  0.2962  0.3005  2.3436
   93SAPS   C37 9173   4.165   2.736   6.745  0.1238 -0.4400 -0.3062
   93SAPS   H7X 9174   4.255   2.674   6.765 -1.1043 -2.2020 -0.1551
   93SAPS   H7Y 9175   4.093   2.713   6.826 -0.3938  0.8850 -0.3720
   93SAPS   C38 9176   4.227   2.873   6.769  1.2250  0.2041 -0.6477
   93SAPS   H8X 9177   4.151   2.949   6.743  0.4597  0.0035  0.9619
   93SAPS   H8Y 9178   4.313   2.884   6.699  1.2425  3.0755 -0.2045
   93SAPS   C39 9179   4.261   2.893   6.923  0.2419 -0.2149  0.8891
   93SAPS   H9X 9180   4.176   2.861   6.989 -1.3594  0.7059 -0.6962
   93SAPS   H9Y 9181   4.283   3.000   6.944 -1.6746  0.5904 -1.0078
   93SAPS  C310 9182   4.385   2.822   6.983  0.0360 -0.0342  1.0021
   93SAPS  H10X 9183   4.476   2.859   6.930 -0.4848  0.3038  0.3362
   93SAPS  H10Y 9184   4.389   2.713   6.961 -0.7765  0.0102  0.6121
   93SAPS  C311 9185   4.391   2.829   7.130 -0.6148 -0.1752 -0.1236
   93SAPS  H11X 9186   4.314   2.787   7.197 -1.8840  2.3166  0.0450
   93SAPS  H11Y 9187   4.401   2.934   7.165  0.0263 -0.4277  0.4529
   93SAPS  C312 9188   4.517   2.768   7.195  0.1132  0.4712 -0.0530
   93SAPS  H12X 9189   4.599   2.830   7.152 -0.3737 -0.1265 -1.8805
   93SAPS  H12Y 9190   4.527   2.661   7.165  0.1815  0.9961 -1.9922
   93SAPS  C313 9191   4.518   2.785   7.349  0.4815  0.6467  0.6371
   93SAPS  H13X 9192   4.419   2.827   7.378  0.3534  0.4258  0.5199
   93SAPS  H13Y 9193   4.588   2.867   7.374 -0.9465  2.6440 -1.6299
   93SAPS  C314 9194   4.565   2.660   7.425 -0.2179  0.1822 -0.0936
   93SAPS  H14X 9195   4.673   2.647   7.402 -0.5877 -1.3507 -1.0114
   93SAPS  H14Y 9196   4.507   2.573   7.387  1.0498 -0.1624 -1.2866
   93SAPS  C315 9197   4.523   2.678   7.576 -0.0380  0.0043  0.5822
   93SAPS  H15X 9198   4.412   2.689   7.581 -0.0625  0.2132 -0.3314
   93SAPS  H15Y 9199   4.578   2.772   7.601 -0.1404  0.8009 -2.0204
   93SAPS  C316 9200   4.564   2.566   7.673  0.3767  0.3777  0.2138
   93SAPS  H16X 9201   4.563   2.470   7.618  1.0504  1.8508 -2.4808
   93SAPS  H16Y 9202   4.487   2.562   7.752 -0.5870 -0.7539 -0.7626
   93SAPS  C317 9203   4.701   2.586   7.742  0.2390  0.1800  0.5036
   93SAPS  H17X 9204   4.704   2.535   7.841 -0.2849  0.6303  0.7589
   93SAPS  H17Y 9205   4.727   2.693   7.759 -1.6545  0.7847 -0.2549
   93SAPS  C318 9206   4.818   2.527   7.661 -0.0591  0.6701  0.2666
   93SAPS  H18X 9207   4.916   2.563   7.699 -0.0405 -0.8843  1.7207
   93SAPS  H18Y 9208   4.807   2.567   7.557 -1.3937  0.8942  0.4794
   93SAPS  H18Z 9209   4.813   2.417   7.648 -3.0116  0.8460 -0.5133
   94SAPS     N 9210   4.937   4.836   5.967  0.1203 -0.4057  0.2378
   94SAPS   HN1 9211   4.886   4.775   5.900 -0.7446  0.2586  0.2911
   94SAPS   HN2 9212   5.034   4.801   5.977  0.6182  1.1177  0.9253
   94SAPS   HN3 9213   4.898   4.829   6.063 -2.1710  1.7213 -0.4914
   94SAPS   C12 9214   4.940   4.979   5.934  0.4209 -0.2664 -0.4549
   94SAPS  H12A 9215   5.017   5.022   5.996  0.8432  0.0825 -1.2238
   94SAPS   C13 9216   4.990   5.003   5.785 -0.4945 -0.1407  0.8823
   94SAPS  O13A 9217   5.011   4.905   5.710 -0.2731 -0.0973 -0.0063
   94SAPS  O13B 9218   4.980   5.118   5.738 -0.5212 -0.3302  0.0293
   94SAPS   C11 9219   4.791   5.042   5.955 -0.9053  0.8925  0.6555
   94SAPS  H11A 9220   4.733   5.000   5.869 -0.6024  3.2429 -0.7294
   94SAPS  H11B 9221   4.799   5.151   5.937 -1.6057  0.8059 -0.2672
   94SAPS     P 9222   4.592   4.968   6.104  0.2486  0.4772  0.2271
   94SAPS   O13 9223   4.506   5.083   6.070  0.3214  0.1854  0.3117
   94SAPS   O14 9224   4.584   4.845   6.029 -0.8751 -0.1209 -0.2354
   94SAPS   O12 9225   4.744   5.026   6.087 -0.8124 -0.3251 -0.1548
   94SAPS   O11 9226   4.572   4.940   6.260 -0.1436  0.4690 -0.1284
   94SAPS    C1 9227   4.635   5.011   6.368 -0.2397 -0.0990  0.3738
   94SAPS    HA 9228   4.672   5.109   6.330 -2.2209  0.6459  0.3269
   94SAPS    HB 9229   4.556   5.023   6.445 -0.2642 -1.8076  0.6371
   94SAPS    C2 9230   4.760   4.931   6.418  0.4788  0.2900 -0.5083
   94SAPS    HS 9231   4.854   4.958   6.366 -0.0236  2.0011 -0.5817
   94SAPS   O21 9232   4.737   4.789   6.416 -0.3175  0.2443  0.4631
   94SAPS   C21 9233   4.793   4.722   6.321 -0.5296  0.9100  0.1769
   94SAPS   O22 9234   4.840   4.765   6.219 -0.1767 -0.6102  0.0264
   94SAPS   C22 9235   4.787   4.573   6.350 -0.4278  0.0139 -0.6173
   94SAPS   H2R 9236   4.787   4.544   6.458  0.1789  1.5817 -0.1796
   94SAPS   H2S 9237   4.690   4.529   6.317  0.7155 -2.7448 -0.4460
   94SAPS    C3 9238   4.802   4.968   6.565 -0.0526 -0.0323  0.3641
   94SAPS    HX 9239   4.843   5.070   6.546  0.1618 -0.0685  0.6386
   94SAPS    HY 9240   4.884   4.901   6.598  0.5074  0.2347 -0.4712
   94SAPS   O31 9241   4.681   4.965   6.656  0.1245 -0.5561  0.6475
   94SAPS   C31 9242   4.649   5.070   6.729  1.1104  0.0623 -0.5539
   94SAPS   O32 9243   4.705   5.171   6.741 -0.1998 -0.6362  0.4578
   94SAPS   C32 9244   4.527   5.042   6.815  0.3780  0.5815  0.4199
   94SAPS   H2X 9245   4.462   4.982   6.748  0.4219 -0.0193  0.9120
   94SAPS   H2Y 9246   4.480   5.141   6.831  1.5678  0.9373  1.8018
   94SAPS   C23 9247   4.894   4.488   6.284  0.0083 -0.0050  0.9017
   94SAPS   H3R 9248   4.925   4.525   6.184  2.3005  0.8174  1.8788
   94SAPS   H3S 9249   4.868   4.380   6.285  0.2037 -0.0542  0.8240
   94SAPS   C24 9250   5.033   4.497   6.357  0.0458 -0.4210  0.3295
   94SAPS   H4R 9251   5.058   4.605   6.363  0.4146 -0.3719 -1.8833
   94SAPS   H4S 9252   5.108   4.457   6.286  0.9534  2.6015 -0.4800
   94SAPS   C25 9253   5.030   4.443   6.498  0.1500 -0.2528 -0.0777
   94SAPS   H5R 9254   5.043   4.334   6.498 -0.4032 -0.3238  0.6734
   94SAPS   C26 9255   5.039   4.512   6.610  0.5303 -0.0120  0.1978
   94SAPS   H6R 9256   5.031   4.450   6.701  1.6262 -0.1655  0.1925
   94SAPS   C27 9257   5.049   4.658   6.629  0.0234 -0.1541 -0.3343
   94SAPS   H7R 9258   4.953   4.702   6.662 -0.1865 -0.3056 -0.7327
   94SAPS   H7S 9259   5.061   4.711   6.532  0.1796  1.8328  0.7604
   94SAPS   C28 9260   5.146   4.691   6.733  0.0395  1.1181  0.0037
   94SAPS   H8R 9261   5.252   4.691   6.702  0.1669 -1.5451  0.3153
   94SAPS   C29 9262   5.130   4.737   6.859 -0.7395 -0.1043 -0.0886
   94SAPS   H9R 9263   5.221   4.761   6.915  0.4461 -0.0241 -1.9931
   94SAPS  C210 9264   5.004   4.773   6.931 -0.0622 -0.6367  0.1861
   94SAPS  H10R 9265   4.986   4.715   7.023 -1.6088  0.1499  0.4003
   94SAPS  H10S 9266   4.916   4.752   6.867 -0.3124 -1.8739  0.9356
   94SAPS  C211 9267   4.999   4.922   6.953  0.3095 -0.5970  0.3340
   94SAPS  H11R 9268   4.951   4.968   6.865 -1.3367 -0.5410  1.2460
   94SAPS  C212 9269   5.034   4.995   7.061 -0.1792  0.0669 -0.0257
   94SAPS  H12R 9270   5.036   5.105   7.066 -1.1666  0.1328 -0.9106
   94SAPS  C213 9271   5.083   4.932   7.192  0.7035  0.1932  0.4000
   94SAPS  H13R 9272   5.194   4.924   7.204  0.7321 -0.5693 -0.3748
   94SAPS  H13S 9273   5.036   4.832   7.199  1.6583 -0.1670  2.0519
   94SAPS  C214 9274   5.027   5.009   7.309 -0.0338 -0.0472 -0.0382
   94SAPS  H14R 9275   5.066   5.112   7.306 -0.5724  0.1374 -0.9838
   94SAPS  C215 9276   4.957   4.961   7.417  0.2080  0.0936  0.3999
   94SAPS  H15R 9277   4.906   5.035   7.481  0.7461 -0.4443  1.4594
   94SAPS  C216 9278   4.913   4.817   7.436  0.2701 -0.2647 -0.4616
   94SAPS  H16R 9279   4.958   4.779   7.530  0.7895  3.7228  0.9747
   94SAPS  H16S 9280   4.967   4.752   7.363  0.8391 -0.0273 -0.2589
   94SAPS  C217 9281   4.761   4.788   7.431  0.4890 -0.3853  0.0810
   94SAPS  H17R 9282   4.742   4.678   7.429  2.2407 -0.6929 -1.0975
   94SAPS  H17S 9283   4.726   4.843   7.341  1.5055  0.9074  0.4628
   94SAPS  C218 9284   4.691   4.836   7.562  0.0872 -0.4839 -0.3597
   94SAPS  H18R 9285   4.658   4.942   7.570 -0.0696 -0.6263  1.0809
   94SAPS  H18S 9286   4.761   4.818   7.646  0.3933  0.3446 -0.4358
   94SAPS  C219 9287   4.575   4.741   7.596 -0.1186 -0.2250  0.7029
   94SAPS  H19R 9288   4.616   4.639   7.613 -1.4966 -0.4836  2.6318
   94SAPS  H19S 9289   4.517   4.733   7.502 -0.8093 -2.3607  1.2788
   94SAPS  C220 9290   4.485   4.793   7.711 -0.4160 -0.2049  0.1600
   94SAPS  H20R 9291   4.402   4.721   7.727 -0.2848 -0.2996  0.4313
   94SAPS  H20S 9292   4.442   4.891   7.681 -0.5513 -0.4938 -0.5967
   94SAPS  H20T 9293   4.544   4.797   7.805 -0.7005  1.0175  0.2885
   94SAPS   C33 9294   4.560   4.972   6.950  1.2422  0.0751  0.3536
   94SAPS   H3X 9295   4.470   4.976   7.015  0.6509 -1.0112 -0.3915
   94SAPS   H3Y 9296   4.645   5.020   7.003  0.7088 -1.6114  2.8598
   94SAPS   C34 9297   4.574   4.816   6.920  0.3909 -0.3078 -0.2389
   94SAPS   H4X 9298   4.650   4.798   6.842  1.8601  0.1757  1.0514
   94SAPS   H4Y 9299   4.480   4.766   6.888 -1.1284  2.4825 -0.2262
   94SAPS   C35 9300   4.634   4.749   7.043 -0.5797 -0.2140 -0.3744
   94SAPS   H5X 9301   4.584   4.773   7.139  1.2197  0.8590  0.3332
   94SAPS   H5Y 9302   4.733   4.799   7.051  0.1276 -1.8751  1.6037
   94SAPS   C36 9303   4.651   4.599   7.026  0.1079 -0.3532  0.4373
   94SAPS   H6X 9304   4.720   4.593   6.938  0.8047  1.1415  0.8573
   94SAPS   H6Y 9305   4.555   4.546   7.013 -1.2872  1.8133  1.5343
   94SAPS   C37 9306   4.730   4.540   7.137 -0.9150  0.3558 -0.1127
   94SAPS   H7X 9307   4.671   4.489   7.217 -0.2034 -0.2161  0.0522
   94SAPS   H7Y 9308   4.777   4.623   7.192 -0.8293 -1.1135  2.1023
   94SAPS   C38 9309   4.828   4.429   7.077 -0.6067  0.5862 -0.1749
   94SAPS   H8X 9310   4.905   4.487   7.021 -0.9334  0.4594 -0.7543
   94SAPS   H8Y 9311   4.780   4.361   7.004  3.0142 -1.8322 -0.4384
   94SAPS   C39 9312   4.890   4.341   7.188  0.3590 -0.7086  0.5244
   94SAPS   H9X 9313   4.943   4.255   7.143  1.5282 -0.1381  0.7867
   94SAPS   H9Y 9314   4.815   4.292   7.253 -1.0836 -0.4703 -0.9365
   94SAPS  C310 9315   4.990   4.422   7.276 -0.5971  0.0828 -0.2277
   94SAPS  H10X 9316   4.940   4.514   7.314  1.7676 -0.4083  4.3910
   94SAPS  H10Y 9317   5.077   4.455   7.215 -0.0271 -2.5725 -0.9390
   94SAPS  C311 9318   5.015   4.340   7.396  0.0514 -0.6411 -0.1320
   94SAPS  H11X 9319   5.091   4.264   7.367  0.1604 -0.0890 -1.3404
   94SAPS  H11Y 9320   4.923   4.286   7.425 -0.6949  1.1378  0.8993
   94SAPS  C312 9321   5.054   4.412   7.527  0.0617  0.2082  0.1611
   94SAPS  H12X 9322   4.978   4.489   7.548  0.2513  0.5179 -0.2815
   94SAPS  H12Y 9323   5.154   4.459   7.517 -0.4628  1.5373  1.0547
   94SAPS  C313 9324   5.053   4.316   7.649  0.0698 -0.1883  0.0934
   94SAPS  H13X 9325   5.113   4.226   7.629 -2.0152 -1.8002  0.8773
   94SAPS  H13Y 9326   4.949   4.278   7.655  0.1943 -0.5073  0.1974
   94SAPS  C314 9327   5.090   4.394   7.776 -0.3271 -0.4121 -0.5942
   94SAPS  H14X 9328   5.037   4.491   7.784  1.3311  0.5293 -0.8293
   94SAPS  H14Y 9329   5.200   4.414   7.773 -0.6683  1.4323 -1.8922
   94SAPS  C315 9330   5.045   4.314   7.899  0.2723 -0.0379  1.1085
   94SAPS  H15X 9331   4.935   4.309   7.896  0.2657 -1.5873  2.7344
   94SAPS  H15Y 9332   5.067   4.354   8.001  1.6263 -1.0435  1.2228
   94SAPS  C316 9333   5.089   4.169   7.912 -0.8446  0.4852 -0.6384
   94SAPS  H16X 9334   5.048   4.099   7.836  0.5681 -0.2351 -0.7503
   94SAPS  H16Y 9335   5.053   4.127   8.008  0.6404  0.2993 -0.1561
   94SAPS  C317 9336   5.245   4.161   7.896  0.1044  0.7846  0.1047
   94SAPS  H17X 9337   5.301   4.215   7.976  1.1177  1.0109 -0.7461
   94SAPS  H17Y 9338   5.280   4.202   7.799  0.3222  2.2735  0.8033
   94SAPS  C318 9339   5.303   4.022   7.920  0.2508 -0.5355 -0.1535
   94SAPS  H18X 9340   5.268   3.979   8.016 -1.1233  1.4869  0.2821
   94SAPS  H18Y 9341   5.412   4.043   7.935 -0.6745  2.7826  2.6383
   94SAPS  H18Z 9342   5.283   3.946   7.842  1.3944 -1.8538  0.8117
   95SAPS     N 9343   1.159   3.408   5.935  0.0011  0.2952 -0.0568
   95SAPS   HN1 9344   1.228   3.455   5.873 -2.8745  1.1559 -2.7464
   95SAPS   HN2 9345   1.184   3.318   5.980 -1.5328 -1.2234 -2.1270
   95SAPS   HN3 9346   1.082   3.379   5.871 -0.0533  0.9646 -0.3013
   95SAPS   C12 9347   1.109   3.518   6.028  0.2663 -0.3867  0.2431
   95SAPS  H12A 9348   1.191   3.576   6.067 -1.6684  2.8502 -0.3338
   95SAPS   C13 9349   1.011   3.613   5.953  0.2329  0.3673 -0.8034
   95SAPS  O13A 9350   0.952   3.578   5.849 -1.2213  0.9940  0.0838
   95SAPS  O13B 9351   0.978   3.715   6.015  0.3615 -0.6820  0.0297
   95SAPS   C11 9352   1.033   3.459   6.157 -0.1433  0.0627 -0.2480
   95SAPS  H11A 9353   0.947   3.390   6.142 -0.5429  0.4803  0.1154
   95SAPS  H11B 9354   0.984   3.542   6.213 -2.9235 -0.7161 -1.4051
   95SAPS     P 9355   1.155   3.228   6.222  0.7253  0.1844 -0.2115
   95SAPS   O13 9356   1.029   3.158   6.258 -0.0752 -0.1754 -0.4208
   95SAPS   O14 9357   1.217   3.196   6.091 -0.1268 -0.3403  0.0347
   95SAPS   O12 9358   1.125   3.378   6.230  0.3265  0.2461 -0.2795
   95SAPS   O11 9359   1.252   3.217   6.336 -0.2287 -0.1456 -0.2853
   95SAPS    C1 9360   1.212   3.182   6.470  0.7308 -0.4003 -0.2126
   95SAPS    HA 9361   1.105   3.201   6.494  1.2723  1.3494  0.9647
   95SAPS    HB 9362   1.226   3.072   6.478  2.4563 -0.2574 -1.1058
   95SAPS    C2 9363   1.306   3.255   6.568  0.2627 -0.0460  0.2427
   95SAPS    HS 9364   1.266   3.250   6.672 -1.5466  0.6121 -0.4187
   95SAPS   O21 9365   1.298   3.394   6.538  0.4318 -0.1057  0.5645
   95SAPS   C21 9366   1.178   3.455   6.555  0.2590 -0.1813 -1.1224
   95SAPS   O22 9367   1.077   3.403   6.593 -0.0259 -0.3346 -0.2454
   95SAPS   C22 9368   1.206   3.608   6.528 -0.2444 -0.3434 -0.1784
   95SAPS   H2R 9369   1.302   3.616   6.473  0.8571  2.0514  1.9952
   95SAPS   H2S 9370   1.136   3.641   6.448  0.0200 -0.9072 -0.6489
   95SAPS    C3 9371   1.454   3.200   6.552  0.0037  0.7622 -0.6334
   95SAPS    HX 9372   1.478   3.200   6.443 -2.8546 -1.2437 -1.3043
   95SAPS    HY 9373   1.463   3.093   6.578  0.7975  1.1341  0.6864
   95SAPS   O31 9374   1.557   3.291   6.613  0.1056 -0.4416  0.1682
   95SAPS   C31 9375   1.565   3.272   6.743 -0.8216  0.4457  0.3908
   95SAPS   O32 9376   1.506   3.189   6.812  0.3479 -0.0024 -0.3570
   95SAPS   C32 9377   1.655   3.381   6.790  0.1113  0.1974 -0.0174
   95SAPS   H2X 9378   1.592   3.472   6.776  0.9486  0.8067  0.1080
   95SAPS   H2Y 9379   1.749   3.384   6.730 -0.1622  2.7858 -0.3844
   95SAPS   C23 9380   1.212   3.703   6.646 -0.5271 -0.0714 -0.0802
   95SAPS   H3R 9381   1.122   3.696   6.711 -1.6035  0.2415 -1.5183
   95SAPS   H3S 9382   1.202   3.808   6.610  0.0132  0.2095  0.5701
   95SAPS   C24 9383   1.342   3.675   6.729 -0.3608 -0.2220 -0.0366
   95SAPS   H4R 9384   1.421   3.668   6.652 -1.8972  2.1977 -1.9029
   95SAPS   H4S 9385   1.325   3.584   6.790 -1.2429 -0.8741 -1.2404
   95SAPS   C25 9386   1.376   3.789   6.817 -1.1212 -0.0777  0.0645
   95SAPS   H5R 9387   1.385   3.884   6.762 -1.2083  0.4014  0.8703
   95SAPS   C26 9388   1.394   3.784   6.950  0.1408 -0.4673 -0.4260
   95SAPS   H6R 9389   1.447   3.871   6.993  1.7827 -2.1099  0.9582
   95SAPS   C27 9390   1.390   3.677   7.053 -0.3181  0.8085 -0.7109
   95SAPS   H7R 9391   1.419   3.718   7.152  0.3044 -1.4894  0.0841
   95SAPS   H7S 9392   1.469   3.603   7.027 -1.2851 -0.8257  0.8853
   95SAPS   C28 9393   1.250   3.615   7.046 -0.3302 -0.6805 -0.6506
   95SAPS   H8R 9394   1.172   3.680   7.003 -0.0405  0.9862  1.2732
   95SAPS   C29 9395   1.227   3.484   7.084  0.0187  0.1993  0.5920
   95SAPS   H9R 9396   1.132   3.441   7.050  0.3234 -0.7255  0.8942
   95SAPS  C210 9397   1.334   3.381   7.134 -0.6536  0.1227 -0.4013
   95SAPS  H10R 9398   1.414   3.364   7.058  1.9343  2.7041  1.6074
   95SAPS  H10S 9399   1.289   3.280   7.135  0.3051 -0.3013  2.1807
   95SAPS  C211 9400   1.413   3.412   7.261 -0.2749 -0.3544  1.0918
   95SAPS  H11R 9401   1.399   3.504   7.320  2.7961  0.2622  0.9798
   95SAPS  C212 9402   1.513   3.340   7.317 -0.0908 -0.8100 -0.0429
   95SAPS  H12R 9403   1.573   3.393   7.392 -0.4108  0.4600 -0.6827
   95SAPS  C213 9404   1.565   3.208   7.271  0.6604 -0.2843 -0.6978
   95SAPS  H13R 9405   1.588   3.206   7.162 -0.7740 -2.3389 -0.9905
   95SAPS  H13S 9406   1.482   3.135   7.279  3.4303 -3.4122  0.7358
   95SAPS  C214 9407   1.686   3.143   7.343 -0.5780 -0.0478  0.4435
   95SAPS  H14R 9408   1.732   3.198   7.427  0.6596 -0.3780 -0.0083
   95SAPS  C215 9409   1.740   3.028   7.298  0.5540 -0.1271  0.3018
   95SAPS  H15R 9410   1.822   2.985   7.357  0.5633  0.1800  0.5110
   95SAPS  C216 9411   1.696   2.944   7.183 -0.2720 -0.3595  0.6552
   95SAPS  H16R 9412   1.763   2.958   7.096 -0.0738 -0.9869  0.7051
   95SAPS  H16S 9413   1.590   2.960   7.155 -0.6937 -0.0198  2.3643
   95SAPS  C217 9414   1.697   2.797   7.223  0.0781 -0.2337 -0.5456
   95SAPS  H17R 9415   1.647   2.779   7.320 -1.5527  0.5751 -1.2010
   95SAPS  H17S 9416   1.801   2.760   7.228  0.8426  2.1686  3.5153
   95SAPS  C218 9417   1.613   2.714   7.121 -0.4414 -0.6481  0.5237
   95SAPS  H18R 9418   1.517   2.762   7.093  1.1271  1.2561 -1.8619
   95SAPS  H18S 9419   1.600   2.612   7.162  0.9002 -1.1119 -0.1600
   95SAPS  C219 9420   1.690   2.693   6.990 -0.5832 -0.6072 -0.4159
   95SAPS  H19R 9421   1.788   2.644   7.011  0.1947  1.3340  0.5843
   95SAPS  H19S 9422   1.711   2.792   6.943  1.7687  0.1053  2.0355
   95SAPS  C220 9423   1.629   2.595   6.898 -0.4704 -0.7457 -0.4887
   95SAPS  H20R 9424   1.631   2.489   6.933 -2.9576 -0.6995 -0.0982
   95SAPS  H20S 9425   1.671   2.585   6.796 -3.1423  0.6004 -1.7806
   95SAPS  H20T 9426   1.526   2.624   6.866  0.1757 -0.2743 -2.1969
   95SAPS   C33 9427   1.703   3.368   6.934  0.5627  0.1374 -0.8100
   95SAPS   H3X 9428   1.758   3.272   6.942 -1.4690 -0.8809  1.4438
   95SAPS   H3Y 9429   1.610   3.363   6.995  1.5181 -1.6730  0.5071
   95SAPS   C34 9430   1.780   3.491   6.986 -0.2650  0.2990  0.3387
   95SAPS   H4X 9431   1.711   3.578   6.987 -0.6538 -0.0097  0.1182
   95SAPS   H4Y 9432   1.860   3.519   6.914 -2.4817  2.0415 -1.4840
   95SAPS   C35 9433   1.834   3.482   7.130 -0.2224  0.0548 -0.3531
   95SAPS   H5X 9434   1.943   3.486   7.109 -0.4678  0.3360 -1.5840
   95SAPS   H5Y 9435   1.804   3.386   7.176 -1.0225 -0.4188 -1.8376
   95SAPS   C36 9436   1.786   3.593   7.213  0.4997 -0.5988 -1.0720
   95SAPS   H6X 9437   1.680   3.565   7.230  0.1399 -2.4429 -5.7486
   95SAPS   H6Y 9438   1.763   3.684   7.154  0.6345 -0.6248 -1.1662
   95SAPS   C37 9439   1.866   3.642   7.336 -0.0376  0.5931 -0.5134
   95SAPS   H7X 9440   1.812   3.727   7.381 -0.0874  1.7474 -2.6831
   95SAPS   H7Y 9441   1.969   3.669   7.304  1.6283 -2.5275  1.8744
   95SAPS   C38 9442   1.900   3.527   7.430  0.2038 -0.5348  0.2158
   95SAPS   H8X 9443   1.907   3.428   7.379  1.0567 -0.5312  0.3151
   95SAPS   H8Y 9444   1.807   3.518   7.490  0.8023 -0.5708  1.1527
   95SAPS   C39 9445   2.026   3.551   7.521 -0.0907 -0.1450  0.3106
   95SAPS   H9X 9446   2.008   3.654   7.560 -1.4536 -0.1027 -0.3756
   95SAPS   H9Y 9447   2.120   3.538   7.464 -1.1259 -3.0507 -0.8343
   95SAPS  C310 9448   2.021   3.454   7.647 -0.1094  0.3014  0.2057
   95SAPS  H10X 9449   1.923   3.470   7.697 -1.8459 -1.2511 -2.5875
   95SAPS  H10Y 9450   2.102   3.480   7.718  0.4857  3.2309 -1.4620
   95SAPS  C311 9451   2.030   3.301   7.616  0.2006 -0.7194  0.3100
   95SAPS  H11X 9452   2.129   3.277   7.572 -0.1883 -0.5748 -0.6508
   95SAPS  H11Y 9453   1.950   3.279   7.543  1.2207  2.7048 -1.9653
   95SAPS  C312 9454   1.991   3.214   7.732  0.1242  0.1256 -0.2038
   95SAPS  H12X 9455   1.880   3.219   7.738  0.0985  1.2594 -1.5045
   95SAPS  H12Y 9456   2.029   3.257   7.827 -0.8014  0.4997 -0.0026
   95SAPS  C313 9457   2.034   3.065   7.715  0.4334 -0.3818 -0.1630
   95SAPS  H13X 9458   2.000   3.010   7.806  0.9689 -1.3420 -0.5350
   95SAPS  H13Y 9459   2.145   3.059   7.711  0.4247 -1.9171  1.5274
   95SAPS  C314 9460   1.972   2.998   7.594 -0.6638  0.2642  0.1770
   95SAPS  H14X 9461   2.016   3.049   7.506  1.0235 -2.4467 -0.5966
   95SAPS  H14Y 9462   1.863   3.012   7.580 -0.5503 -0.1973 -1.2098
   95SAPS  C315 9463   2.015   2.847   7.575 -0.0254  0.7571 -0.3822
   95SAPS  H15X 9464   2.122   2.833   7.600  0.3233 -0.1484 -2.2754
   95SAPS  H15Y 9465   1.997   2.809   7.472 -3.1843  0.8352  0.0931
   95SAPS  C316 9466   1.937   2.741   7.653 -0.3895 -0.0976  0.1204
   95SAPS  H16X 9467   1.955   2.755   7.762  0.6406  2.3927 -0.3387
   95SAPS  H16Y 9468   1.982   2.644   7.622 -0.6746 -0.1998  0.0291
   95SAPS  C317 9469   1.787   2.746   7.608 -0.2866 -0.1609  0.2645
   95SAPS  H17X 9470   1.778   2.742   7.497  0.1915  2.1052  0.1184
   95SAPS  H17Y 9471   1.743   2.845   7.629  1.3488  0.5916  0.2758
   95SAPS  C318 9472   1.691   2.638   7.661 -0.3333  0.5396  0.1001
   95SAPS  H18X 9473   1.703   2.546   7.601 -1.4583  0.9822 -0.8205
   95SAPS  H18Y 9474   1.594   2.689   7.682  0.1602  1.8817 -0.8478
   95SAPS  H18Z 9475   1.740   2.609   7.757  2.3468 -1.8157 -1.9205
   96SAPS     N 9476   1.446   5.053   5.861  0.2809  0.5002 -0.0578
   96SAPS   HN1 9477   1.397   5.130   5.911  0.5727  0.5642  0.1347
   96SAPS   HN2 9478   1.534   5.039   5.915  1.1870 -0.0525 -1.6498
   96SAPS   HN3 9479   1.457   5.096   5.767 -2.0642 -2.1543 -1.5901
   96SAPS   C12 9480   1.339   4.950   5.856 -0.3136 -0.0582 -0.3574
   96SAPS  H12A 9481   1.263   4.970   5.929  0.9331 -0.7699  1.1633
   96SAPS   C13 9482   1.265   4.929   5.726 -0.1242 -0.2001  0.5077
   96SAPS  O13A 9483   1.277   5.012   5.634  0.1686  0.2381 -0.5331
   96SAPS  O13B 9484   1.165   4.851   5.729 -0.3855  0.4363  0.0444
   96SAPS   C11 9485   1.404   4.810   5.890  0.0216  0.2021 -0.3796
   96SAPS  H11A 9486   1.467   4.770   5.808 -2.3116 -2.1074 -1.1246
   96SAPS  H11B 9487   1.326   4.736   5.918 -1.0167  0.7625 -1.7351
   96SAPS     P 9488   1.446   4.832   6.151 -0.1876 -0.0506 -0.0971
   96SAPS   O13 9489   1.363   4.715   6.181  0.4427  0.0579 -0.7053
   96SAPS   O14 9490   1.566   4.843   6.237  0.1129  0.3307  0.0613
   96SAPS   O12 9491   1.493   4.820   6.005  0.8556 -0.4025 -0.5463
   96SAPS   O11 9492   1.368   4.968   6.164  0.5267  0.6392  0.0782
   96SAPS    C1 9493   1.348   5.018   6.301 -0.0656  0.4424  0.6467
   96SAPS    HA 9494   1.327   4.943   6.380  1.2219  0.5539  1.1086
   96SAPS    HB 9495   1.442   5.075   6.319  0.9275 -0.8548 -0.3203
   96SAPS    C2 9496   1.227   5.119   6.299 -0.4209  0.0064 -0.1599
   96SAPS    HS 9497   1.232   5.205   6.229  0.2094  0.4007  0.3580
   96SAPS   O21 9498   1.208   5.164   6.435 -0.1025  0.2150 -0.2820
   96SAPS   C21 9499   1.296   5.239   6.499  0.5984  0.8111  0.3465
   96SAPS   O22 9500   1.396   5.292   6.447  0.1661 -0.0657  0.0713
   96SAPS   C22 9501   1.243   5.270   6.637 -0.0491 -0.7137 -0.9154
   96SAPS   H2R 9502   1.200   5.372   6.635 -2.8938 -1.8044  1.1597
   96SAPS   H2S 9503   1.164   5.195   6.658 -1.9042  1.8511  1.7769
   96SAPS    C3 9504   1.103   5.037   6.246  0.2492  0.2599  0.5067
   96SAPS    HX 9505   1.109   5.015   6.138 -1.6984 -1.3097  0.7065
   96SAPS    HY 9506   1.015   5.104   6.256  2.2614  2.8938  1.1179
   96SAPS   O31 9507   1.069   4.920   6.334  0.1404  0.1038  0.3446
   96SAPS   C31 9508   1.079   4.799   6.273 -0.1710  1.4260 -0.1587
   96SAPS   O32 9509   1.071   4.781   6.156  0.0594 -0.2738  0.9916
   96SAPS   C32 9510   1.118   4.696   6.381 -0.2970  0.1111 -0.5957
   96SAPS   H2X 9511   1.228   4.701   6.399 -0.5965 -3.0726  2.5769
   96SAPS   H2Y 9512   1.099   4.598   6.334 -2.0402  1.9439 -3.8638
   96SAPS   C23 9513   1.341   5.277   6.755 -0.2417  0.0405 -0.4325
   96SAPS   H3R 9514   1.303   5.352   6.828  1.8000 -1.3726  2.1655
   96SAPS   H3S 9515   1.437   5.323   6.723  0.7427 -0.7776  1.2445
   96SAPS   C24 9516   1.374   5.133   6.817 -0.4241 -0.7396  0.2988
   96SAPS   H4R 9517   1.449   5.157   6.896 -0.8205 -2.9257  1.3766
   96SAPS   H4S 9518   1.425   5.073   6.739 -0.2924 -1.9190  1.2798
   96SAPS   C25 9519   1.262   5.059   6.886 -0.0143  0.2656 -0.4950
   96SAPS   H5R 9520   1.195   5.003   6.819  1.8772 -0.3952 -1.8473
   96SAPS   C26 9521   1.258   5.028   7.017  0.2075 -0.4986 -0.4026
   96SAPS   H6R 9522   1.170   4.968   7.042 -0.0304 -0.4138 -1.0286
   96SAPS   C27 9523   1.350   5.066   7.130 -0.4288  0.2427 -0.0383
   96SAPS   H7R 9524   1.453   5.089   7.095 -0.3161  0.4426  0.4229
   96SAPS   H7S 9525   1.357   4.975   7.193 -1.6649  0.5801  0.6114
   96SAPS   C28 9526   1.304   5.193   7.207 -0.0801 -0.1696 -0.4529
   96SAPS   H8R 9527   1.310   5.285   7.148  0.1630  0.7722  1.0381
   96SAPS   C29 9528   1.239   5.195   7.323 -0.6157  0.6561  0.6169
   96SAPS   H9R 9529   1.200   5.292   7.356 -1.3490  1.5254 -2.6121
   96SAPS  C210 9530   1.203   5.076   7.408 -0.1835  0.9644 -1.1135
   96SAPS  H10R 9531   1.281   4.998   7.390 -0.5948  0.2940 -0.0446
   96SAPS  H10S 9532   1.105   5.037   7.373  0.0927 -0.0274 -0.8075
   96SAPS  C211 9533   1.204   5.085   7.562 -0.3571 -0.7006 -0.4074
   96SAPS  H11R 9534   1.304   5.090   7.607 -2.0113 -1.9004  3.6784
   96SAPS  C212 9535   1.099   5.073   7.648  0.4176  0.3639 -0.1581
   96SAPS  H12R 9536   1.126   5.093   7.753  2.0247 -0.8589 -0.3312
   96SAPS  C213 9537   0.955   5.051   7.625  0.4977  0.3809 -0.7274
   96SAPS  H13R 9538   0.914   4.986   7.704 -0.8453  0.4202 -1.3707
   96SAPS  H13S 9539   0.935   5.006   7.525 -1.4508 -0.8973  0.2210
   96SAPS  C214 9540   0.876   5.181   7.636 -0.2577  0.3477  0.1399
   96SAPS  H14R 9541   0.933   5.271   7.610  0.9817 -0.5660 -0.3723
   96SAPS  C215 9542   0.742   5.191   7.627 -0.5730 -0.0292  0.6581
   96SAPS  H15R 9543   0.688   5.281   7.660 -1.7401  0.4632 -2.4004
   96SAPS  C216 9544   0.648   5.076   7.604  0.4302 -0.1747 -0.6242
   96SAPS  H16R 9545   0.708   4.986   7.578 -0.3567 -0.4838 -1.3954
   96SAPS  H16S 9546   0.582   5.086   7.515  0.2979 -1.9210 -0.7299
   96SAPS  C217 9547   0.544   5.043   7.717  0.1497 -0.1232 -0.2409
   96SAPS  H17R 9548   0.503   4.944   7.689 -1.3703  0.5003 -0.2846
   96SAPS  H17S 9549   0.454   5.108   7.705  0.2156 -0.5144 -3.0517
   96SAPS  C218 9550   0.601   5.042   7.860  0.3962 -0.1609 -0.5977
   96SAPS  H18R 9551   0.601   5.145   7.900  1.7163 -0.5519  0.4479
   96SAPS  H18S 9552   0.701   4.994   7.870  0.3050 -0.6224 -1.8056
   96SAPS  C219 9553   0.528   4.946   7.963 -0.1975  0.2487  0.2049
   96SAPS  H19R 9554   0.567   4.842   7.962  1.8766  0.9490  2.8269
   96SAPS  H19S 9555   0.421   4.949   7.932 -0.2294  0.0232  0.2924
   96SAPS  C220 9556   0.550   4.985   8.107 -0.2194 -0.0801 -0.4455
   96SAPS  H20R 9557   0.507   5.087   8.120  0.7787  0.4954 -1.5741
   96SAPS  H20S 9558   0.660   4.996   8.118 -0.0998  0.8138 -2.3449
   96SAPS  H20T 9559   0.511   4.909   8.178  1.2454 -0.5456 -0.1252
   96SAPS   C33 9560   1.050   4.706   6.524 -0.2660  0.3996  0.5047
   96SAPS   H3X 9561   0.947   4.665   6.529 -0.1648  0.3163  2.2230
   96SAPS   H3Y 9562   1.058   4.814   6.548  2.4800  0.2061  0.6636
   96SAPS   C34 9563   1.141   4.635   6.634 -0.3652  0.2205 -0.1842
   96SAPS   H4X 9564   1.147   4.524   6.628 -1.3984  0.0513  1.5616
   96SAPS   H4Y 9565   1.071   4.652   6.719  0.2956 -1.8875  0.8377
   96SAPS   C35 9566   1.280   4.698   6.658 -0.5347 -0.2841  0.4209
   96SAPS   H5X 9567   1.255   4.801   6.692 -1.9685  0.7515 -3.4964
   96SAPS   H5Y 9568   1.339   4.709   6.565 -0.7651 -1.8134  0.0723
   96SAPS   C36 9569   1.367   4.639   6.765  0.2670 -0.3974 -0.0629
   96SAPS   H6X 9570   1.420   4.555   6.715  0.8925 -1.1243  1.8175
   96SAPS   H6Y 9571   1.313   4.600   6.853  0.6383  1.0633  0.8145
   96SAPS   C37 9572   1.480   4.736   6.809 -0.2167 -0.0476 -0.1030
   96SAPS   H7X 9573   1.428   4.832   6.829  0.2420  0.2386 -0.2784
   96SAPS   H7Y 9574   1.552   4.756   6.727 -0.5054 -0.3908 -0.4475
   96SAPS   C38 9575   1.554   4.692   6.937  0.5950 -0.0215  0.0999
   96SAPS   H8X 9576   1.625   4.608   6.921 -0.9550 -1.3082 -0.1705
   96SAPS   H8Y 9577   1.481   4.664   7.016  1.9067  1.0806  1.7415
   96SAPS   C39 9578   1.639   4.805   6.994  1.0296 -0.5567  0.2850
   96SAPS   H9X 9579   1.577   4.897   7.002 -0.1436 -1.3097 -0.0209
   96SAPS   H9Y 9580   1.725   4.820   6.926  0.9819 -1.4604  0.0264
   96SAPS  C310 9581   1.685   4.781   7.136  0.4343  0.3020  0.1042
   96SAPS  H10X 9582   1.737   4.683   7.144 -0.5650 -0.4348 -2.1255
   96SAPS  H10Y 9583   1.601   4.767   7.207 -0.3704  1.8984 -0.5205
   96SAPS  C311 9584   1.792   4.877   7.182  0.1436 -0.5734  0.0855
   96SAPS  H11X 9585   1.742   4.976   7.191 -1.5426 -1.5792  2.1355
   96SAPS  H11Y 9586   1.863   4.886   7.097  0.2153  0.8644  0.2813
   96SAPS  C312 9587   1.858   4.839   7.314  0.2742 -0.7287 -0.1038
   96SAPS  H12X 9588   1.965   4.868   7.321  0.0775  0.1091 -0.5980
   96SAPS  H12Y 9589   1.858   4.728   7.329  2.2412 -0.5686  1.2853
   96SAPS  C313 9590   1.787   4.897   7.438  0.1555  0.0895 -0.0107
   96SAPS  H13X 9591   1.688   4.847   7.446 -0.6098  1.3852 -1.0375
   96SAPS  H13Y 9592   1.781   5.008   7.425 -0.8439 -0.1957 -2.2714
   96SAPS  C314 9593   1.873   4.862   7.554  0.3069 -0.4817 -0.4127
   96SAPS  H14X 9594   1.976   4.896   7.530  0.3493  0.3025  0.8258
   96SAPS  H14Y 9595   1.875   4.752   7.574 -1.1756 -0.1984  1.3661
   96SAPS  C315 9596   1.826   4.926   7.683 -0.0059  0.0654  0.3137
   96SAPS  H15X 9597   1.719   4.901   7.699  0.7066 -2.2410  1.6745
   96SAPS  H15Y 9598   1.831   5.036   7.666 -1.5618  0.2094  0.6949
   96SAPS  C316 9599   1.902   4.888   7.807  0.6837 -0.5091  0.1753
   96SAPS  H16X 9600   2.009   4.873   7.780  0.0506 -0.4040 -2.4528
   96SAPS  H16Y 9601   1.859   4.790   7.837 -0.2088  0.0644  0.8104
   96SAPS  C317 9602   1.883   4.985   7.927 -0.6988 -0.3281  0.4194
   96SAPS  H17X 9603   1.780   4.967   7.963 -0.6529  1.4742  1.5381
   96SAPS  H17Y 9604   1.904   5.089   7.893 -0.9909  0.3881  2.3252
   96SAPS  C318 9605   1.979   4.956   8.041 -0.4217  0.8741  0.1826
   96SAPS  H18X 9606   1.999   5.035   8.116  1.8650  2.0068 -1.5622
   96SAPS  H18Y 9607   2.075   4.947   7.986 -0.2255 -1.4549  0.8573
   96SAPS  H18Z 9608   1.970   4.855   8.087  1.2198  1.1933  1.2308
   97SAPS     N 9609   1.782   1.522   5.749  1.1846 -0.1275  0.3957
   97SAPS   HN1 9610   1.691   1.560   5.716  1.1625 -0.9487 -0.5122
   97SAPS   HN2 9611   1.853   1.566   5.687 -0.9614  2.7965 -0.0843
   97SAPS   HN3 9612   1.790   1.419   5.736  1.5662  0.2492 -2.5512
   97SAPS   C12 9613   1.806   1.570   5.888 -0.0779  0.3411  0.2217
   97SAPS  H12A 9614   1.830   1.675   5.881  2.4452 -0.2793 -0.6339
   97SAPS   C13 9615   1.680   1.552   5.976  0.2744 -0.6400 -0.9658
   97SAPS  O13A 9616   1.576   1.496   5.938  0.2451  0.1994  0.0040
   97SAPS  O13B 9617   1.687   1.607   6.089 -0.1865  0.3978 -0.5602
   97SAPS   C11 9618   1.918   1.490   5.950 -0.0219 -0.1854 -0.9801
   97SAPS  H11A 9619   1.893   1.385   5.978  1.7298 -0.5221 -0.5937
   97SAPS  H11B 9620   1.936   1.537   6.049  0.5729 -0.2319 -1.0669
   97SAPS     P 9621   2.103   1.365   5.816  0.2147 -0.1296 -0.3228
   97SAPS   O13 9622   2.025   1.300   5.710 -0.0084  0.0776  0.2027
   97SAPS   O14 9623   2.244   1.383   5.778 -0.2446 -0.0016 -0.0970
   97SAPS   O12 9624   2.034   1.497   5.869 -0.0547 -0.4439  0.4229
   97SAPS   O11 9625   2.104   1.281   5.949 -0.0073 -0.1055  0.1626
   97SAPS    C1 9626   2.201   1.328   6.046  0.9470  0.1128  0.6066
   97SAPS    HA 9627   2.297   1.298   6.000  0.1343 -0.3577 -0.8061
   97SAPS    HB 9628   2.199   1.438   6.059  0.2772  0.0865  0.7643
   97SAPS    C2 9629   2.184   1.261   6.183 -0.0075 -0.0835  0.5384
   97SAPS    HS 9630   2.186   1.150   6.179  1.8282 -0.0786  0.5255
   97SAPS   O21 9631   2.073   1.313   6.249  0.0701  0.1039  0.1889
   97SAPS   C21 9632   1.949   1.238   6.240  0.4389  1.0803  0.0262
   97SAPS   O22 9633   1.941   1.121   6.205 -0.0796  0.6938 -0.6020
   97SAPS   C22 9634   1.835   1.322   6.283 -0.0050 -0.3089 -0.2797
   97SAPS   H2R 9635   1.874   1.417   6.326  0.0300 -0.6611  0.4667
   97SAPS   H2S 9636   1.766   1.331   6.196  0.4713  0.2960 -0.6054
   97SAPS    C3 9637   2.309   1.282   6.273  0.1196 -0.3037  0.0822
   97SAPS    HX 9638   2.402   1.247   6.223  1.8314  2.3452  1.3123
   97SAPS    HY 9639   2.299   1.219   6.364 -1.5964  1.0819  0.8840
   97SAPS   O31 9640   2.319   1.427   6.299  0.5924  0.4873  0.9891
   97SAPS   C31 9641   2.389   1.464   6.400  0.6671  0.4172 -0.4461
   97SAPS   O32 9642   2.466   1.394   6.469 -0.0343 -0.3894  0.5692
   97SAPS   C32 9643   2.345   1.600   6.450  0.4087 -0.0875 -0.0698
   97SAPS   H2X 9644   2.313   1.670   6.370  0.1806 -1.6482 -1.3665
   97SAPS   H2Y 9645   2.429   1.655   6.498 -0.5872  0.1946  1.4046
   97SAPS   C23 9646   1.757   1.269   6.401  0.7203  0.6553 -0.1066
   97SAPS   H3R 9647   1.771   1.160   6.391  4.1078  0.9881  0.4592
   97SAPS   H3S 9648   1.652   1.299   6.380  0.9959  0.5819 -1.6676
   97SAPS   C24 9649   1.797   1.317   6.545 -0.4854  0.5125 -0.4578
   97SAPS   H4R 9650   1.721   1.294   6.622  0.4015  0.4251  0.3899
   97SAPS   H4S 9651   1.799   1.428   6.539 -0.9942  0.4654 -1.7496
   97SAPS   C25 9652   1.925   1.270   6.606  0.5598 -0.1755  0.4106
   97SAPS   H5R 9653   2.015   1.334   6.600  1.9402 -2.2093 -1.2032
   97SAPS   C26 9654   1.953   1.144   6.653 -0.6029  0.0627  0.6748
   97SAPS   H6R 9655   2.061   1.134   6.672 -1.1126 -2.1658  2.6224
   97SAPS   C27 9656   1.867   1.018   6.664  0.2469  0.1589 -0.3733
   97SAPS   H7R 9657   1.782   1.032   6.594 -1.0419  0.1941  1.1505
   97SAPS   H7S 9658   1.819   1.004   6.764 -2.1308 -1.2254 -1.6602
   97SAPS   C28 9659   1.943   0.896   6.621 -0.3131  0.0766 -0.8626
   97SAPS   H8R 9660   1.988   0.897   6.521  0.4640 -0.8610 -0.5325
   97SAPS   C29 9661   1.954   0.771   6.674  0.8928  0.1547  0.5637
   97SAPS   H9R 9662   2.018   0.695   6.628 -0.9071 -1.2018  0.2339
   97SAPS  C210 9663   1.878   0.728   6.798  0.5905 -0.0324 -0.4170
   97SAPS  H10R 9664   1.795   0.656   6.785  2.0461 -1.5150 -1.8482
   97SAPS  H10S 9665   1.824   0.813   6.845  0.0166 -0.1399 -0.8923
   97SAPS  C211 9666   1.978   0.670   6.901 -0.3230 -0.2242 -0.6753
   97SAPS  H11R 9667   2.084   0.686   6.875 -1.4589 -0.3953 -5.9528
   97SAPS  C212 9668   1.952   0.610   7.019  0.1820 -0.5231  0.2852
   97SAPS  H12R 9669   2.033   0.559   7.073  0.2901 -0.9920 -0.3159
   97SAPS  C213 9670   1.811   0.589   7.076  0.0927  0.0015 -0.2737
   97SAPS  H13R 9671   1.818   0.530   7.170  0.7149  0.2646 -0.1540
   97SAPS  H13S 9672   1.743   0.536   7.005  0.4075  0.6099 -1.0333
   97SAPS  C214 9673   1.732   0.716   7.104  0.3350 -0.1635 -0.3423
   97SAPS  H14R 9674   1.737   0.784   7.018  2.3974  1.0161  0.6797
   97SAPS  C215 9675   1.664   0.751   7.214  0.6405  0.0579  0.2602
   97SAPS  H15R 9676   1.608   0.846   7.212  1.3104  0.4838  1.4010
   97SAPS  C216 9677   1.637   0.670   7.335 -0.3851  0.2746 -0.3139
   97SAPS  H16R 9678   1.713   0.590   7.346 -1.6752 -0.9145  0.0645
   97SAPS  H16S 9679   1.543   0.620   7.303 -0.6913  0.3357  0.4776
   97SAPS  C217 9680   1.614   0.731   7.474  0.0317  0.0106 -0.3299
   97SAPS  H17R 9681   1.534   0.671   7.523  0.6776 -1.1059 -0.6389
   97SAPS  H17S 9682   1.583   0.837   7.458 -1.6928 -0.5255 -0.6049
   97SAPS  C218 9683   1.746   0.729   7.561  0.0712 -0.1332 -0.1105
   97SAPS  H18R 9684   1.777   0.624   7.546  1.1072  0.1521 -0.0047
   97SAPS  H18S 9685   1.736   0.727   7.671 -3.9974  6.2293 -0.1010
   97SAPS  C219 9686   1.847   0.833   7.522 -0.4175  0.1619 -0.0663
   97SAPS  H19R 9687   1.856   0.850   7.413 -1.6957 -0.4351 -0.2751
   97SAPS  H19S 9688   1.952   0.809   7.549  0.5964  0.7934 -3.2579
   97SAPS  C220 9689   1.839   0.971   7.582  0.2909 -0.1159  0.3661
   97SAPS  H20R 9690   1.736   1.010   7.569  0.8952  1.5322  0.3646
   97SAPS  H20S 9691   1.920   1.034   7.538  1.1981 -0.1770  1.9171
   97SAPS  H20T 9692   1.851   0.968   7.692 -1.4308  1.2626  0.6152
   97SAPS   C33 9693   2.223   1.580   6.553  0.2439 -0.1125 -0.3889
   97SAPS   H3X 9694   2.136   1.535   6.501 -1.8611 -1.5308  4.1002
   97SAPS   H3Y 9695   2.208   1.682   6.596 -0.0168  0.1165 -1.0169
   97SAPS   C34 9696   2.242   1.493   6.681 -0.6353  0.2905  0.0325
   97SAPS   H4X 9697   2.340   1.510   6.731 -1.4423 -1.9366  2.5404
   97SAPS   H4Y 9698   2.243   1.389   6.641 -1.1571  0.8302 -1.4053
   97SAPS   C35 9699   2.138   1.518   6.794 -0.4975  0.1692 -1.0439
   97SAPS   H5X 9700   2.030   1.522   6.769 -0.8274  0.4581  0.3931
   97SAPS   H5Y 9701   2.160   1.620   6.831 -2.3863  0.3623 -0.4089
   97SAPS   C36 9702   2.155   1.437   6.921 -0.2064 -0.2435  0.2529
   97SAPS   H6X 9703   2.260   1.431   6.955  0.0444 -1.8605 -0.7090
   97SAPS   H6Y 9704   2.131   1.331   6.894 -5.8311  0.7182  0.7302
   97SAPS   C37 9705   2.073   1.499   7.040 -0.3865  0.3692 -0.2850
   97SAPS   H7X 9706   1.966   1.496   7.010 -0.1088 -1.3919 -1.2332
   97SAPS   H7Y 9707   2.108   1.603   7.056  2.0142 -0.3304 -0.7728
   97SAPS   C38 9708   2.080   1.400   7.162  0.5451  0.1457  1.1448
   97SAPS   H8X 9709   2.181   1.378   7.204  0.0336 -2.2858  1.1227
   97SAPS   H8Y 9710   2.038   1.308   7.118  1.5629  0.9918 -1.7262
   97SAPS   C39 9711   1.987   1.439   7.277  0.0521 -0.2254  0.3568
   97SAPS   H9X 9712   1.884   1.455   7.240  0.5291  0.5082 -0.6631
   97SAPS   H9Y 9713   2.036   1.531   7.315  1.7364 -1.4584  1.2639
   97SAPS  C310 9714   1.985   1.336   7.395  0.2885 -1.0951  0.2218
   97SAPS  H10X 9715   2.018   1.238   7.354 -1.5974 -1.0030 -1.5872
   97SAPS  H10Y 9716   1.880   1.322   7.426  0.1401 -1.9020 -0.6192
   97SAPS  C311 9717   2.066   1.375   7.515  0.2963  0.5649  0.2879
   97SAPS  H11X 9718   2.030   1.472   7.555  1.1951  1.1206 -0.2404
   97SAPS  H11Y 9719   2.168   1.397   7.477  0.2019  0.4412 -0.0427
   97SAPS  C312 9720   2.070   1.276   7.627 -0.4305 -0.0231  0.1669
   97SAPS  H12X 9721   2.110   1.181   7.586  1.2912  0.9151 -0.3824
   97SAPS  H12Y 9722   1.966   1.256   7.661 -1.0989  0.5646 -1.4826
   97SAPS  C313 9723   2.167   1.316   7.742  0.5827 -0.2069 -0.2224
   97SAPS  H13X 9724   2.137   1.411   7.790  2.7161 -0.0962  0.9302
   97SAPS  H13Y 9725   2.273   1.327   7.711  0.8172  1.4108  1.1299
   97SAPS  C314 9726   2.160   1.202   7.843 -0.3179  0.3243 -0.1071
   97SAPS  H14X 9727   2.174   1.105   7.791 -0.8963  1.4686 -2.4286
   97SAPS  H14Y 9728   2.057   1.196   7.885  0.5233 -1.1974  1.8527
   97SAPS  C315 9729   2.262   1.224   7.958 -0.7572 -0.7500 -0.2226
   97SAPS  H15X 9730   2.223   1.283   8.044  0.0294 -1.8929  0.9348
   97SAPS  H15Y 9731   2.349   1.280   7.918 -0.7541  0.5452  1.5008
   97SAPS  C316 9732   2.321   1.090   8.011  0.0307  0.5952  0.1700
   97SAPS  H16X 9733   2.403   1.115   8.082 -1.2591 -1.8337  2.6466
   97SAPS  H16Y 9734   2.359   1.026   7.929  2.8619  1.6804  0.5715
   97SAPS  C317 9735   2.232   1.004   8.097  0.9230 -0.4061 -0.3906
   97SAPS  H17X 9736   2.158   0.951   8.034  0.5982  0.1681 -0.4912
   97SAPS  H17Y 9737   2.175   1.076   8.159  0.2171  0.0695 -1.5675
   97SAPS  C318 9738   2.305   0.896   8.184 -0.2242  0.0633  0.0172
   97SAPS  H18X 9739   2.390   0.946   8.236 -1.1336  0.7929  0.8236
   97SAPS  H18Y 9740   2.350   0.820   8.118  0.1926  1.7983 -1.7490
   97SAPS  H18Z 9741   2.239   0.837   8.251  0.2489 -0.2883  0.1789
   98SAPS     N 9742   0.905   2.928   6.244  0.9263  0.2196 -0.2061
   98SAPS   HN1 9743   0.974   2.851   6.260 -1.8679 -2.9921 -2.8530
   98SAPS   HN2 9744   0.951   3.022   6.251  0.8001  0.5593 -3.1102
   98SAPS   HN3 9745   0.831   2.917   6.315  2.1363 -1.2558  0.8382
   98SAPS   C12 9746   0.824   2.918   6.117  1.0136  0.1034 -1.2743
   98SAPS  H12A 9747   0.754   3.001   6.118  1.2248  0.2819 -0.2258
   98SAPS   C13 9748   0.908   2.934   5.991  0.3047 -0.0160 -0.6042
   98SAPS  O13A 9749   1.028   2.967   5.992  0.2168  0.8513 -0.1071
   98SAPS  O13B 9750   0.842   2.955   5.890 -0.0708 -0.2448 -0.0136
   98SAPS   C11 9751   0.733   2.786   6.123 -0.9873 -0.3280 -0.6110
   98SAPS  H11A 9752   0.808   2.704   6.119  0.5095  0.9878 -0.0954
   98SAPS  H11B 9753   0.663   2.768   6.039  1.5592  0.7266 -3.0347
   98SAPS     P 9754   0.504   2.727   6.236  0.0501  0.4555  0.3235
   98SAPS   O13 9755   0.423   2.845   6.264  0.0289 -0.5481 -0.5873
   98SAPS   O14 9756   0.471   2.662   6.109 -0.0480  0.2847 -0.8139
   98SAPS   O12 9757   0.657   2.774   6.248  0.0549 -0.1039 -0.1429
   98SAPS   O11 9758   0.483   2.609   6.337 -0.3798 -0.0550 -0.1140
   98SAPS    C1 9759   0.587   2.512   6.362 -0.6067  0.2224 -0.3911
   98SAPS    HA 9760   0.561   2.410   6.327  1.6440 -0.3646 -0.4129
   98SAPS    HB 9761   0.687   2.536   6.321  0.9054 -2.9615  1.2846
   98SAPS    C2 9762   0.617   2.508   6.515  0.0355 -0.9717  0.0061
   98SAPS    HS 9763   0.692   2.431   6.543  2.1701  0.7176 -0.8802
   98SAPS   O21 9764   0.493   2.475   6.587  0.3823 -0.2166  0.2712
   98SAPS   C21 9765   0.433   2.359   6.571 -0.5151  0.0682 -0.0116
   98SAPS   O22 9766   0.480   2.260   6.519 -0.2577  0.1991 -0.0919
   98SAPS   C22 9767   0.298   2.359   6.641 -0.7681  0.4629 -0.8247
   98SAPS   H2R 9768   0.309   2.371   6.751 -2.6085  0.4018 -0.6072
   98SAPS   H2S 9769   0.234   2.442   6.605 -0.7211  0.9644  0.2252
   98SAPS    C3 9770   0.666   2.645   6.561  0.5466 -0.0749  0.0329
   98SAPS    HX 9771   0.574   2.707   6.561 -1.0381 -2.3084  1.1205
   98SAPS    HY 9772   0.737   2.681   6.484 -0.6522 -0.0235 -1.0678
   98SAPS   O31 9773   0.731   2.652   6.698 -1.5531 -0.0136  0.0779
   98SAPS   C31 9774   0.859   2.625   6.698 -0.1660 -0.0122 -0.1452
   98SAPS   O32 9775   0.917   2.567   6.609  0.8182 -0.0620  0.4080
   98SAPS   C32 9776   0.939   2.684   6.811  0.0508 -0.4789 -0.3800
   98SAPS   H2X 9777   1.004   2.757   6.758 -1.8193  1.3770 -0.1335
   98SAPS   H2Y 9778   1.002   2.603   6.855 -0.4888 -0.8802 -0.3381
   98SAPS   C23 9779   0.223   2.225   6.618  0.0110  0.0906  0.3305
   98SAPS   H3R 9780   0.278   2.138   6.659 -1.4418 -0.8373  0.3822
   98SAPS   H3S 9781   0.204   2.213   6.509  2.7336  0.0831 -0.1787
   98SAPS   C24 9782   0.091   2.214   6.697  0.2022 -0.2424 -0.5473
   98SAPS   H4R 9783   0.106   2.251   6.800 -0.7665  0.1929 -0.5552
   98SAPS   H4S 9784   0.061   2.107   6.703 -0.1560 -0.1256 -0.2323
   98SAPS   C25 9785  -0.026   2.284   6.631 -0.7671 -0.0014  0.5840
   98SAPS   H5R 9786  -0.041   2.258   6.525  0.8935  1.8158 -0.1354
   98SAPS   C26 9787  -0.103   2.387   6.670  0.2493 -0.2896  0.4909
   98SAPS   H6R 9788  -0.177   2.422   6.597  0.4912 -0.4785  0.1529
   98SAPS   C27 9789  -0.109   2.469   6.794 -0.9533  0.2778  0.6709
   98SAPS   H7R 9790  -0.023   2.455   6.864  0.6341  4.3260 -0.3109
   98SAPS   H7S 9791  -0.195   2.423   6.847 -0.4577 -2.1429 -0.5459
   98SAPS   C28 9792  -0.149   2.617   6.780  0.1787  0.1147  0.3872
   98SAPS   H8R 9793  -0.182   2.650   6.681 -1.2520 -0.4337  0.6741
   98SAPS   C29 9794  -0.163   2.699   6.884 -1.1136 -0.0902  0.0117
   98SAPS   H9R 9795  -0.202   2.799   6.858 -3.5857 -1.0834 -0.2452
   98SAPS  C210 9796  -0.127   2.664   7.031  0.3348  0.1594  0.0428
   98SAPS  H10R 9797  -0.026   2.618   7.040  0.4692  0.8410  2.0982
   98SAPS  H10S 9798  -0.181   2.568   7.048  1.8223 -1.5509 -4.1025
   98SAPS  C211 9799  -0.187   2.761   7.136  0.1569  0.1933 -0.4210
   98SAPS  H11R 9800  -0.282   2.808   7.104  0.8774  0.9761 -1.4304
   98SAPS  C212 9801  -0.127   2.809   7.248  0.3729 -0.4341  0.0983
   98SAPS  H12R 9802  -0.187   2.887   7.298  1.8723  0.5087  0.4697
   98SAPS  C213 9803   0.014   2.777   7.300  0.2660 -0.0112  0.6271
   98SAPS  H13R 9804   0.059   2.690   7.248 -0.9336  0.3976 -1.1429
   98SAPS  H13S 9805   0.008   2.757   7.409  0.1101  1.5509  0.9242
   98SAPS  C214 9806   0.108   2.896   7.284  0.0212  0.3460  0.5429
   98SAPS  H14R 9807   0.071   2.991   7.243  2.3616  1.8322  1.7053
   98SAPS  C215 9808   0.237   2.900   7.316  0.4576  0.3401 -0.3677
   98SAPS  H15R 9809   0.282   2.999   7.300  1.3427 -0.0306 -0.2263
   98SAPS  C216 9810   0.318   2.783   7.369  0.4334 -0.5148 -0.0322
   98SAPS  H16R 9811   0.369   2.732   7.285  1.2925  0.7693 -0.3039
   98SAPS  H16S 9812   0.263   2.711   7.433 -1.7840 -1.1712 -2.5940
   98SAPS  C217 9813   0.436   2.825   7.457 -0.3427  0.0111 -0.2472
   98SAPS  H17R 9814   0.481   2.730   7.492 -1.2550 -0.1970  0.4090
   98SAPS  H17S 9815   0.393   2.890   7.536 -0.4767 -1.3163  0.8077
   98SAPS  C218 9816   0.547   2.916   7.392 -0.0821  0.0473 -0.3429
   98SAPS  H18R 9817   0.578   2.987   7.472 -0.3451  1.7697 -1.7514
   98SAPS  H18S 9818   0.502   2.980   7.314  0.4887  1.0272  0.1082
   98SAPS  C219 9819   0.669   2.838   7.338 -0.0237 -0.0129  0.4478
   98SAPS  H19R 9820   0.706   2.784   7.428  2.9278  0.1009 -0.6587
   98SAPS  H19S 9821   0.750   2.912   7.320 -0.0942  0.6705  2.6790
   98SAPS  C220 9822   0.628   2.737   7.233 -0.6687 -0.3420  0.5454
   98SAPS  H20R 9823   0.596   2.781   7.136 -1.3011  1.3152  1.4839
   98SAPS  H20S 9824   0.554   2.656   7.251  0.5725 -1.5864  0.1175
   98SAPS  H20T 9825   0.722   2.686   7.205 -1.1256 -0.6919 -0.3793
   98SAPS   C33 9826   0.844   2.758   6.909 -0.4990  0.3432 -0.2929
   98SAPS   H3X 9827   0.893   2.756   7.009 -1.7895 -2.3535  0.3385
   98SAPS   H3Y 9828   0.751   2.700   6.928 -0.4164 -0.0711 -1.1216
   98SAPS   C34 9829   0.815   2.891   6.845  0.3281 -0.7227  0.2319
   98SAPS   H4X 9830   0.753   2.884   6.753  0.4969  2.0949 -0.1362
   98SAPS   H4Y 9831   0.909   2.946   6.827  0.0643  1.6056  5.1577
   98SAPS   C35 9832   0.744   2.980   6.944  0.3670  0.8609 -0.9959
   98SAPS   H5X 9833   0.801   2.977   7.039 -2.1026 -2.2778  0.4656
   98SAPS   H5Y 9834   0.649   2.931   6.975  2.0693 -0.2855  2.6472
   98SAPS   C36 9835   0.720   3.117   6.883  0.9830  0.6304  0.3685
   98SAPS   H6X 9836   0.640   3.105   6.807  1.0957  1.5941  0.0901
   98SAPS   H6Y 9837   0.811   3.146   6.826  0.4602  0.8393 -0.3640
   98SAPS   C37 9838   0.690   3.225   6.992 -0.0183  0.3787  0.2438
   98SAPS   H7X 9839   0.667   3.324   6.947 -0.4119  1.7091  3.2196
   98SAPS   H7Y 9840   0.786   3.236   7.046  0.2046  0.9468 -0.2639
   98SAPS   C38 9841   0.581   3.191   7.090 -0.4467  0.9277 -0.0667
   98SAPS   H8X 9842   0.596   3.098   7.148 -3.2448 -1.0814 -2.4763
   98SAPS   H8Y 9843   0.483   3.182   7.040 -0.3972  0.6833 -0.1198
   98SAPS   C39 9844   0.571   3.302   7.198  0.6130  0.9470  0.7688
   98SAPS   H9X 9845   0.544   3.397   7.147 -1.3977  0.4116  0.7877
   98SAPS   H9Y 9846   0.670   3.323   7.244  1.0488 -1.4569  1.0374
   98SAPS  C310 9847   0.454   3.273   7.301 -0.0522  0.2803 -0.1172
   98SAPS  H10X 9848   0.500   3.200   7.371  0.0116  0.2358 -0.2059
   98SAPS  H10Y 9849   0.369   3.222   7.250  0.7771 -1.6425  0.4047
   98SAPS  C311 9850   0.407   3.396   7.386  0.2645 -0.3242  0.1555
   98SAPS  H11X 9851   0.333   3.457   7.331  0.1734 -0.5495  0.0289
   98SAPS  H11Y 9852   0.498   3.457   7.405  1.1307 -1.0825 -1.4361
   98SAPS  C312 9853   0.349   3.355   7.524  0.4385  0.4422 -0.0488
   98SAPS  H12X 9854   0.418   3.293   7.583  1.2816  1.8997  0.5243
   98SAPS  H12Y 9855   0.272   3.278   7.506 -0.9404  1.2684  2.1161
   98SAPS  C313 9856   0.293   3.478   7.594  0.2904 -0.6153 -0.0756
   98SAPS  H13X 9857   0.232   3.446   7.681  0.5940 -1.2969 -0.1144
   98SAPS  H13Y 9858   0.231   3.532   7.519  1.0622 -0.3466 -0.5212
   98SAPS  C314 9859   0.416   3.562   7.638  1.0470 -0.5148  0.2540
   98SAPS  H14X 9860   0.478   3.602   7.555 -1.5804  0.2908 -1.3962
   98SAPS  H14Y 9861   0.490   3.492   7.682  0.3607 -1.0798  0.5263
   98SAPS  C315 9862   0.375   3.682   7.742 -0.0751  1.0371  0.3528
   98SAPS  H15X 9863   0.468   3.721   7.788  1.8490 -2.2878 -0.5936
   98SAPS  H15Y 9864   0.314   3.623   7.815  1.3273 -1.4340 -0.4135
   98SAPS  C316 9865   0.287   3.788   7.691  1.0073 -0.4502  0.2473
   98SAPS  H16X 9866   0.280   3.852   7.782  2.5082  0.1518 -0.0452
   98SAPS  H16Y 9867   0.183   3.753   7.674  0.5201  1.1741 -0.1353
   98SAPS  C317 9868   0.336   3.865   7.570 -0.1521  0.4864  0.3765
   98SAPS  H17X 9869   0.255   3.937   7.546 -1.6239  0.1766  4.0620
   98SAPS  H17Y 9870   0.340   3.808   7.475 -0.0972  1.3803 -0.1673
   98SAPS  C318 9871   0.460   3.939   7.589  0.6650  0.2904  0.1129
   98SAPS  H18X 9872   0.547   3.871   7.585  0.2706 -0.1961 -0.1789
   98SAPS  H18Y 9873   0.470   3.987   7.688  1.5363 -3.1150  1.7250
   98SAPS  H18Z 9874   0.469   4.024   7.517 -0.3269  0.9209  0.7238
   99SAPS     N 9875   5.893   7.149   5.964 -1.1856  0.0527 -0.3365
   99SAPS   HN1 9876   5.941   7.057   5.968 -1.8264 -0.2349  0.8873
   99SAPS   HN2 9877   5.831   7.158   6.047  1.1676  1.8292  1.2858
   99SAPS   HN3 9878   5.824   7.154   5.885 -1.3829  1.0008 -0.1071
   99SAPS   C12 9879   5.982   7.267   5.956 -0.0698  0.4805  0.5284
   99SAPS  H12A 9880   6.071   7.238   5.902  2.2022  3.7580  2.3349
   99SAPS   C13 9881   5.920   7.395   5.901 -0.1351  0.7391  0.1956
   99SAPS  O13A 9882   5.803   7.383   5.854 -0.5323  0.2829  0.2074
   99SAPS  O13B 9883   5.984   7.504   5.901 -0.4763  0.3794  0.5810
   99SAPS   C11 9884   6.029   7.290   6.103  0.2833 -0.1958 -0.5836
   99SAPS  H11A 9885   5.947   7.324   6.170  2.8487  0.6019  2.2594
   99SAPS  H11B 9886   6.100   7.375   6.111 -0.6246  0.7135 -1.9037
   99SAPS     P 9887   6.220   7.113   6.168 -0.3642  0.3231 -0.4812
   99SAPS   O13 9888   6.192   6.973   6.214  0.0433  0.0536  0.3043
   99SAPS   O14 9889   6.296   7.128   6.040  0.2589  0.6262  0.6895
   99SAPS   O12 9890   6.079   7.179   6.166  0.2448  0.7475  0.0921
   99SAPS   O11 9891   6.309   7.175   6.285 -0.5720  0.3175  0.3944
   99SAPS    C1 9892   6.257   7.214   6.410  0.1491 -0.0666 -0.4185
   99SAPS    HA 9893   6.201   7.309   6.402 -1.5082 -1.0903 -1.4021
   99SAPS    HB 9894   6.196   7.133   6.457  1.0929  0.8134  2.4695
   99SAPS    C2 9895   6.377   7.253   6.505  0.2362 -0.7754  0.5825
   99SAPS    HS 9896   6.456   7.286   6.435 -1.4698 -1.6005 -1.7963
   99SAPS   O21 9897   6.420   7.141   6.583  0.2454  0.0367 -0.4804
   99SAPS   C21 9898   6.541   7.154   6.640  0.5275  0.2433  0.2112
   99SAPS   O22 9899   6.613   7.246   6.630  0.0516 -1.0995 -0.1892
   99SAPS   C22 9900   6.578   7.048   6.744 -0.5437  0.1424  0.7316
   99SAPS   H2R 9901   6.687   7.065   6.755 -0.5212  1.6069 -1.2876
   99SAPS   H2S 9902   6.520   7.062   6.838  1.8334  2.2949  1.9456
   99SAPS    C3 9903   6.340   7.373   6.593 -0.6336  0.7195  0.1957
   99SAPS    HX 9904   6.293   7.449   6.527 -0.1287 -0.1448 -1.1807
   99SAPS    HY 9905   6.433   7.416   6.636 -0.7783 -2.0602  3.5727
   99SAPS   O31 9906   6.238   7.339   6.697 -0.9653 -0.2514  0.3397
   99SAPS   C31 9907   6.285   7.312   6.819  0.3078  0.1558 -0.0294
   99SAPS   O32 9908   6.402   7.306   6.857  0.0693  0.3981 -0.2639
   99SAPS   C32 9909   6.172   7.258   6.903 -0.0052  0.4914  0.1876
   99SAPS   H2X 9910   6.096   7.206   6.840  1.0274  1.0196 -1.5425
   99SAPS   H2Y 9911   6.122   7.344   6.954  0.0591 -0.7092  2.3391
   99SAPS   C23 9912   6.558   6.906   6.700 -0.1496  0.8024  0.4527
   99SAPS   H3R 9913   6.627   6.877   6.617 -0.8719  0.0638  0.0983
   99SAPS   H3S 9914   6.453   6.879   6.674 -0.3155 -0.0191  1.9212
   99SAPS   C24 9915   6.606   6.796   6.806 -0.5774 -0.3808 -0.4477
   99SAPS   H4R 9916   6.553   6.819   6.901  2.7266 -0.2377  1.4576
   99SAPS   H4S 9917   6.713   6.813   6.834 -1.0240  0.2059  0.9237
   99SAPS   C25 9918   6.589   6.657   6.762 -1.0941  0.4069 -0.0426
   99SAPS   H5R 9919   6.644   6.634   6.670 -1.5709  1.0919 -0.4993
   99SAPS   C26 9920   6.515   6.556   6.817  0.7062  0.0457  0.0193
   99SAPS   H6R 9921   6.514   6.458   6.767 -2.0738 -0.2940  0.6593
   99SAPS   C27 9922   6.429   6.572   6.940 -0.3783  1.0500 -0.6354
   99SAPS   H7R 9923   6.330   6.605   6.900  0.0020  0.4184 -2.1130
   99SAPS   H7S 9924   6.459   6.655   7.007 -2.0318  0.8027  0.4339
   99SAPS   C28 9925   6.415   6.441   7.027  0.9911 -0.6242 -0.3379
   99SAPS   H8R 9926   6.393   6.349   6.970  1.3372 -2.1211  1.9016
   99SAPS   C29 9927   6.421   6.436   7.161  0.6226 -0.3362  0.5390
   99SAPS   H9R 9928   6.399   6.339   7.208  0.1752 -1.0146 -1.0309
   99SAPS  C210 9929   6.436   6.547   7.259 -0.5372  0.1744  0.2527
   99SAPS  H10R 9930   6.520   6.608   7.219  0.8225 -0.0327  2.6875
   99SAPS  H10S 9931   6.473   6.510   7.357  1.4572 -0.6189 -0.7801
   99SAPS  C211 9932   6.304   6.622   7.272  0.6781 -0.1647 -0.0760
   99SAPS  H11R 9933   6.263   6.658   7.177 -0.7142 -0.1072  0.5371
   99SAPS  C212 9934   6.235   6.639   7.388  0.2431 -0.0363  0.1777
   99SAPS  H12R 9935   6.145   6.701   7.380 -0.0296 -0.0598  2.7633
   99SAPS  C213 9936   6.280   6.587   7.522  0.5832 -0.1838  0.6013
   99SAPS  H13R 9937   6.389   6.604   7.534  0.8287  0.0974 -1.6643
   99SAPS  H13S 9938   6.280   6.477   7.504 -0.2350 -0.1296  0.2076
   99SAPS  C214 9939   6.197   6.618   7.644 -0.6206 -0.4666 -0.1889
   99SAPS  H14R 9940   6.088   6.612   7.638 -0.6614  0.1255 -0.0501
   99SAPS  C215 9941   6.256   6.669   7.754 -0.1528 -0.3218  0.4305
   99SAPS  H15R 9942   6.191   6.674   7.843 -0.7755 -1.3883  0.0470
   99SAPS  C216 9943   6.399   6.703   7.772  0.2113  0.2345  0.2179
   99SAPS  H16R 9944   6.435   6.783   7.705  3.0653 -0.2153  1.1726
   99SAPS  H16S 9945   6.457   6.609   7.756  0.3361  0.0919  1.4566
   99SAPS  C217 9946   6.430   6.749   7.919 -0.0376 -0.2318  0.0461
   99SAPS  H17R 9947   6.537   6.775   7.911 -0.0664 -0.5471 -1.5837
   99SAPS  H17S 9948   6.413   6.667   7.992 -1.7165 -3.5659 -3.9052
   99SAPS  C218 9949   6.342   6.867   7.973  0.5822  0.4448  0.6126
   99SAPS  H18R 9950   6.235   6.835   7.969  1.4673 -2.4084 -2.6430
   99SAPS  H18S 9951   6.352   6.951   7.901 -1.9253 -0.9654 -1.5058
   99SAPS  C219 9952   6.391   6.918   8.108 -0.6409  0.0348  0.7078
   99SAPS  H19R 9953   6.414   7.026   8.098  0.6211 -0.4122 -1.3609
   99SAPS  H19S 9954   6.490   6.867   8.117 -0.5433  0.3210  1.2791
   99SAPS  C220 9955   6.314   6.879   8.227  0.1071  0.5460 -0.2724
   99SAPS  H20R 9956   6.357   6.927   8.318  1.1322  1.3814 -1.1706
   99SAPS  H20S 9957   6.300   6.769   8.228  0.2734  0.5275 -0.0478
   99SAPS  H20T 9958   6.210   6.918   8.219 -1.1447 -2.2805  1.3837
   99SAPS   C33 9959   6.230   7.148   7.007  0.0100 -0.1662  0.2784
   99SAPS   H3X 9960   6.299   7.195   7.080 -2.8955 -1.2779  3.8589
   99SAPS   H3Y 9961   6.270   7.068   6.941  0.5104  1.0247 -0.8993
   99SAPS   C34 9962   6.119   7.094   7.094  0.1650 -0.2559  0.1201
   99SAPS   H4X 9963   6.167   7.021   7.162  0.5097 -0.0224  0.1297
   99SAPS   H4Y 9964   6.042   7.033   7.042 -0.5720  0.9975 -0.2897
   99SAPS   C35 9965   6.057   7.201   7.184  0.4033 -0.5550 -0.4603
   99SAPS   H5X 9966   6.009   7.285   7.129 -2.3135 -0.2111  2.3542
   99SAPS   H5Y 9967   6.149   7.239   7.234  0.5472  0.1422 -1.2277
   99SAPS   C36 9968   5.955   7.166   7.295 -0.6669  0.0359  0.1090
   99SAPS   H6X 9969   5.869   7.124   7.238 -0.2834  0.3264 -0.6903
   99SAPS   H6Y 9970   5.927   7.262   7.343  0.4949  0.7586 -0.6316
   99SAPS   C37 9971   6.007   7.070   7.404 -0.4528  0.4484  0.4245
   99SAPS   H7X 9972   6.110   7.103   7.430  1.0290 -1.3944 -2.8118
   99SAPS   H7Y 9973   6.032   6.974   7.354 -0.0620  1.8997 -2.2180
   99SAPS   C38 9974   5.907   7.063   7.522 -0.2121  0.7415  0.5937
   99SAPS   H8X 9975   5.811   7.014   7.497  1.4276 -1.8116 -0.9311
   99SAPS   H8Y 9976   5.873   7.162   7.558 -2.1774 -0.6382  2.6423
   99SAPS   C39 9977   5.960   6.985   7.651  0.1650 -0.6949  0.2045
   99SAPS   H9X 9978   5.952   6.880   7.616 -3.1447 -1.4995  3.0853
   99SAPS   H9Y 9979   5.882   7.009   7.727 -0.6704  0.7979 -1.0885
   99SAPS  C310 9980   6.096   7.025   7.707 -0.5500 -0.2237  0.3534
   99SAPS  H10X 9981   6.176   6.999   7.634 -0.7238  0.3856 -0.0548
   99SAPS  H10Y 9982   6.119   6.974   7.803  2.3652 -0.3003 -0.3255
   99SAPS  C311 9983   6.110   7.168   7.746 -0.8687  0.3144 -0.3113
   99SAPS  H11X 9984   6.122   7.234   7.657  3.6161  1.1054  0.7969
   99SAPS  H11Y 9985   6.203   7.182   7.804 -1.4211 -1.9518  1.1966
   99SAPS  C312 9986   5.992   7.225   7.832  0.3124  0.1784  0.4998
   99SAPS  H12X 9987   5.978   7.172   7.929 -0.3217 -0.9935 -0.2064
   99SAPS  H12Y 9988   5.898   7.212   7.772  0.7715  1.0120 -0.4150
   99SAPS  C313 9989   6.014   7.379   7.855  0.2987  0.4248  0.3289
   99SAPS  H13X 9990   5.983   7.427   7.760  0.4237 -0.3621 -0.1073
   99SAPS  H13Y 9991   6.125   7.386   7.860  0.3761 -1.6007  1.5702
   99SAPS  C314 9992   5.935   7.443   7.964 -0.1513  0.4610 -0.2394
   99SAPS  H14X 9993   5.940   7.391   8.062 -0.1129  0.8355 -0.0421
   99SAPS  H14Y 9994   5.829   7.445   7.933 -1.1251  1.1137  2.9677
   99SAPS  C315 9995   5.967   7.596   7.994 -0.3568  0.5482 -0.2522
   99SAPS  H15X 9996   6.069   7.585   8.037 -0.5213 -1.0484 -0.2581
   99SAPS  H15Y 9997   5.914   7.626   8.087 -0.0715  0.2461  0.0088
   99SAPS  C316 9998   5.958   7.704   7.886 -0.6840 -0.0126  0.4529
   99SAPS  H16X 9999   5.860   7.691   7.837 -0.4010  0.6634 -0.3048
   99SAPS  H16Y10000   6.039   7.681   7.813 -1.8739  0.8395 -1.1539
   99SAPS  C31710001   5.970   7.848   7.919 -0.6317  0.3980 -0.0909
   99SAPS  H17X10002   5.956   7.899   7.821 -0.7218 -0.2101 -0.4011
   99SAPS  H17Y10003   6.075   7.872   7.946 -0.3748 -0.9370  0.1696
   99SAPS  C31810004   5.859   7.890   8.009  0.6424 -1.2658 -0.5170
   99SAPS  H18X10005   5.763   7.873   7.955 -0.1044 -0.1752  0.4460
   99SAPS  H18Y10006   5.869   7.999   8.027 -1.6053 -0.7850 -1.9873
   99SAPS  H18Z10007   5.850   7.839   8.107 -0.9160  0.3034  0.1896
  100SAPS     N10008   1.473   0.089   5.760  0.5120 -0.1352  0.0488
  100SAPS   HN110009   1.426   0.089   5.667  1.0859  2.9073 -0.2871
  100SAPS   HN210010   1.558   0.029   5.760  0.4611 -0.2581 -1.9600
  100SAPS   HN310011   1.426   0.026   5.828 -1.8144 -0.9590 -2.2249
  100SAPS   C1210012   1.488   0.222   5.813 -0.3323  0.3253 -0.6825
  100SAPS  H12A10013   1.587   0.262   5.799  0.1568 -0.2382  0.9459
  100SAPS   C1310014   1.390   0.311   5.743  0.3180  0.1205  0.3235
  100SAPS  O13A10015   1.283   0.264   5.698 -0.3379 -0.0265  0.5377
  100SAPS  O13B10016   1.398   0.433   5.767  0.0614 -0.5487  0.6445
  100SAPS   C1110017   1.450   0.216   5.968 -0.0372 -0.0482  0.3132
  100SAPS  H11A10018   1.345   0.182   5.983 -0.5449  0.9439 -0.9717
  100SAPS  H11B10019   1.449   0.322   6.003  2.0153  0.3993 -0.9319
  100SAPS     P10020   1.496   0.011   6.119 -0.5516 -0.4000 -0.7618
  100SAPS   O1310021   1.422  -0.069   6.024  0.1809 -0.4743  0.1240
  100SAPS   O1410022   1.617  -0.050   6.178  0.1880 -0.2477  0.2301
  100SAPS   O1210023   1.546   0.144   6.047  0.3065 -0.0416 -0.1145
  100SAPS   O1110024   1.409   0.080   6.234  0.3230  0.3224  0.1060
  100SAPS    C110025   1.450   0.195   6.313  0.1583 -0.2402  0.0373
  100SAPS    HA10026   1.549   0.231   6.278  0.3382 -1.5384 -0.8058
  100SAPS    HB10027   1.382   0.282   6.303  0.1711 -0.3841 -1.3777
  100SAPS    C210028   1.460   0.162   6.465 -0.0109  0.5096 -0.0691
  100SAPS    HS10029   1.532   0.227   6.519  0.1318 -0.6751  1.1736
  100SAPS   O2110030   1.493   0.018   6.489 -0.1408 -0.1017 -0.5661
  100SAPS   C2110031   1.621  -0.016   6.479 -0.9140  0.7199  0.4011
  100SAPS   O2210032   1.715   0.061   6.476  0.6035  0.3024 -0.2814
  100SAPS   C2210033   1.635  -0.164   6.468 -0.3329 -0.0470  0.3949
  100SAPS   H2R10034   1.535  -0.212   6.476 -0.2912 -0.3285 -0.7169
  100SAPS   H2S10035   1.685  -0.179   6.370 -2.0825  3.0081 -1.0418
  100SAPS    C310036   1.325   0.199   6.528  0.0540  0.1165 -0.4398
  100SAPS    HX10037   1.253   0.179   6.446  1.5644  2.3153 -2.3807
  100SAPS    HY10038   1.321   0.308   6.552  1.6324 -0.4881  2.8450
  100SAPS   O3110039   1.290   0.118   6.647 -0.1733 -0.6521  0.0944
  100SAPS   C3110040   1.359   0.165   6.750  0.5300 -0.0178 -0.8438
  100SAPS   O3210041   1.438   0.260   6.745 -0.1197  0.4841  0.1463
  100SAPS   C3210042   1.317   0.095   6.877  0.6438 -0.4962  0.0753
  100SAPS   H2X10043   1.258   0.003   6.853 -0.0650  0.4994 -2.1528
  100SAPS   H2Y10044   1.248   0.166   6.928  1.5581  2.0812 -2.1403
  100SAPS   C2310045   1.730  -0.213   6.581  0.2986  0.7015  0.6968
  100SAPS   H3R10046   1.838  -0.194   6.559 -0.4543  1.8590 -2.3433
  100SAPS   H3S10047   1.728  -0.324   6.577 -0.1790  0.7626 -3.3133
  100SAPS   C2410048   1.691  -0.168   6.725  0.0979  0.2688  0.0073
  100SAPS   H4R10049   1.586  -0.201   6.736 -0.5356  2.3869  0.4446
  100SAPS   H4S10050   1.697  -0.057   6.728  1.1807  0.1965  1.6746
  100SAPS   C2510051   1.774  -0.229   6.836  0.4062  0.1950 -0.2791
  100SAPS   H5R10052   1.777  -0.338   6.834 -0.9722  0.1246  0.7139
  100SAPS   C2610053   1.828  -0.175   6.948 -0.4452 -0.0145  0.0900
  100SAPS   H6R10054   1.863  -0.250   7.020 -1.1540 -1.9030 -1.4741
  100SAPS   C2710055   1.815  -0.031   6.987 -0.3402 -0.2133 -0.3101
  100SAPS   H7R10056   1.846  -0.023   7.094  1.1004 -3.4422 -0.4266
  100SAPS   H7S10057   1.710  -0.001   6.969  0.1863  1.8818  0.0454
  100SAPS   C2810058   1.903   0.058   6.896  0.0240 -0.8783 -0.4809
  100SAPS   H8R10059   1.922   0.019   6.795 -0.2489  1.1300 -1.3248
  100SAPS   C2910060   1.973   0.167   6.944  0.1628 -0.3423  1.1318
  100SAPS   H9R10061   2.028   0.231   6.874 -0.8933 -0.7013 -0.0488
  100SAPS  C21010062   1.976   0.218   7.088 -0.4624  0.4376 -0.1291
  100SAPS  H10R10063   1.876   0.204   7.135 -1.1876  1.4765 -1.3224
  100SAPS  H10S10064   1.998   0.327   7.088 -0.9604  0.5486 -1.4142
  100SAPS  C21110065   2.081   0.142   7.172  0.2963  0.4795 -0.1015
  100SAPS  H11R10066   2.174   0.105   7.126  0.2889 -0.5495  0.6729
  100SAPS  C21210067   2.066   0.122   7.308 -0.2355  0.3204  0.8769
  100SAPS  H12R10068   2.155   0.080   7.356 -0.3586 -3.3650 -1.8229
  100SAPS  C21310069   1.965   0.174   7.403 -0.0703  0.1704 -0.1840
  100SAPS  H13R10070   2.000   0.161   7.507 -1.0635  1.2693  0.3016
  100SAPS  H13S10071   1.874   0.111   7.410 -0.0768  0.2476  0.5027
  100SAPS  C21410072   1.916   0.316   7.383  0.2215  0.2650  0.1951
  100SAPS  H14R10073   1.814   0.329   7.343  0.1071 -0.4160  0.2446
  100SAPS  C21510074   1.988   0.425   7.427  0.6894 -0.1510  0.1273
  100SAPS  H15R10075   1.951   0.526   7.408  1.6953 -0.2069 -2.1711
  100SAPS  C21610076   2.123   0.413   7.497 -0.2414 -0.4004  0.0425
  100SAPS  H16R10077   2.201   0.419   7.417  0.9413 -0.7818  1.1514
  100SAPS  H16S10078   2.134   0.318   7.552  2.1731  0.1971  0.6891
  100SAPS  C21710079   2.139   0.529   7.599  0.0620  0.5329 -0.6253
  100SAPS  H17R10080   2.122   0.627   7.549 -1.7696  2.1673  2.9850
  100SAPS  H17S10081   2.244   0.537   7.637  1.1898  1.7199 -3.8098
  100SAPS  C21810082   2.054   0.509   7.722 -0.2188  0.2956 -0.7483
  100SAPS  H18R10083   2.103   0.417   7.762  1.3624  1.1621 -0.6677
  100SAPS  H18S10084   1.946   0.494   7.701 -0.4061  0.4109  0.1133
  100SAPS  C21910085   2.064   0.621   7.825  0.3766 -0.0531 -0.1337
  100SAPS  H19R10086   1.993   0.598   7.907  0.9489 -1.2144  0.0361
  100SAPS  H19S10087   2.029   0.716   7.779 -1.1246 -0.7233 -0.4025
  100SAPS  C22010088   2.195   0.620   7.905  0.0182  0.3251  0.5184
  100SAPS  H20R10089   2.230   0.518   7.932  0.8406  0.3554 -0.3671
  100SAPS  H20S10090   2.176   0.675   7.999 -1.4126  0.3494  0.2259
  100SAPS  H20T10091   2.277   0.671   7.849  0.6761  2.0726  3.0136
  100SAPS   C3310092   1.430   0.049   6.966  0.4228 -0.5842 -0.1163
  100SAPS   H3X10093   1.511   0.125   6.973  1.9316 -2.2220  0.8227
  100SAPS   H3Y10094   1.480  -0.034   6.913  1.2388  0.0205 -0.3108
  100SAPS   C3410095   1.382  -0.003   7.101  0.6105  0.1566 -0.2427
  100SAPS   H4X10096   1.309  -0.085   7.087 -0.3048  1.3204 -2.6535
  100SAPS   H4Y10097   1.332   0.078   7.158  2.8873  3.2163 -2.4459
  100SAPS   C3510098   1.502  -0.055   7.187 -0.1886  1.1333  0.5144
  100SAPS   H5X10099   1.577   0.027   7.200 -2.5385  2.8920  3.6506
  100SAPS   H5Y10100   1.548  -0.138   7.128 -1.1428 -0.5490  2.0787
  100SAPS   C3610101   1.461  -0.116   7.324 -0.3903 -0.3283  0.6436
  100SAPS   H6X10102   1.394  -0.200   7.296  1.3686 -1.6777  0.4430
  100SAPS   H6Y10103   1.415  -0.033   7.382 -0.9722 -0.9202  1.0390
  100SAPS   C3710104   1.586  -0.157   7.397 -0.3927  0.2165 -0.6859
  100SAPS   H7X10105   1.659  -0.074   7.403 -0.5063  0.2170  0.8522
  100SAPS   H7Y10106   1.635  -0.246   7.352  1.8738  2.2448 -2.4172
  100SAPS   C3810107   1.547  -0.201   7.533 -0.2192  0.1871 -0.7903
  100SAPS   H8X10108   1.492  -0.297   7.534  1.0675 -0.5657 -1.3547
  100SAPS   H8Y10109   1.493  -0.114   7.578  1.1043  1.5789 -1.8270
  100SAPS   C3910110   1.676  -0.226   7.619  0.6462  0.0371  0.7211
  100SAPS   H9X10111   1.643  -0.248   7.723 -1.7508 -0.1157 -0.0348
  100SAPS   H9Y10112   1.738  -0.134   7.618 -0.9627  1.1453  0.9242
  100SAPS  C31010113   1.772  -0.333   7.565 -0.0947 -0.7112  0.5421
  100SAPS  H10X10114   1.813  -0.279   7.477  1.9813 -2.4339  0.4231
  100SAPS  H10Y10115   1.699  -0.412   7.534 -1.4387  0.9553 -0.6334
  100SAPS  C31110116   1.889  -0.375   7.658 -0.0434 -0.0737  0.2818
  100SAPS  H11X10117   1.971  -0.303   7.640 -0.0062 -0.3546 -0.6788
  100SAPS  H11Y10118   1.921  -0.473   7.616 -0.1854 -0.2043  0.4712
  100SAPS  C31210119   1.852  -0.410   7.796 -0.2495  0.1111  0.4895
  100SAPS  H12X10120   1.830  -0.311   7.842 -2.0801  0.9557 -2.0747
  100SAPS  H12Y10121   1.940  -0.439   7.858 -0.3616 -2.1138 -0.3477
  100SAPS  C31310122   1.736  -0.515   7.817  0.9062  0.1028 -0.1888
  100SAPS  H13X10123   1.756  -0.599   7.748 -5.2550 -0.0432 -2.1096
  100SAPS  H13Y10124   1.644  -0.458   7.793  1.8606  1.9793  0.4197
  100SAPS  C31410125   1.741  -0.572   7.962  0.0575  0.1066 -0.0152
  100SAPS  H14X10126   1.670  -0.510   8.022 -1.2507 -0.7150 -0.6970
  100SAPS  H14Y10127   1.848  -0.568   7.993  0.7297  1.0763 -2.3048
  100SAPS  C31510128   1.702  -0.714   7.975  0.4326 -0.5671  0.8068
  100SAPS  H15X10129   1.739  -0.781   7.894  1.0039 -1.0611  1.4671
  100SAPS  H15Y10130   1.591  -0.712   7.981  0.4546 -0.6469  1.2810
  100SAPS  C31610131   1.761  -0.766   8.109  0.6500  0.6452  0.0597
  100SAPS  H16X10132   1.872  -0.766   8.108  0.7226 -3.4794 -1.3335
  100SAPS  H16Y10133   1.720  -0.869   8.114 -0.8472  1.0998 -1.8984
  100SAPS  C31710134   1.717  -0.680   8.227  0.2070 -0.4757  0.2063
  100SAPS  H17X10135   1.606  -0.684   8.227  0.2481 -1.9241 -0.2119
  100SAPS  H17Y10136   1.756  -0.576   8.219 -1.3927  0.0435 -1.2910
  100SAPS  C31810137   1.773  -0.723   8.362 -0.2301 -0.1056 -0.1363
  100SAPS  H18X10138   1.884  -0.723   8.357 -0.3169  0.2204 -2.6967
  100SAPS  H18Y10139   1.741  -0.828   8.377 -1.0930 -0.2793 -2.7790
  100SAPS  H18Z10140   1.738  -0.663   8.448  0.4069  0.9717 -0.6100
  101OSM      N10141   3.883   2.283  10.257  0.1917  0.4731 -0.0666
  101OSM    C1510142   3.786   2.185  10.199  0.5048 -0.4568 -0.9837
  101OSM   H15A10143   3.798   2.082  10.230 -2.7505 -0.9324 -1.1310
  101OSM   H15B10144   3.784   2.175  10.092 -1.8555 -1.8507 -0.8341
  101OSM   H15C10145   3.683   2.206  10.222 -0.0881 -2.1111 -2.0491
  101OSM    C1410146   3.865   2.300  10.404 -0.4242  0.3887  0.4312
  101OSM   H14A10147   3.845   2.206  10.453  1.6708 -0.3322 -0.0705
  101OSM   H14B10148   3.779   2.365  10.419 -0.1235  0.8924 -0.0227
  101OSM   H14C10149   3.943   2.356  10.452 -0.3484 -0.0770  0.8571
  101OSM    C1310150   4.018   2.235  10.231  0.0158 -0.1741  0.7939
  101OSM   H13A10151   4.096   2.303  10.261  0.9071 -0.6990 -0.3095
  101OSM   H13B10152   4.044   2.226  10.127 -1.2169  1.9739  0.2780
  101OSM   H13C10153   4.043   2.139  10.274  2.3322 -1.3908 -3.0342
  101OSM    C1210154   3.855   2.412  10.183  0.4656  0.2407 -0.4297
  101OSM   H12A10155   3.751   2.436  10.199  0.2723 -0.4598 -0.5797
  101OSM   H12B10156   3.869   2.392  10.078 -2.8946 -2.3063 -0.4776
  101OSM    C1110157   3.937   2.531  10.227 -0.3858 -0.9902 -0.3088
  101OSM   H11A10158   4.044   2.502  10.215  0.3006  0.5613  1.8336
  101OSM   H11B10159   3.916   2.561  10.332 -0.1207 -0.8705 -0.2879
  101OSM      P10160   4.011   2.736  10.095  0.0245 -0.3476  0.5609
  101OSM    O1310161   3.978   2.784   9.958  0.1288 -0.3120 -0.9226
  101OSM    O1410162   4.023   2.846  10.198  0.2359 -0.1190  0.9630
  101OSM    O1110163   4.144   2.660  10.099 -0.1388 -0.5972  0.0265
  101OSM    O1210164   3.898   2.643  10.145 -0.3097  0.6223 -0.0947
  101OSM    C1S10165   4.168   2.553  10.012 -0.0219 -0.2725  0.5921
  101OSM    H1S10166   4.091   2.474  10.006  0.7311 -1.2377  2.9409
  101OSM    H1T10167   4.262   2.505  10.049 -0.4329 -0.7343  1.0449
  101OSM     NF10168   4.258   2.484   9.796  0.2945 -0.3703  0.4096
  101OSM    HNF10169   4.356   2.477   9.808  0.4616  2.7477  1.0702
  101OSM    C2S10170   4.212   2.602   9.866 -0.4968 -0.2772  0.5577
  101OSM    H2S10171   4.121   2.646   9.818  1.5726  2.9474 -0.5957
  101OSM    C3S10172   4.331   2.704   9.863  0.4600  0.4043 -0.1758
  101OSM    H3S10173   4.412   2.657   9.923 -2.0448 -0.2821  2.8322
  101OSM     O310174   4.295   2.827   9.928  0.2597 -0.2830 -0.3682
  101OSM    HO310175   4.246   2.797  10.005  1.4232 -2.8336 -0.5647
  101OSM    C4S10176   4.375   2.718   9.712 -0.0682  0.4249 -0.6584
  101OSM    H4S10177   4.449   2.643   9.682  1.4798  2.2699 -1.6033
  101OSM    C5S10178   4.328   2.810   9.623 -0.5908  0.3747  0.6787
  101OSM    H5S10179   4.259   2.886   9.664 -0.6507  0.2170  0.8768
  101OSM    C6S10180   4.374   2.822   9.479  0.6495 -0.5387  0.2691
  101OSM    H6S10181   4.461   2.754   9.471  2.3490  1.5636  0.4301
  101OSM    H6T10182   4.409   2.927   9.482  0.0464 -0.3494  0.8289
  101OSM    C7S10183   4.275   2.811   9.366 -0.5870 -0.2059  0.3779
  101OSM    H7S10184   4.335   2.829   9.274 -0.1755  0.4180  0.7630
  101OSM    H7T10185   4.198   2.891   9.378 -0.7180  0.1855 -2.5641
  101OSM    C8S10186   4.219   2.668   9.353  0.6182  0.5389  0.5465
  101OSM    H8S10187   4.168   2.641   9.448  0.5999 -0.7247  0.1849
  101OSM    H8T10188   4.301   2.594   9.342  0.4206  0.1469  1.7007
  101OSM    C9S10189   4.135   2.645   9.226  0.2074 -0.5879  0.3841
  101OSM    H9S10190   4.057   2.724   9.234 -0.1401 -0.6423 -1.9623
  101OSM    H9T10191   4.083   2.547   9.225  1.5415 -1.3162  0.5753
  101OSM   C10S10192   4.205   2.646   9.092 -0.4092  0.2320 -0.1344
  101OSM   H10S10193   4.281   2.566   9.079 -1.6228 -0.8094 -0.9668
  101OSM   H10T10194   4.259   2.743   9.085  2.8542 -1.5494 -0.3843
  101OSM   C11S10195   4.096   2.631   8.980  0.3130  0.2256 -0.1924
  101OSM   H11S10196   4.014   2.563   9.012  0.4435  0.9670  1.7578
  101OSM   H11T10197   4.134   2.582   8.888 -0.6048 -0.8827  0.0091
  101OSM   C12S10198   4.038   2.772   8.939 -0.1421  0.1840  0.3211
  101OSM   H12S10199   4.126   2.839   8.939 -0.5021  0.6623  1.2216
  101OSM   H12T10200   3.968   2.813   9.015  1.3929  0.8012  1.4253
  101OSM   C13S10201   3.971   2.783   8.810 -0.0110  0.4908  0.4645
  101OSM   H13S10202   3.865   2.748   8.812  0.4430 -0.8818  0.7453
  101OSM   H13T10203   4.028   2.713   8.745 -0.5054  0.0965  0.4471
  101OSM   C14S10204   3.979   2.917   8.745  0.4797 -0.3537 -0.1938
  101OSM   H14S10205   4.076   2.921   8.691  0.8621  1.1842  0.6058
  101OSM   H14T10206   3.981   2.988   8.830 -0.9642 -0.5505  0.0186
  101OSM   C15S10207   3.860   2.942   8.650  0.1845 -0.3156  0.7148
  101OSM   H15S10208   3.765   2.910   8.698 -1.2306  0.8990 -1.1569
  101OSM   H15T10209   3.877   2.883   8.557 -2.8243  1.3725 -1.0042
  101OSM   C16S10210   3.858   3.094   8.602 -0.3966  0.0029  0.4382
  101OSM   H16S10211   3.793   3.085   8.512 -4.1865  0.1638  3.0323
  101OSM   H16T10212   3.960   3.131   8.581  0.4406 -1.8564  1.1055
  101OSM   C17S10213   3.805   3.188   8.709  0.2871 -0.2984  0.3474
  101OSM   H17S10214   3.881   3.164   8.787 -1.6290 -0.4459  2.2084
  101OSM   H17T10215   3.704   3.162   8.747 -1.1698  1.1815 -2.3897
  101OSM   C18S10216   3.816   3.334   8.674  0.3956 -0.1444 -0.4413
  101OSM   H18S10217   3.907   3.366   8.620 -1.4993  1.8643 -2.5123
  101OSM   H18T10218   3.799   3.400   8.762  2.0668  0.3377 -0.4553
  101OSM   H18U10219   3.734   3.340   8.600 -0.5970 -1.4954  0.5138
  101OSM    C1F10220   4.169   2.405   9.728  0.2706  0.7709 -0.2237
  101OSM     OF10221   4.048   2.427   9.729 -0.0725 -0.3567 -0.1554
  101OSM    C2F10222   4.225   2.286   9.652  0.5223 -0.6154 -0.5861
  101OSM    H2F10223   4.275   2.218   9.725 -1.6552 -1.4026  0.2079
  101OSM    H2G10224   4.309   2.320   9.587  0.0778  1.5142 -0.0630
  101OSM    C3F10225   4.127   2.205   9.560 -0.5114 -0.3994 -0.5259
  101OSM    H3F10226   4.066   2.274   9.498  1.9659  2.0973 -0.2310
  101OSM    H3G10227   4.066   2.142   9.629  2.6358 -1.8934  0.9877
  101OSM    C4F10228   4.197   2.106   9.469  0.0658 -0.0751  0.0575
  101OSM    H4F10229   4.281   2.058   9.525  0.6789  1.0469  0.1029
  101OSM    H4G10230   4.249   2.164   9.390 -1.2852  0.0587 -0.7527
  101OSM    C5F10231   4.102   1.996   9.410  0.7489 -0.2651  0.9346
  101OSM    H5F10232   4.059   1.938   9.495 -1.7237  1.1442  0.6984
  101OSM    H5G10233   4.164   1.922   9.355 -1.0260 -2.2416  1.5000
  101OSM    C6F10234   3.982   2.043   9.313  0.1626 -0.4042 -0.3822
  101OSM    H6F10235   3.897   2.087   9.369 -2.0140 -2.2916 -2.1421
  101OSM    H6G10236   3.944   1.950   9.266 -0.9463  0.8359 -1.9929
  101OSM    C7F10237   4.018   2.144   9.204  0.3623 -0.7043 -0.1144
  101OSM    H7F10238   4.120   2.124   9.163  0.7565  2.1706 -0.6389
  101OSM    H7G10239   4.013   2.244   9.252  0.3814  0.3783 -2.3024
  101OSM    C8F10240   3.917   2.134   9.078  0.4557  0.4876 -0.1539
  101OSM    H8F10241   3.817   2.127   9.126  0.4259  1.3172 -0.0841
  101OSM    H8G10242   3.935   2.033   9.037  1.4661  1.6371 -2.6669
  101OSM    C9F10243   3.931   2.259   8.987  0.6976 -1.0951  0.3697
  101OSM    H9F10244   3.922   2.358   9.034 -1.9282 -0.9385 -0.4074
  101OSM   C10F10245   3.953   2.253   8.860 -0.1023  0.0001  0.2188
  101OSM   H10F10246   3.957   2.348   8.805  0.9409 -0.8970 -1.3094
  101OSM   C11F10247   3.967   2.123   8.783 -0.6872  0.4282 -0.3788
  101OSM   H11F10248   3.877   2.064   8.807 -0.3176 -0.5193 -1.2590
  101OSM   H11G10249   4.059   2.063   8.800 -1.9268 -1.2533  0.3836
  101OSM   C12F10250   3.974   2.139   8.627 -0.2841  0.5873  0.2321
  101OSM   H12F10251   4.001   2.038   8.591 -0.1246  0.6764  0.1052
  101OSM   H12G10252   4.059   2.204   8.596 -0.3434  0.7840  0.4821
  101OSM   C13F10253   3.842   2.189   8.564  0.0888  0.6460 -0.5289
  101OSM   H13F10254   3.812   2.279   8.622 -0.0084 -0.0639  0.5344
  101OSM   H13G10255   3.756   2.120   8.574  0.5440  0.2669  0.9921
  101OSM   C14F10256   3.851   2.228   8.419 -0.3056  0.1908 -1.2300
  101OSM   H14F10257   3.907   2.154   8.360 -1.3379 -1.7858  0.2144
  101OSM   H14G10258   3.914   2.320   8.420  0.7632 -0.5052  1.7959
  101OSM   C15F10259   3.711   2.266   8.357  0.4648  0.0501 -0.4586
  101OSM   H15F10260   3.641   2.326   8.420 -0.9458 -0.3172 -1.6364
  101OSM   H15G10261   3.662   2.172   8.326  0.9084 -0.7546  1.2525
  101OSM   C16F10262   3.729   2.350   8.231 -0.1838  0.0070 -0.0931
  101OSM   H16F10263   3.633   2.355   8.176 -0.7634 -0.7793  0.8373
  101OSM   H16G10264   3.787   2.301   8.149 -1.8739 -0.8331 -0.8108
  101OSM   C17F10265   3.765   2.497   8.247  0.1747  0.3823 -0.2009
  101OSM   H17F10266   3.874   2.496   8.264  0.5469  0.2733 -2.4760
  101OSM   H17G10267   3.703   2.540   8.329  1.4033 -0.7798  1.3570
  101OSM   C18F10268   3.730   2.584   8.126 -0.2384  0.1505 -0.0394
  101OSM   H18F10269   3.628   2.561   8.090  0.5549 -2.1816 -0.8847
  101OSM   H18G10270   3.809   2.557   8.052 -0.2928 -0.1015 -0.0036
  101OSM   H18H10271   3.724   2.691   8.155 -0.6344 -0.1521  1.0107
  102OSM      N10272   2.580   2.593  10.369  0.3229 -0.2444 -0.0318
  102OSM    C1510273   2.480   2.502  10.312 -0.3364 -0.1469  0.4720
  102OSM   H15A10274   2.465   2.423  10.383  0.5981 -1.9908 -1.3290
  102OSM   H15B10275   2.509   2.456  10.218 -0.1481  0.8119  0.0478
  102OSM   H15C10276   2.380   2.541  10.308 -0.2574  0.4081  2.9764
  102OSM    C1410277   2.564   2.634  10.512 -0.3818 -0.5562 -0.2346
  102OSM   H14A10278   2.561   2.546  10.574  2.1218 -0.7014 -0.2344
  102OSM   H14B10279   2.467   2.675  10.534 -0.3490 -0.1478 -0.8216
  102OSM   H14C10280   2.642   2.704  10.538 -1.9825  1.2351 -0.2324
  102OSM    C1310281   2.714   2.522  10.353  0.0137  0.9904 -0.0566
  102OSM   H13A10282   2.731   2.488  10.252 -0.2248  2.7666 -0.7194
  102OSM   H13B10283   2.710   2.424  10.399 -1.4463  1.0626 -0.0045
  102OSM   H13C10284   2.802   2.571  10.392  1.1363 -0.4785 -0.6980
  102OSM    C1210285   2.579   2.708  10.272 -0.7943  0.7170  0.2847
  102OSM   H12A10286   2.652   2.783  10.299 -0.2406  0.5866 -0.8160
  102OSM   H12B10287   2.493   2.771  10.287 -0.1434  1.6464  0.1840
  102OSM    C1110288   2.607   2.689  10.116  0.2919  0.2386  0.2419
  102OSM   H11A10289   2.606   2.792  10.075 -0.4099 -0.6878 -2.1346
  102OSM   H11B10290   2.525   2.637  10.063 -0.3870  2.1307 -0.6171
  102OSM      P10291   2.738   2.509   9.979  0.0423  0.3117  0.4038
  102OSM    O1310292   2.881   2.486   9.944  0.7512  0.0977 -0.0943
  102OSM    O1410293   2.658   2.396  10.032  0.0788 -0.9957  0.1034
  102OSM    O1110294   2.660   2.563   9.847 -0.6218 -0.9240  0.3429
  102OSM    O1210295   2.731   2.623  10.090  0.4158 -0.2157 -0.2925
  102OSM    C1S10296   2.685   2.704   9.804  0.9719  0.6235 -0.4652
  102OSM    H1S10297   2.792   2.730   9.797  0.9977  0.6265 -0.0335
  102OSM    H1T10298   2.648   2.777   9.879 -1.0562 -0.1234 -0.7044
  102OSM     NF10299   2.649   2.868   9.612 -0.3842  0.3669  0.2138
  102OSM    HNF10300   2.568   2.926   9.622 -0.5112  0.2228  0.0398
  102OSM    C2S10301   2.614   2.735   9.667  0.1430 -0.4775  0.6061
  102OSM    H2S10302   2.664   2.662   9.600  1.7718 -0.4508  1.7620
  102OSM    C3S10303   2.464   2.712   9.686  0.1967 -0.6882 -0.8278
  102OSM    H3S10304   2.438   2.800   9.749 -0.1228 -0.6218 -1.0492
  102OSM     O310305   2.417   2.596   9.750 -0.1176 -0.2015  0.0466
  102OSM    HO310306   2.497   2.562   9.791 -0.8086  1.8776  3.3250
  102OSM    C4S10307   2.406   2.728   9.551  0.4950  0.2595  1.1754
  102OSM    H4S10308   2.380   2.832   9.525 -0.6754 -0.1922  0.5065
  102OSM    C5S10309   2.370   2.629   9.462  0.4310  0.5864 -0.2038
  102OSM    H5S10310   2.395   2.523   9.480 -1.5128  0.0519 -0.4362
  102OSM    C6S10311   2.299   2.670   9.330 -0.0918  0.1496 -0.0415
  102OSM    H6S10312   2.320   2.777   9.312 -0.3475 -0.1232 -2.0896
  102OSM    H6T10313   2.190   2.649   9.329  0.5024 -3.2391 -1.8141
  102OSM    C7S10314   2.358   2.593   9.213  0.4132  0.4862  0.0807
  102OSM    H7S10315   2.280   2.605   9.135  2.3595 -0.5789 -2.0763
  102OSM    H7T10316   2.373   2.488   9.248  1.2375  0.2328 -0.9957
  102OSM    C8S10317   2.498   2.647   9.164 -0.0866 -0.8411 -0.7453
  102OSM    H8S10318   2.562   2.682   9.248  2.0700  0.9070 -3.0332
  102OSM    H8T10319   2.490   2.735   9.097 -0.7613  0.9715  1.6267
  102OSM    C9S10320   2.579   2.534   9.095 -0.5308  0.2217 -0.0036
  102OSM    H9S10321   2.573   2.444   9.160  2.2157 -0.5984 -0.7976
  102OSM    H9T10322   2.684   2.571   9.089 -0.9248  1.3876  0.1653
  102OSM   C10S10323   2.530   2.508   8.957  0.5596 -0.2757 -0.2540
  102OSM   H10S10324   2.563   2.588   8.887  3.2446  0.1267  1.3640
  102OSM   H10T10325   2.420   2.517   8.946  0.5378 -1.4540 -1.0123
  102OSM   C11S10326   2.585   2.380   8.904 -0.9545 -0.7257  0.2272
  102OSM   H11S10327   2.559   2.290   8.964 -0.4746 -0.5471  0.7077
  102OSM   H11T10328   2.696   2.375   8.908 -0.7084  1.5094 -2.0204
  102OSM   C12S10329   2.542   2.356   8.754  0.3959  0.1117  0.3870
  102OSM   H12S10330   2.541   2.453   8.701 -2.5202  0.6489  1.3511
  102OSM   H12T10331   2.435   2.327   8.758  0.3278  0.5876  3.4681
  102OSM   C13S10332   2.618   2.252   8.678 -0.0570 -0.2891 -0.1206
  102OSM   H13S10333   2.601   2.160   8.738 -0.3725  0.4352  0.9134
  102OSM   H13T10334   2.729   2.264   8.673 -0.1116 -0.3651 -1.6137
  102OSM   C14S10335   2.580   2.241   8.529 -0.4174 -0.2216 -0.6203
  102OSM   H14S10336   2.471   2.216   8.528 -0.5197  0.2456 -2.5924
  102OSM   H14T10337   2.631   2.148   8.496 -1.4662 -0.1973 -2.3392
  102OSM   C15S10338   2.614   2.353   8.434  0.4598 -0.6214  0.0281
  102OSM   H15S10339   2.714   2.399   8.449  1.0313 -1.5394 -0.8696
  102OSM   H15T10340   2.548   2.437   8.464  1.1869 -1.0691  2.9589
  102OSM   C16S10341   2.589   2.319   8.282 -0.3352 -0.2544  0.1329
  102OSM   H16S10342   2.657   2.233   8.262  0.5932  1.0765 -2.7980
  102OSM   H16T10343   2.624   2.407   8.223 -2.0496  0.9963  0.9280
  102OSM   C17S10344   2.450   2.287   8.231 -0.5409  0.7030 -0.0225
  102OSM   H17S10345   2.383   2.366   8.271 -1.3280 -0.7123  1.5161
  102OSM   H17T10346   2.423   2.188   8.274 -2.2322  0.0689 -2.5094
  102OSM   C18S10347   2.438   2.297   8.078  0.0302 -0.4638  0.1563
  102OSM   H18S10348   2.431   2.403   8.046  0.9174 -0.3408  0.3449
  102OSM   H18T10349   2.353   2.237   8.040  2.4329 -2.0962 -2.8047
  102OSM   H18U10350   2.529   2.251   8.034  0.0291 -1.0468  0.7573
  102OSM    C1F10351   2.774   2.908   9.585  0.4290 -0.1429  0.2390
  102OSM     OF10352   2.859   2.823   9.571 -0.2064 -0.4856  0.5670
  102OSM    C2F10353   2.796   3.049   9.581  0.3799  0.7969 -0.0999
  102OSM    H2F10354   2.804   3.085   9.686  1.2243 -3.5686  1.4084
  102OSM    H2G10355   2.704   3.100   9.544  1.6394  2.3467 -1.1956
  102OSM    C3F10356   2.925   3.104   9.512 -0.1094  0.3726  0.6495
  102OSM    H3F10357   3.018   3.055   9.550  1.7346  2.2787 -1.2408
  102OSM    H3G10358   2.953   3.208   9.539 -2.0415  0.4952  2.2469
  102OSM    C4F10359   2.923   3.099   9.353 -0.6539  0.0035  0.6666
  102OSM    H4F10360   2.988   3.179   9.312  0.2087 -1.4117 -0.8081
  102OSM    H4G10361   2.819   3.109   9.315 -0.3409  0.8260  0.0154
  102OSM    C5F10362   2.971   2.961   9.298 -0.4341  0.3306  0.6325
  102OSM    H5F10363   2.888   2.889   9.315  0.0199 -0.3717 -0.1106
  102OSM    H5G10364   3.060   2.940   9.361  0.1931  3.0363  0.7111
  102OSM    C6F10365   3.039   2.967   9.164  0.3914  0.0882 -0.1454
  102OSM    H6F10366   3.139   3.014   9.158 -0.1430  0.9598 -3.3071
  102OSM    H6G10367   2.980   3.036   9.099  0.0516 -0.1068 -0.0464
  102OSM    C7F10368   3.044   2.839   9.083  0.1101 -0.6117 -0.0934
  102OSM    H7F10369   3.104   2.761   9.134 -1.6838 -0.5834  2.1025
  102OSM    H7G10370   3.105   2.861   8.993  0.7013 -1.5089  0.0849
  102OSM    C8F10371   2.909   2.780   9.038  0.8412 -0.2365 -0.2035
  102OSM    H8F10372   2.850   2.851   8.976  0.3511  0.0160  0.5436
  102OSM    H8G10373   2.861   2.758   9.135  0.7671 -1.3767 -0.4957
  102OSM    C9F10374   2.938   2.655   8.960  0.0952 -0.6987  0.0883
  102OSM    H9F10375   2.990   2.582   9.023 -0.5459 -0.2456  1.1752
  102OSM   C10F10376   2.920   2.648   8.828 -0.4341 -0.5203 -0.5332
  102OSM   H10F10377   2.955   2.555   8.779 -0.9597 -2.3728  2.4558
  102OSM   C11F10378   2.872   2.752   8.734 -0.6098 -0.2463  0.3969
  102OSM   H11F10379   2.857   2.849   8.786 -0.8725  0.2859 -0.6796
  102OSM   H11G10380   2.777   2.715   8.690  0.6297 -1.6118 -1.1933
  102OSM   C12F10381   2.967   2.749   8.614 -0.7674 -0.1472 -0.3680
  102OSM   H12F10382   2.972   2.654   8.556 -2.0997 -0.7391  0.4623
  102OSM   H12G10383   3.070   2.773   8.651 -1.7009  3.8438 -0.1340
  102OSM   C13F10384   2.941   2.873   8.522  0.3362  0.2406  0.3420
  102OSM   H13F10385   2.888   2.955   8.576 -1.2019  1.1247 -2.3779
  102OSM   H13G10386   2.873   2.831   8.444  3.1721 -1.9521 -1.0137
  102OSM   C14F10387   3.062   2.921   8.453  0.4425 -0.3470  0.5289
  102OSM   H14F10388   3.121   2.837   8.410 -1.1266 -1.0208 -0.3385
  102OSM   H14G10389   3.120   2.985   8.523 -1.1606  4.4730 -2.3226
  102OSM   C15F10390   3.021   3.014   8.344 -0.1269 -0.1529  0.1256
  102OSM   H15F10391   2.969   3.101   8.390  0.3568 -0.3945  1.1418
  102OSM   H15G10392   2.943   2.958   8.287 -0.8979  1.5237 -0.5004
  102OSM   C16F10393   3.138   3.069   8.250 -0.3441  0.2865  0.1389
  102OSM   H16F10394   3.224   3.008   8.287  1.0313  3.0516  1.6660
  102OSM   H16G10395   3.163   3.175   8.274  0.5288  0.2878 -0.7722
  102OSM   C17F10396   3.121   3.053   8.099 -0.5130  0.6725  0.0983
  102OSM   H17F10397   3.099   2.945   8.084  0.5339 -0.1093  3.6682
  102OSM   H17G10398   3.216   3.077   8.047  0.3259  0.2283  1.3948
  102OSM   C18F10399   2.991   3.123   8.044  0.0206 -0.0143 -0.4904
  102OSM   H18F10400   3.005   3.233   8.041 -0.6489  0.0844 -0.2166
  102OSM   H18G10401   2.903   3.107   8.111 -0.4585  0.8477 -0.9087
  102OSM   H18H10402   2.963   3.100   7.939  0.3541  0.9950 -0.7998
  103OSM      N10403   2.536   5.178  10.268 -0.0239 -0.4150  0.3841
  103OSM    C1510404   2.467   5.045  10.282  0.1215  0.0868  0.6444
  103OSM   H15A10405   2.395   5.032  10.202 -1.7762  5.2861  1.2955
  103OSM   H15B10406   2.416   5.043  10.377 -1.6666 -0.7365 -0.3043
  103OSM   H15C10407   2.541   4.967  10.285  0.1332  0.0217 -1.1769
  103OSM    C1410408   2.433   5.283  10.285  0.1201 -0.1309  0.2294
  103OSM   H14A10409   2.465   5.383  10.310  0.2127 -0.4034  1.2243
  103OSM   H14B10410   2.384   5.246  10.374 -0.1620  0.1070  0.1729
  103OSM   H14C10411   2.364   5.283  10.202  0.9860 -0.7390 -0.4963
  103OSM    C1310412   2.633   5.188  10.384  0.2678  0.2879 -0.3646
  103OSM   H13A10413   2.698   5.102  10.377  0.3529  0.3608 -0.4799
  103OSM   H13B10414   2.582   5.182  10.479  0.0476 -1.7090 -0.5734
  103OSM   H13C10415   2.706   5.267  10.385 -0.3825  0.8923  1.0780
  103OSM    C1210416   2.605   5.193  10.132  0.0432 -0.2033 -0.0785
  103OSM   H12A10417   2.692   5.129  10.133  0.0193 -0.2379  1.5003
  103OSM   H12B10418   2.647   5.292  10.125 -1.9961  0.6432 -0.7293
  103OSM    C1110419   2.516   5.160  10.010  0.7075 -0.3025  0.2534
  103OSM   H11A10420   2.562   5.211   9.923  1.0061  1.8548  1.6384
  103OSM   H11B10421   2.422   5.218  10.018  0.0429 -1.1123 -1.4472
  103OSM      P10422   2.611   4.936   9.946  0.1856 -0.2493  0.2201
  103OSM    O1310423   2.708   4.918  10.055  0.1835  0.4737 -0.0185
  103OSM    O1410424   2.567   4.810   9.877 -0.1716 -0.5468 -0.2983
  103OSM    O1110425   2.673   5.028   9.830 -0.4095  0.1133  0.7202
  103OSM    O1210426   2.496   5.019   9.993 -0.0646  0.6988 -0.4875
  103OSM    C1S10427   2.613   5.038   9.703  0.3287  0.3937  0.3142
  103OSM    H1S10428   2.503   5.042   9.714  0.4547 -0.9645  2.0679
  103OSM    H1T10429   2.639   4.952   9.637  0.8971 -0.6561  1.8756
  103OSM     NF10430   2.567   5.183   9.509 -0.0947 -0.4454  0.2032
  103OSM    HNF10431   2.617   5.179   9.422 -3.7091  0.0563 -2.0075
  103OSM    C2S10432   2.647   5.167   9.620  0.6059 -0.1982 -0.1240
  103OSM    H2S10433   2.620   5.247   9.692  2.1072  0.2328 -0.0217
  103OSM    C3S10434   2.795   5.164   9.584  0.5888 -0.4309  0.4367
  103OSM    H3S10435   2.818   5.075   9.522 -0.4831 -0.9313  0.7309
  103OSM     O310436   2.883   5.154   9.696  0.3509  0.1570  0.4277
  103OSM    HO310437   2.819   5.144   9.767 -1.7481  1.1655 -1.2613
  103OSM    C4S10438   2.832   5.286   9.515  0.2160 -0.3246 -0.3327
  103OSM    H4S10439   2.825   5.382   9.568 -0.5478  0.5586 -2.0129
  103OSM    C5S10440   2.861   5.299   9.382  0.0489 -0.1555  0.3309
  103OSM    H5S10441   2.876   5.207   9.325 -0.4334 -0.0282 -0.0024
  103OSM    C6S10442   2.899   5.436   9.316  0.9403 -0.3453 -0.4567
  103OSM    H6S10443   3.008   5.442   9.296  0.5679  1.4577 -2.1324
  103OSM    H6T10444   2.865   5.523   9.375  3.4134  0.4047 -0.0747
  103OSM    C7S10445   2.828   5.433   9.183  0.2116 -0.8820 -0.1660
  103OSM    H7S10446   2.721   5.414   9.206  1.0028 -4.1728  1.1243
  103OSM    H7T10447   2.858   5.348   9.118  0.5993 -1.9633  1.4019
  103OSM    C8S10448   2.838   5.569   9.118  0.9245 -0.6029 -0.1943
  103OSM    H8S10449   2.946   5.595   9.108  0.5722  0.4898 -1.1940
  103OSM    H8T10450   2.800   5.639   9.196 -0.1830 -0.1023 -1.1665
  103OSM    C9S10451   2.765   5.589   8.984 -0.0893 -0.4784  0.3228
  103OSM    H9S10452   2.655   5.597   8.998  0.1756  3.0485  0.7266
  103OSM    H9T10453   2.796   5.504   8.919  2.1412  0.2476  0.4023
  103OSM   C10S10454   2.807   5.723   8.908 -0.4681  0.1047  0.3467
  103OSM   H10S10455   2.914   5.715   8.880  0.1850 -0.7388  2.8726
  103OSM   H10T10456   2.796   5.810   8.976 -0.7056  0.3776 -0.0397
  103OSM   C11S10457   2.732   5.747   8.775  0.0487  0.0761 -0.5143
  103OSM   H11S10458   2.767   5.844   8.733 -1.2671  1.2588  1.0590
  103OSM   H11T10459   2.626   5.772   8.796 -0.3694 -2.4110  0.5670
  103OSM   C12S10460   2.749   5.634   8.675 -0.2805  0.6081 -0.9573
  103OSM   H12S10461   2.702   5.538   8.704 -1.2434  2.0685  2.6072
  103OSM   H12T10462   2.859   5.618   8.676 -0.1687  1.1239  1.9719
  103OSM   C13S10463   2.693   5.678   8.538  0.0656 -0.2612 -0.5701
  103OSM   H13S10464   2.770   5.747   8.497  0.1569  0.1200  0.2398
  103OSM   H13T10465   2.598   5.737   8.545 -0.9628 -1.8274 -1.1025
  103OSM   C14S10466   2.688   5.562   8.438  0.3700 -0.2302  0.3770
  103OSM   H14S10467   2.611   5.493   8.479  1.4666 -1.0928  1.0425
  103OSM   H14T10468   2.785   5.509   8.448  1.5880  2.2608  2.2569
  103OSM   C15S10469   2.662   5.608   8.293  0.2039 -0.3859 -0.0193
  103OSM   H15S10470   2.741   5.679   8.261  1.3614 -1.2107  0.9651
  103OSM   H15T10471   2.564   5.662   8.294  1.2913  1.6477  2.2061
  103OSM   C16S10472   2.653   5.489   8.197  0.2246 -0.3729 -0.0233
  103OSM   H16S10473   2.744   5.431   8.223  0.3675 -0.5709 -0.9487
  103OSM   H16T10474   2.665   5.522   8.092 -1.8993  4.3731  1.1243
  103OSM   C17S10475   2.536   5.398   8.217 -0.4795 -0.0264  0.0713
  103OSM   H17S10476   2.449   5.441   8.164 -0.9760  1.2505  1.8670
  103OSM   H17T10477   2.519   5.396   8.327  2.0975  1.8129  0.5637
  103OSM   C18S10478   2.566   5.258   8.164  0.1116 -0.0556 -0.2916
  103OSM   H18S10479   2.479   5.192   8.185 -0.4834  0.9424  0.4820
  103OSM   H18T10480   2.658   5.215   8.209 -0.8745 -0.6709  1.1803
  103OSM   H18U10481   2.574   5.271   8.054 -0.7789  1.1969 -0.2279
  103OSM    C1F10482   2.434   5.187   9.514 -0.5451  0.2032  0.1870
  103OSM     OF10483   2.367   5.200   9.614 -0.4816  0.4197  0.1895
  103OSM    C2F10484   2.358   5.174   9.386 -0.6259  0.2624  0.0626
  103OSM    H2F10485   2.292   5.263   9.393  1.0605  1.5325  0.0808
  103OSM    H2G10486   2.294   5.083   9.391 -0.5577  0.2507  0.8600
  103OSM    C3F10487   2.446   5.165   9.258  0.5906  0.1720 -0.3177
  103OSM    H3F10488   2.500   5.261   9.244 -0.5219  0.8218 -0.2163
  103OSM    H3G10489   2.370   5.150   9.179 -1.5906  0.4623  1.6613
  103OSM    C4F10490   2.535   5.041   9.251  0.7594  0.2240 -0.1341
  103OSM    H4F10491   2.503   4.978   9.337  0.5685  2.7779  1.7300
  103OSM    H4G10492   2.639   5.073   9.272  0.8379 -0.5214  0.6377
  103OSM    C5F10493   2.525   4.964   9.113  0.1200 -0.0819  0.6302
  103OSM    H5F10494   2.566   5.037   9.040 -2.4809  1.1794  0.3696
  103OSM    H5G10495   2.418   4.949   9.088  0.6407 -0.5486 -1.4287
  103OSM    C6F10496   2.606   4.833   9.098  0.1287 -0.7473  0.2506
  103OSM    H6F10497   2.667   4.817   9.190  2.2204  1.2134 -0.7499
  103OSM    H6G10498   2.677   4.834   9.013 -0.9749  3.4117 -0.7689
  103OSM    C7F10499   2.512   4.712   9.078 -0.3990  0.8026 -0.0581
  103OSM    H7F10500   2.429   4.705   9.151 -0.9555  0.8413 -0.6780
  103OSM    H7G10501   2.574   4.621   9.093  2.1828  2.8183  1.8107
  103OSM    C8F10502   2.460   4.713   8.936 -0.6499 -0.2121  0.4220
  103OSM    H8F10503   2.541   4.736   8.864 -0.0188 -1.6109  0.6681
  103OSM    H8G10504   2.390   4.799   8.933  2.0767  2.0431 -0.6632
  103OSM    C9F10505   2.381   4.589   8.915 -0.5119  0.2913 -0.0632
  103OSM    H9F10506   2.374   4.514   8.994  0.1344 -0.5811 -0.8252
  103OSM   C10F10507   2.305   4.563   8.806  0.6639 -0.5512  1.1004
  103OSM   H10F10508   2.267   4.460   8.805  0.8989 -0.6364  0.8446
  103OSM   C11F10509   2.293   4.653   8.684 -0.0413 -0.3007  0.0019
  103OSM   H11F10510   2.371   4.731   8.692 -0.3924  0.2755 -1.8267
  103OSM   H11G10511   2.201   4.715   8.677  0.4727  0.3380 -1.2914
  103OSM   C12F10512   2.315   4.591   8.546  0.7249 -0.0863  0.5487
  103OSM   H12F10513   2.258   4.661   8.481  0.6767 -0.4854  0.1667
  103OSM   H12G10514   2.256   4.497   8.538 -0.2570  0.6205 -0.7908
  103OSM   C13F10515   2.463   4.564   8.508 -0.0042 -0.1972 -0.0732
  103OSM   H13F10516   2.528   4.653   8.524  0.4394 -0.7609  1.3799
  103OSM   H13G10517   2.485   4.480   8.578 -2.0088  0.1250  0.9737
  103OSM   C14F10518   2.478   4.525   8.364 -0.3473 -0.1029  0.3311
  103OSM   H14F10519   2.430   4.425   8.361 -2.0658  0.7025  0.1563
  103OSM   H14G10520   2.584   4.509   8.335 -0.4179  0.9310 -0.5462
  103OSM   C15F10521   2.415   4.615   8.256 -0.1383  0.0287 -0.2430
  103OSM   H15F10522   2.304   4.620   8.257 -0.2474 -0.4658 -3.2209
  103OSM   H15G10523   2.437   4.566   8.159 -1.1169 -0.1878 -0.3639
  103OSM   C16F10524   2.468   4.754   8.242 -0.1228  0.0959  0.2419
  103OSM   H16F10525   2.565   4.747   8.189 -1.8374  0.4106 -3.1389
  103OSM   H16G10526   2.487   4.785   8.347  0.5945 -1.5659  0.6166
  103OSM   C17F10527   2.363   4.842   8.166  0.0254 -0.1578 -0.1936
  103OSM   H17F10528   2.395   4.948   8.160 -1.7789  0.5901  2.5838
  103OSM   H17G10529   2.267   4.837   8.222  2.3325 -0.0293  3.9624
  103OSM   C18F10530   2.340   4.801   8.022  0.4234  0.1311  0.1988
  103OSM   H18F10531   2.284   4.706   8.010 -0.0525  0.5079 -0.5889
  103OSM   H18G10532   2.438   4.808   7.971 -0.0129 -0.6459 -0.7475
  103OSM   H18H10533   2.278   4.881   7.976 -0.5838 -0.3493  0.7024
  104OSM      N10534   1.644   4.441  10.092 -0.6818 -0.8679 -0.3276
  104OSM    C1510535   1.780   4.522  10.095 -0.3487  0.6121 -0.5150
  104OSM   H15A10536   1.798   4.591  10.176 -2.1299  1.4355 -0.7897
  104OSM   H15B10537   1.793   4.578  10.004  0.5080  0.9807 -0.1688
  104OSM   H15C10538   1.854   4.445  10.109 -2.5515 -1.4773  0.1381
  104OSM    C1410539   1.620   4.368  10.221 -0.1253  0.3191 -0.4516
  104OSM   H14A10540   1.516   4.336  10.222  0.0937 -0.3845  0.0160
  104OSM   H14B10541   1.650   4.432  10.303 -0.6801  0.7055 -0.5409
  104OSM   H14C10542   1.679   4.278  10.218  3.5682  2.6532 -0.7112
  104OSM    C1310543   1.537   4.540  10.065 -0.0514  0.2305 -0.4581
  104OSM   H13A10544   1.548   4.581   9.966  0.0630 -1.7922 -1.3092
  104OSM   H13B10545   1.536   4.628  10.127 -1.6209 -0.1333  0.0540
  104OSM   H13C10546   1.437   4.499  10.069 -0.4215  1.2510  1.0216
  104OSM    C1210547   1.647   4.339   9.985  0.6130 -0.1553 -0.4661
  104OSM   H12A10548   1.690   4.384   9.897  2.3983  0.2679  0.5984
  104OSM   H12B10549   1.546   4.306   9.964 -0.1404  1.4406  0.5024
  104OSM    C1110550   1.738   4.209  10.007 -0.0417  0.2068 -0.5123
  104OSM   H11A10551   1.748   4.154   9.911  0.9854  1.5168 -1.1784
  104OSM   H11B10552   1.674   4.143  10.069  0.9311  0.1854  0.4983
  104OSM      P10553   1.985   4.267   9.965  0.0984 -0.1045  0.1762
  104OSM    O1310554   2.050   4.386  10.024  0.4503 -0.3521 -0.4579
  104OSM    O1410555   2.067   4.141   9.951 -0.4765 -0.2656  0.3807
  104OSM    O1110556   1.928   4.314   9.823  0.0263 -0.5509  0.0989
  104OSM    O1210557   1.861   4.230  10.062 -0.2411  0.0265  0.1311
  104OSM    C1S10558   1.990   4.383   9.714 -0.1777  0.7480  0.3554
  104OSM    H1S10559   2.066   4.445   9.765 -0.4500  1.3137  0.0785
  104OSM    H1T10560   1.921   4.447   9.656  0.0052  1.6800  1.1561
  104OSM     NF10561   2.102   4.329   9.506 -0.2306  0.2612  0.1202
  104OSM    HNF10562   2.054   4.338   9.419  1.0787  0.0697 -0.6416
  104OSM    C2S10563   2.045   4.267   9.612  0.7576  0.3154 -0.3847
  104OSM    H2S10564   2.126   4.213   9.667  1.2823 -0.4430 -1.8678
  104OSM    C3S10565   1.921   4.183   9.576  0.2434  0.1625 -0.2867
  104OSM    H3S10566   1.836   4.255   9.572  1.3313  1.5133  0.4833
  104OSM     O310567   1.894   4.090   9.678  0.4996 -0.2932  0.2335
  104OSM    HO310568   1.938   4.133   9.752  1.7261 -0.0801 -0.6044
  104OSM    C4S10569   1.940   4.108   9.459 -0.0711 -0.4163  0.0197
  104OSM    H4S10570   2.030   4.044   9.454 -1.4344 -2.4331  0.7761
  104OSM    C5S10571   1.858   4.109   9.354 -0.0692 -0.3138 -0.1705
  104OSM    H5S10572   1.769   4.174   9.354  0.8553  1.0015  1.5786
  104OSM    C6S10573   1.885   4.028   9.228  1.0012 -0.0401  0.1626
  104OSM    H6S10574   1.837   4.073   9.139 -2.9820 -0.8111  1.7880
  104OSM    H6T10575   1.833   3.931   9.242  0.3837  0.0038 -1.6510
  104OSM    C7S10576   2.026   3.995   9.186 -0.0278 -0.9936  0.2418
  104OSM    H7S10577   2.085   3.935   9.259  0.0919  0.0236  1.0050
  104OSM    H7T10578   2.078   4.093   9.172 -1.7035  0.0856  1.2978
  104OSM    C8S10579   2.028   3.922   9.053  0.8611  0.3669  1.1985
  104OSM    H8S10580   1.927   3.887   9.023  0.9602  1.6424 -0.8165
  104OSM    H8T10581   2.093   3.832   9.048  0.4716  0.2028 -2.1679
  104OSM    C9S10582   2.075   4.012   8.937 -0.0629 -0.2261  0.0606
  104OSM    H9S10583   2.021   4.109   8.939  0.2393 -0.0509 -0.1683
  104OSM    H9T10584   2.056   3.956   8.843 -0.2158 -0.1207  0.0282
  104OSM   C10S10585   2.230   4.028   8.930 -0.0351  0.2381 -0.2469
  104OSM   H10S10586   2.269   3.925   8.914  1.7531  0.8711 -0.0740
  104OSM   H10T10587   2.268   4.067   9.027 -2.2171  3.2302 -0.5554
  104OSM   C11S10588   2.266   4.113   8.806  0.0271 -0.5288 -0.4700
  104OSM   H11S10589   2.274   4.220   8.834  2.3015 -0.8583  0.2632
  104OSM   H11T10590   2.198   4.102   8.719 -0.5158  2.0413 -0.4122
  104OSM   C12S10591   2.410   4.076   8.775  0.0655 -0.1658 -0.1822
  104OSM   H12S10592   2.409   3.971   8.738  1.5130 -1.1350  2.4218
  104OSM   H12T10593   2.463   4.082   8.872 -0.9588 -0.0458  0.3817
  104OSM   C13S10594   2.483   4.161   8.670 -0.0422 -0.3356 -0.2594
  104OSM   H13S10595   2.470   4.268   8.699 -2.1798 -0.6915  0.2261
  104OSM   H13T10596   2.438   4.142   8.570  1.1844  2.8425 -1.4761
  104OSM   C14S10597   2.634   4.124   8.655 -0.2729  0.7699 -0.2440
  104OSM   H14S10598   2.638   4.015   8.631 -0.8574  0.6803  0.0430
  104OSM   H14T10599   2.701   4.127   8.744 -0.1877 -1.2079 -0.2144
  104OSM   C15S10600   2.703   4.213   8.555 -0.4631 -0.0912  0.2465
  104OSM   H15S10601   2.679   4.314   8.592 -3.7969 -0.2409 -1.2597
  104OSM   H15T10602   2.652   4.194   8.457 -0.7679  0.9821  0.1995
  104OSM   C16S10603   2.857   4.195   8.552  0.7358  0.2976  0.6561
  104OSM   H16S10604   2.865   4.088   8.524 -2.5272  0.5140 -1.3510
  104OSM   H16T10605   2.901   4.215   8.652  0.7526 -0.2064  0.7510
  104OSM   C17S10606   2.922   4.287   8.449 -0.0468 -0.3462 -0.0289
  104OSM   H17S10607   2.926   4.394   8.479  0.7139 -0.5536  0.6304
  104OSM   H17T10608   2.851   4.272   8.365 -0.5767 -4.8567  1.0847
  104OSM   C18S10609   3.072   4.248   8.417 -0.1385 -0.4616  0.4181
  104OSM   H18S10610   3.125   4.231   8.513  0.4563 -2.9176 -0.3249
  104OSM   H18T10611   3.129   4.316   8.350  2.3397 -2.2120  0.7042
  104OSM   H18U10612   3.076   4.146   8.373  1.2464 -0.1020 -0.3057
  104OSM    C1F10613   2.225   4.386   9.516 -0.1123  0.5575 -0.4858
  104OSM     OF10614   2.283   4.404   9.622 -0.2653  0.1991  0.6981
  104OSM    C2F10615   2.289   4.438   9.390 -0.1360  0.0215  0.6402
  104OSM    H2F10616   2.388   4.391   9.373 -0.5366 -0.2461 -1.0947
  104OSM    H2G10617   2.295   4.548   9.406 -0.0381  0.0791  0.2292
  104OSM    C3F10618   2.204   4.428   9.254  0.0421  0.6121  0.3648
  104OSM    H3F10619   2.173   4.322   9.236 -2.5325  1.2490  0.9626
  104OSM    H3G10620   2.275   4.434   9.168 -1.9724 -1.1794 -1.4768
  104OSM    C4F10621   2.110   4.547   9.252 -0.1789  0.2295 -0.2724
  104OSM    H4F10622   2.178   4.631   9.278 -0.9966  0.8560 -0.1331
  104OSM    H4G10623   2.030   4.531   9.328  1.4945 -1.3106  1.1984
  104OSM    C5F10624   2.044   4.547   9.120 -0.0632  0.4643 -0.4012
  104OSM    H5F10625   2.131   4.566   9.052  0.2959 -0.4574 -0.2038
  104OSM    H5G10626   1.978   4.636   9.109 -0.6785 -0.1095 -1.4444
  104OSM    C6F10627   1.963   4.421   9.067 -0.3293 -0.5809  0.2982
  104OSM    H6F10628   1.884   4.396   9.141  1.0050 -1.6285  1.3994
  104OSM    H6G10629   2.023   4.328   9.075  1.9826  0.7310 -1.0295
  104OSM    C7F10630   1.906   4.450   8.932 -0.4085 -0.1640 -0.0512
  104OSM    H7F10631   1.985   4.479   8.859 -1.3743 -0.9144 -1.4352
  104OSM    H7G10632   1.836   4.535   8.940 -1.2476 -0.5422 -2.7045
  104OSM    C8F10633   1.825   4.335   8.869 -0.0945  0.5036 -0.3755
  104OSM    H8F10634   1.766   4.287   8.950 -1.1671 -0.9635 -1.9833
  104OSM    H8G10635   1.907   4.261   8.863 -0.1498  0.2516  1.5061
  104OSM    C9F10636   1.734   4.369   8.752 -0.7515  0.5368  0.3999
  104OSM    H9F10637   1.646   4.432   8.773 -0.9054  0.1388  0.9448
  104OSM   C10F10638   1.758   4.326   8.626 -0.5372 -0.3250  0.2464
  104OSM   H10F10639   1.682   4.353   8.552  1.3067  1.7424 -0.9751
  104OSM   C11F10640   1.873   4.239   8.573 -0.0199  1.2547 -0.6031
  104OSM   H11F10641   1.958   4.226   8.643  0.3042 -0.6067 -1.2956
  104OSM   H11G10642   1.911   4.282   8.478  0.5400 -0.5632 -1.2249
  104OSM   C12F10643   1.810   4.102   8.551  1.0783 -0.5575 -0.1547
  104OSM   H12F10644   1.738   4.126   8.471  1.2338 -0.3356 -0.2256
  104OSM   H12G10645   1.753   4.064   8.639  1.3663 -1.8991 -0.5343
  104OSM   C13F10646   1.911   3.994   8.511 -0.3446 -0.3578 -0.6403
  104OSM   H13F10647   1.854   3.915   8.458 -1.4272 -0.7396  1.0477
  104OSM   H13G10648   1.959   3.969   8.607 -0.5620  1.8875  0.0877
  104OSM   C14F10649   2.022   4.039   8.414 -0.4154  0.8957 -0.6931
  104OSM   H14F10650   2.100   3.960   8.416 -0.7250  0.4617  5.4870
  104OSM   H14G10651   2.082   4.130   8.436  1.2925  0.2271 -2.4622
  104OSM   C15F10652   1.957   4.055   8.273  0.7643 -0.2946  0.3199
  104OSM   H15F10653   1.884   4.139   8.281 -0.1553 -1.0647  0.0905
  104OSM   H15G10654   1.897   3.962   8.261  1.1282 -0.5355  0.3698
  104OSM   C16F10655   2.047   4.069   8.148  0.3224  0.3110 -0.1083
  104OSM   H16F10656   2.084   4.174   8.143  1.1184  0.1333  1.6701
  104OSM   H16G10657   1.981   4.053   8.061  1.7028  0.3867 -1.1956
  104OSM   C17F10658   2.166   3.980   8.139 -0.4985 -0.6358  0.0569
  104OSM   H17F10659   2.137   3.878   8.172  1.6398 -0.7879  1.5693
  104OSM   H17G10660   2.232   4.029   8.214 -0.3807  1.4606 -1.3617
  104OSM   C18F10661   2.238   3.987   8.002  0.1942 -0.1563  0.5755
  104OSM   H18F10662   2.216   4.085   7.955 -0.2931 -0.0330  1.0674
  104OSM   H18G10663   2.192   3.905   7.942 -1.4715  0.2439  1.3035
  104OSM   H18H10664   2.349   3.979   8.008  0.0869 -1.6269  0.9317
  105OSM      N10665   1.943   3.876  10.319  0.1022  0.1890 -0.5258
  105OSM    C1510666   1.895   3.755  10.378 -0.1284  0.1983 -0.2458
  105OSM   H15A10667   1.858   3.685  10.305  1.9104  0.7751 -1.8853
  105OSM   H15B10668   1.804   3.768  10.434  0.3660  0.0779  0.5984
  105OSM   H15C10669   1.974   3.702  10.430 -1.2348 -2.7235 -1.4413
  105OSM    C1410670   1.974   3.960  10.443  0.1621  0.2114 -0.3610
  105OSM   H14A10671   2.054   3.919  10.502 -2.1039 -0.3106  2.4256
  105OSM   H14B10672   1.891   3.972  10.511 -0.3719 -0.4944 -0.8821
  105OSM   H14C10673   2.003   4.061  10.415 -0.7747  0.4833 -0.3921
  105OSM    C1310674   2.064   3.854  10.236 -0.4844 -0.5642 -0.1049
  105OSM   H13A10675   2.051   3.789  10.151 -0.7506 -1.6333  0.7420
  105OSM   H13B10676   2.146   3.822  10.299 -1.7583  0.3581  2.0646
  105OSM   H13C10677   2.083   3.946  10.184 -0.6525 -2.0288 -2.8454
  105OSM    C1210678   1.834   3.939  10.236 -0.3201  0.2956  0.0004
  105OSM   H12A10679   1.852   4.045  10.236  1.7527 -0.0345 -1.5703
  105OSM   H12B10680   1.740   3.921  10.287 -1.0262 -2.6170 -2.2320
  105OSM    C1110681   1.813   3.884  10.089 -0.0215 -0.2615  0.0294
  105OSM   H11A10682   1.906   3.883  10.028 -0.2873 -1.1390 -0.3699
  105OSM   H11B10683   1.745   3.959  10.045 -0.8792 -1.2535 -0.3599
  105OSM      P10684   1.728   3.677   9.952 -0.1749 -0.0341  0.3949
  105OSM    O1310685   1.866   3.625   9.927 -0.3504  0.5439 -0.1345
  105OSM    O1410686   1.614   3.580   9.967 -0.0543 -0.2701 -0.3254
  105OSM    O1110687   1.682   3.781   9.846  0.4146 -0.0098 -0.1173
  105OSM    O1210688   1.746   3.761  10.087  0.0604 -0.0870  0.5284
  105OSM    C1S10689   1.551   3.832   9.851  1.1681  0.4494  0.4614
  105OSM    H1S10690   1.543   3.941   9.871 -1.4276 -0.1834  3.3142
  105OSM    H1T10691   1.483   3.783   9.925  0.7282 -1.6043 -1.2463
  105OSM     NF10692   1.464   3.683   9.678 -0.0414 -0.0320 -0.3783
  105OSM    HNF10693   1.534   3.627   9.635  0.8829  2.1269 -1.8280
  105OSM    C2S10694   1.492   3.821   9.702  0.6506  0.2993 -0.2567
  105OSM    H2S10695   1.400   3.882   9.691  0.5791  0.5087  1.4273
  105OSM    C3S10696   1.596   3.889   9.614  0.4183 -0.1705 -0.0418
  105OSM    H3S10697   1.696   3.844   9.630 -0.4726 -1.6953  1.4231
  105OSM     O310698   1.598   4.027   9.634 -0.2491  0.2643  0.0873
  105OSM    HO310699   1.689   4.043   9.661  0.2734  1.3911 -2.2648
  105OSM    C4S10700   1.561   3.865   9.476  0.5146  0.1418  0.5611
  105OSM    H4S10701   1.481   3.924   9.429 -0.1538 -1.4543 -0.3706
  105OSM    C5S10702   1.620   3.770   9.397 -0.9679 -0.7108 -0.2428
  105OSM    H5S10703   1.682   3.697   9.451 -2.7153 -1.6225  0.6048
  105OSM    C6S10704   1.604   3.725   9.253  0.0743  0.5212  0.2442
  105OSM    H6S10705   1.573   3.618   9.252 -0.8998  0.7852  1.0154
  105OSM    H6T10706   1.703   3.731   9.205 -0.0167  0.9540  0.1120
  105OSM    C7S10707   1.514   3.824   9.170 -0.0532  0.1882  1.3612
  105OSM    H7S10708   1.558   3.924   9.152 -1.2624  0.4022 -0.6437
  105OSM    H7T10709   1.415   3.834   9.219 -0.6604  2.6740 -0.2901
  105OSM    C8S10710   1.482   3.762   9.028  0.4567  0.5633  0.1788
  105OSM    H8S10711   1.397   3.829   9.001 -0.4382 -1.4187 -2.0456
  105OSM    H8T10712   1.431   3.664   9.039  0.7819  0.4800  1.0143
  105OSM    C9S10713   1.602   3.764   8.936  0.1605  0.4728  0.7582
  105OSM    H9S10714   1.680   3.692   8.966  0.8994  0.2594 -1.5905
  105OSM    H9T10715   1.639   3.869   8.930 -1.4562  1.0188  0.0805
  105OSM   C10S10716   1.560   3.720   8.794  0.0984  0.5103  1.0025
  105OSM   H10S10717   1.466   3.770   8.760  0.6634 -0.7088 -2.5247
  105OSM   H10T10718   1.541   3.611   8.804 -0.1062  0.5405  0.9418
  105OSM   C11S10719   1.670   3.735   8.682  0.2771  0.3584  0.4182
  105OSM   H11S10720   1.763   3.680   8.707 -0.7961 -0.4893  2.6313
  105OSM   H11T10721   1.682   3.844   8.663  0.9227  0.2977  0.4664
  105OSM   C12S10722   1.617   3.676   8.550  0.1515  0.3281 -0.0201
  105OSM   H12S10723   1.524   3.734   8.534 -0.0491 -0.2571 -1.0212
  105OSM   H12T10724   1.607   3.568   8.575  1.4155  0.0069 -0.8570
  105OSM   C13S10725   1.704   3.694   8.426  0.6290 -1.0889 -0.0001
  105OSM   H13S10726   1.804   3.688   8.475 -0.7475 -2.1281  2.7846
  105OSM   H13T10727   1.698   3.793   8.376  1.7769  0.2785  2.5064
  105OSM   C14S10728   1.680   3.576   8.339 -0.4107 -0.0855  0.4845
  105OSM   H14S10729   1.575   3.584   8.305 -0.0157  0.1240 -0.6822
  105OSM   H14T10730   1.692   3.482   8.397 -0.0042 -0.3879 -0.0857
  105OSM   C15S10731   1.767   3.571   8.214 -0.7635  0.0774 -0.1587
  105OSM   H15S10732   1.874   3.579   8.243 -0.5716  2.7853 -1.4856
  105OSM   H15T10733   1.733   3.666   8.168  2.0620  0.9113 -0.6234
  105OSM   C16S10734   1.752   3.442   8.138 -0.2209 -0.4333  0.1274
  105OSM   H16S10735   1.787   3.355   8.199 -1.1402 -0.2499  0.9347
  105OSM   H16T10736   1.822   3.457   8.054  3.1068  2.7209  3.2953
  105OSM   C17S10737   1.618   3.399   8.071  0.2078 -0.0454 -0.2530
  105OSM   H17S10738   1.579   3.490   8.021  2.2961  1.1241  0.1959
  105OSM   H17T10739   1.537   3.380   8.144  0.0717  0.9265 -0.1453
  105OSM   C18S10740   1.630   3.271   7.980  0.0438 -0.3089  0.1941
  105OSM   H18S10741   1.535   3.250   7.925  1.0484  0.8874 -2.0709
  105OSM   H18T10742   1.662   3.187   8.045  1.6477  0.8705  0.9503
  105OSM   H18U10743   1.702   3.284   7.896 -1.3906 -2.8114 -1.5048
  105OSM    C1F10744   1.373   3.628   9.756  0.0798 -0.2988  0.4245
  105OSM     OF10745   1.298   3.699   9.822 -0.1887  0.1162 -0.3176
  105OSM    C2F10746   1.353   3.479   9.762 -0.1334  0.2411 -0.0721
  105OSM    H2F10747   1.263   3.452   9.703  0.3038 -1.5685  0.0648
  105OSM    H2G10748   1.335   3.441   9.865  0.4936 -0.8223 -0.3446
  105OSM    C3F10749   1.475   3.410   9.694  0.9789 -0.6808  0.0083
  105OSM    H3F10750   1.572   3.448   9.735  1.4482 -3.5452  1.6542
  105OSM    H3G10751   1.480   3.435   9.586  3.7361 -0.7530  0.0657
  105OSM    C4F10752   1.463   3.263   9.702  0.5756 -0.3250  0.2961
  105OSM    H4F10753   1.360   3.226   9.678  0.7015 -0.9348  0.6690
  105OSM    H4G10754   1.477   3.233   9.808 -0.5676  0.7620  0.7646
  105OSM    C5F10755   1.565   3.193   9.611  0.6341 -0.5291  0.9139
  105OSM    H5F10756   1.664   3.229   9.645  0.3497 -0.3236  1.5374
  105OSM    H5G10757   1.549   3.248   9.516  0.9591  0.9041  1.6658
  105OSM    C6F10758   1.557   3.041   9.588  0.5612 -0.5953  0.0726
  105OSM    H6F10759   1.549   2.998   9.690  0.7389 -1.7426 -0.3949
  105OSM    H6G10760   1.645   2.992   9.542  0.4513  0.1803 -0.9870
  105OSM    C7F10761   1.425   3.003   9.523 -0.5395  0.6150 -0.2946
  105OSM    H7F10762   1.341   3.058   9.571 -0.5592 -0.1795  0.6008
  105OSM    H7G10763   1.407   2.898   9.553 -1.0907  1.4087  2.2632
  105OSM    C8F10764   1.413   3.029   9.370  1.1624 -0.0854  0.5787
  105OSM    H8F10765   1.512   2.996   9.330  0.2067 -0.2250 -1.7225
  105OSM    H8G10766   1.396   3.136   9.345  1.7794 -0.6508 -2.5529
  105OSM    C9F10767   1.304   2.936   9.308 -0.3881 -0.5589  0.1830
  105OSM    H9F10768   1.234   2.877   9.369 -1.8377  0.0839 -0.8112
  105OSM   C10F10769   1.288   2.930   9.174 -0.3698 -0.8010 -0.3145
  105OSM   H10F10770   1.207   2.863   9.141 -1.2510 -0.3271  0.8655
  105OSM   C11F10771   1.357   2.999   9.059  0.0586  0.1477  0.5786
  105OSM   H11F10772   1.425   2.928   9.006 -1.6164 -0.8454 -0.3058
  105OSM   H11G10773   1.422   3.080   9.096  0.1039  0.2999  0.1670
  105OSM   C12F10774   1.261   3.065   8.957  0.4034  0.3273 -0.0374
  105OSM   H12F10775   1.188   3.122   9.019  0.6499 -0.9992  1.5016
  105OSM   H12G10776   1.189   2.991   8.916 -1.6646  1.6213  1.1261
  105OSM   C13F10777   1.326   3.139   8.843 -0.4235  0.2161 -0.6722
  105OSM   H13F10778   1.402   3.067   8.807  0.4269 -0.0049  1.5134
  105OSM   H13G10779   1.392   3.214   8.892 -0.2583 -1.2126  1.3459
  105OSM   C14F10780   1.237   3.206   8.742 -0.0307 -0.7943  0.1785
  105OSM   H14F10781   1.165   3.265   8.803  0.6757  1.8769 -1.4532
  105OSM   H14G10782   1.180   3.126   8.689  1.4351 -1.5703 -0.2273
  105OSM   C15F10783   1.311   3.303   8.646  0.3800  0.4800  0.0816
  105OSM   H15F10784   1.389   3.248   8.590 -0.6338 -0.5668 -0.3206
  105OSM   H15G10785   1.364   3.381   8.706  0.5701  0.0026  0.5375
  105OSM   C16F10786   1.220   3.388   8.553  0.2066  0.3838  0.3865
  105OSM   H16F10787   1.132   3.420   8.614 -0.6496 -1.5651  0.1982
  105OSM   H16G10788   1.185   3.332   8.464 -1.1751 -1.4968  2.0738
  105OSM   C17F10789   1.277   3.525   8.498 -0.3160 -0.6438 -0.3480
  105OSM   H17F10790   1.375   3.505   8.450 -1.0196  0.5102 -2.2699
  105OSM   H17G10791   1.293   3.606   8.572  0.6924  1.1691 -2.5431
  105OSM   C18F10792   1.182   3.605   8.396  0.5917 -0.4328 -0.3423
  105OSM   H18F10793   1.231   3.692   8.347 -1.5736  0.2262 -1.4204
  105OSM   H18G10794   1.093   3.649   8.445  0.3495 -1.2651 -0.0270
  105OSM   H18H10795   1.156   3.541   8.309  0.1480 -1.3091  0.4207
  106OSM      N10796   3.073   2.186  10.149  0.2185 -0.5372  0.8343
  106OSM    C1510797   2.981   2.299  10.166 -0.0825  0.2995  0.3213
  106OSM   H15A10798   2.881   2.261  10.180 -0.5602  1.3559 -0.1100
  106OSM   H15B10799   2.987   2.374  10.088  1.8354 -0.0717  0.0932
  106OSM   H15C10800   2.999   2.352  10.258 -2.4530 -0.9999  1.5800
  106OSM    C1410801   3.212   2.239  10.127  0.5884  0.7209  0.1035
  106OSM   H14A10802   3.290   2.164  10.121 -1.3658 -1.3614 -0.0633
  106OSM   H14B10803   3.245   2.305  10.206 -0.0557  0.1841  0.8302
  106OSM   H14C10804   3.224   2.304  10.042  2.8561 -1.4626 -1.3068
  106OSM    C1310805   3.077   2.112  10.281 -0.0585 -0.6285  0.2027
  106OSM   H13A10806   2.985   2.115  10.338  0.4544 -0.9206  1.0698
  106OSM   H13B10807   3.157   2.151  10.343 -2.1058  0.3837  2.3126
  106OSM   H13C10808   3.101   2.007  10.267 -0.6429 -0.3840 -2.7531
  106OSM    C1210809   3.028   2.096  10.033  1.0156 -0.1514  0.8824
  106OSM   H12A10810   3.091   2.008  10.029  2.1303  0.6563  0.4940
  106OSM   H12B10811   3.040   2.156   9.945 -1.1464 -0.9269  0.0275
  106OSM    C1110812   2.879   2.052  10.030  0.7014  0.3921  0.5651
  106OSM   H11A10813   2.878   2.003   9.931  1.4405  1.8911 -0.1934
  106OSM   H11B10814   2.811   2.139  10.026 -0.3078 -0.3845  0.4733
  106OSM      P10815   2.895   1.820  10.163 -0.0528  0.0678  0.5555
  106OSM    O1310816   3.036   1.801  10.110 -0.0345  0.0805  0.3686
  106OSM    O1410817   2.870   1.772  10.298  1.0230 -0.4350  0.1919
  106OSM    O1110818   2.800   1.744  10.062  0.0115 -0.2451 -0.1863
  106OSM    O1210819   2.850   1.969  10.143  0.2327 -0.2221  0.2311
  106OSM    C1S10820   2.662   1.780  10.044  0.1128  0.1301 -0.1107
  106OSM    H1S10821   2.652   1.890  10.050 -0.1271  0.0382  1.3792
  106OSM    H1T10822   2.605   1.723  10.120 -0.6782  0.5485 -0.3847
  106OSM     NF10823   2.463   1.769   9.894 -0.6066 -0.2657 -0.1276
  106OSM    HNF10824   2.390   1.700   9.897 -1.2253  0.3787 -0.2213
  106OSM    C2S10825   2.608   1.733   9.901  0.2735 -0.6472  0.1540
  106OSM    H2S10826   2.659   1.811   9.839  1.4716  1.4298  3.6240
  106OSM    C3S10827   2.646   1.586   9.874 -0.4552 -0.4963  0.1599
  106OSM    H3S10828   2.574   1.518   9.926 -1.5424 -0.5900 -1.4151
  106OSM     O310829   2.779   1.540   9.908  0.1152 -0.2505  0.1993
  106OSM    HO310830   2.812   1.604   9.971  2.8338  0.2156 -1.6236
  106OSM    C4S10831   2.637   1.552   9.726  0.2588  0.1699  0.9872
  106OSM    H4S10832   2.540   1.530   9.679  1.1146 -0.1499 -0.6744
  106OSM    C5S10833   2.740   1.565   9.633  0.9795  0.6559 -0.3595
  106OSM    H5S10834   2.844   1.580   9.665  1.3948 -2.6040  0.0059
  106OSM    C6S10835   2.729   1.518   9.489 -0.1670 -0.9240  0.0993
  106OSM    H6S10836   2.835   1.506   9.458  0.4016 -1.2710  2.1094
  106OSM    H6T10837   2.686   1.600   9.428  2.3130 -0.0395 -0.5054
  106OSM    C7S10838   2.639   1.396   9.463  0.3626  1.2802  0.5184
  106OSM    H7S10839   2.543   1.416   9.515 -0.8025  0.9612 -1.4593
  106OSM    H7T10840   2.677   1.301   9.505 -0.0975  0.0684 -1.6984
  106OSM    C8S10841   2.594   1.360   9.320  0.2442 -0.2661 -0.0171
  106OSM    H8S10842   2.558   1.453   9.271 -0.9541 -1.8280 -2.1869
  106OSM    H8T10843   2.521   1.277   9.312  1.2074 -1.1677  0.4191
  106OSM    C9S10844   2.709   1.320   9.235  0.4087 -0.7035  0.5949
  106OSM    H9S10845   2.753   1.227   9.275  0.5339 -1.6426 -1.6299
  106OSM    H9T10846   2.779   1.406   9.246  1.0272 -1.0605 -0.4191
  106OSM   C10S10847   2.682   1.316   9.086 -0.3375 -0.0128  1.2872
  106OSM   H10S10848   2.619   1.403   9.057  0.8335  0.4073 -0.0714
  106OSM   H10T10849   2.616   1.230   9.064 -0.1389  0.5071 -1.6431
  106OSM   C11S10850   2.801   1.306   8.996 -0.1257  0.5035 -0.2507
  106OSM   H11S10851   2.847   1.206   9.003 -0.8391  0.2050  0.1976
  106OSM   H11T10852   2.875   1.379   9.034 -0.7410  1.8853 -1.6563
  106OSM   C12S10853   2.749   1.348   8.847 -0.5286 -0.0924 -0.4665
  106OSM   H12S10854   2.695   1.443   8.865 -4.0309 -2.6440  3.5091
  106OSM   H12T10855   2.679   1.266   8.821  0.6913 -0.9804 -1.0194
  106OSM   C13S10856   2.854   1.347   8.728 -0.4199 -0.1871  0.4839
  106OSM   H13S10857   2.913   1.253   8.719  0.3972  0.3953 -0.3027
  106OSM   H13T10858   2.922   1.434   8.742 -1.6784  0.9400 -0.3547
  106OSM   C14S10859   2.775   1.376   8.592  0.5158 -0.8146  0.3296
  106OSM   H14S10860   2.838   1.445   8.532 -1.2643 -1.0692 -1.9026
  106OSM   H14T10861   2.687   1.434   8.628 -0.2663 -2.5486  1.2524
  106OSM   C15S10862   2.743   1.256   8.506 -0.5341  0.4866  0.5676
  106OSM   H15S10863   2.701   1.167   8.556  1.1147 -1.0126 -0.6170
  106OSM   H15T10864   2.838   1.215   8.465 -1.4473  0.3443 -1.5089
  106OSM   C16S10865   2.645   1.300   8.389 -0.6140  0.3718  0.0473
  106OSM   H16S10866   2.558   1.352   8.434 -1.2424 -2.8448  2.7433
  106OSM   H16T10867   2.600   1.214   8.334 -1.3075 -0.1408  1.3986
  106OSM   C17S10868   2.709   1.385   8.284 -0.7597 -0.3079 -0.1924
  106OSM   H17S10869   2.801   1.333   8.252 -0.7502 -0.0828 -0.5402
  106OSM   H17T10870   2.745   1.483   8.322  0.9780 -0.7157 -0.7565
  106OSM   C18S10871   2.619   1.423   8.166  0.2488  0.2165  0.0341
  106OSM   H18S10872   2.570   1.332   8.125  2.6257 -1.6185  1.1279
  106OSM   H18T10873   2.683   1.474   8.090 -1.0671  0.5555 -0.8669
  106OSM   H18U10874   2.540   1.494   8.199 -0.1084 -1.3202  2.6172
  106OSM    C1F10875   2.428   1.897   9.895  0.4592 -0.2784  0.3775
  106OSM     OF10876   2.514   1.985   9.908 -0.3559  0.3463 -0.0928
  106OSM    C2F10877   2.286   1.927   9.882  0.2890 -0.1642  0.7544
  106OSM    H2F10878   2.262   1.992   9.968 -0.4984  0.5389  0.0194
  106OSM    H2G10879   2.220   1.837   9.880  0.7137 -0.5526  3.2486
  106OSM    C3F10880   2.252   2.020   9.754  0.9045  0.5116  0.4344
  106OSM    H3F10881   2.280   2.126   9.769 -0.1464  0.7194  0.9254
  106OSM    H3G10882   2.142   2.019   9.739  0.8660  1.2312  0.6752
  106OSM    C4F10883   2.309   1.964   9.620 -0.3698  0.5677 -0.1839
  106OSM    H4F10884   2.277   1.858   9.610  1.8481 -0.2503  1.0824
  106OSM    H4G10885   2.419   1.973   9.630 -0.3314  0.4232 -0.4522
  106OSM    C5F10886   2.271   2.058   9.501  0.1208 -0.2558  0.1408
  106OSM    H5F10887   2.313   2.158   9.526 -2.2686  0.7527  0.2365
  106OSM    H5G10888   2.162   2.074   9.497 -0.0450 -0.4923  2.8130
  106OSM    C6F10889   2.309   2.020   9.359 -0.4120  0.8090  0.0239
  106OSM    H6F10890   2.223   1.958   9.325  1.1460 -1.8279  0.8149
  106OSM    H6G10891   2.399   1.956   9.357  0.8154  2.4880  0.6486
  106OSM    C7F10892   2.331   2.134   9.261  0.2194  0.2396  0.0536
  106OSM    H7F10893   2.396   2.211   9.307 -1.1143 -0.1245  2.6382
  106OSM    H7G10894   2.234   2.188   9.250  0.0227 -0.3131 -1.0572
  106OSM    C8F10895   2.370   2.097   9.114 -0.0829 -0.2889  0.6596
  106OSM    H8F10896   2.476   2.064   9.118 -0.1190 -0.3817  0.8267
  106OSM    H8G10897   2.367   2.189   9.050  0.1465 -0.0348  1.0099
  106OSM    C9F10898   2.288   1.990   9.057  0.4992  0.0717 -0.3811
  106OSM    H9F10899   2.185   2.011   9.025  0.3439  0.7778  0.5543
  106OSM   C10F10900   2.333   1.868   9.024 -0.1521  0.6721 -0.7605
  106OSM   H10F10901   2.273   1.793   8.970 -0.9173  0.7906 -0.0735
  106OSM   C11F10902   2.477   1.819   9.041  0.5759  0.0912  0.3764
  106OSM   H11F10903   2.476   1.710   9.062  0.8746 -0.4868 -2.4522
  106OSM   H11G10904   2.517   1.868   9.133  0.3993  0.8070  0.0764
  106OSM   C12F10905   2.577   1.853   8.928  0.8146 -0.3473 -0.6509
  106OSM   H12F10906   2.576   1.958   8.894 -1.1423 -0.7975 -2.0806
  106OSM   H12G10907   2.549   1.795   8.837  2.7896  1.0495 -2.1796
  106OSM   C13F10908   2.717   1.801   8.956 -0.1395 -0.3303 -0.5483
  106OSM   H13F10909   2.727   1.690   8.959 -0.5029 -0.4353 -2.5968
  106OSM   H13G10910   2.753   1.844   9.052 -0.0124  0.3981 -0.9213
  106OSM   C14F10911   2.813   1.846   8.842 -0.2213  0.1458 -0.0035
  106OSM   H14F10912   2.916   1.853   8.881 -0.5228  1.9338  0.5337
  106OSM   H14G10913   2.787   1.946   8.801 -0.8474 -0.3693 -0.8881
  106OSM   C15F10914   2.820   1.737   8.730  0.0104  0.9083 -0.0083
  106OSM   H15F10915   2.715   1.716   8.700 -0.0931  0.7273  0.4741
  106OSM   H15G10916   2.861   1.649   8.783  0.0168  2.1100  2.0334
  106OSM   C16F10917   2.908   1.782   8.612 -1.4506  0.0453 -0.0660
  106OSM   H16F10918   2.900   1.705   8.533 -1.7670  0.2148 -0.2017
  106OSM   H16G10919   3.010   1.785   8.655 -0.8619 -1.0905 -1.3571
  106OSM   C17F10920   2.882   1.926   8.552 -0.7081  0.4908  0.5494
  106OSM   H17F10921   2.884   2.006   8.629  0.4906  0.9309  0.0674
  106OSM   H17G10922   2.778   1.923   8.515 -0.9134 -0.3504  1.1589
  106OSM   C18F10923   2.973   1.969   8.436  0.7348 -0.6846 -0.2742
  106OSM   H18F10924   2.963   2.079   8.419 -0.0012 -0.7131 -0.0466
  106OSM   H18G10925   2.931   1.924   8.344  1.4224 -0.4359 -0.7085
  106OSM   H18H10926   3.080   1.952   8.461  0.2627  1.2819  3.5113
  107OSM      N10927   3.398   6.245  10.047 -0.3401 -0.5747  0.2680
  107OSM    C1510928   3.389   6.272   9.894  0.2934 -0.7024  0.3687
  107OSM   H15A10929   3.445   6.364   9.884 -1.7284  0.4248 -1.2624
  107OSM   H15B10930   3.286   6.284   9.862  1.5906  0.1253 -3.8349
  107OSM   H15C10931   3.433   6.186   9.845 -0.9297 -0.9166 -0.3755
  107OSM    C1410932   3.385   6.375  10.118 -0.1021  0.5348 -0.4881
  107OSM   H14A10933   3.286   6.414  10.101 -0.7111 -1.2092 -1.0824
  107OSM   H14B10934   3.461   6.445  10.086  1.1151  1.0388  3.2928
  107OSM   H14C10935   3.394   6.357  10.224 -0.8192  2.1674 -0.1381
  107OSM    C1310936   3.294   6.140  10.077 -0.6838  0.1140  0.1919
  107OSM   H13A10937   3.314   6.046  10.028 -0.1055  0.2985  0.0726
  107OSM   H13B10938   3.198   6.172  10.040 -0.6069 -0.5763 -0.6165
  107OSM   H13C10939   3.294   6.114  10.182  0.3152  2.2743  0.7563
  107OSM    C1210940   3.540   6.194  10.074  0.0238 -0.3409  0.2260
  107OSM   H12A10941   3.608   6.262  10.026 -0.9856  0.6465  0.1788
  107OSM   H12B10942   3.544   6.102  10.018 -0.6667  0.6385 -1.4622
  107OSM    C1110943   3.588   6.171  10.219  0.2350  0.1317  0.1821
  107OSM   H11A10944   3.602   6.269  10.269 -0.1777  0.6247 -0.6677
  107OSM   H11B10945   3.689   6.123  10.217 -1.2561 -3.0898 -1.3820
  107OSM      P10946   3.534   5.981  10.370 -0.2280 -0.0428  0.3186
  107OSM    O1310947   3.636   6.025  10.464  0.4403 -0.0961  1.0606
  107OSM    O1410948   3.417   5.915  10.427 -0.2206  0.0708  0.4468
  107OSM    O1110949   3.598   5.888  10.262  0.4663 -0.5719  0.5246
  107OSM    O1210950   3.487   6.093  10.282 -0.1346  0.2661 -0.0833
  107OSM    C1S10951   3.534   5.843  10.144 -0.0161  0.1114  0.4040
  107OSM    H1S10952   3.474   5.924  10.099  0.5939  0.7879  0.7937
  107OSM    H1T10953   3.467   5.756  10.158  1.5446 -0.8833  1.9992
  107OSM     NF10954   3.582   5.767   9.908  0.1292  0.0926  0.1312
  107OSM    HNF10955   3.605   5.675   9.875 -0.6293  0.0272 -0.2335
  107OSM    C2S10956   3.641   5.812  10.032  0.1023  0.2474 -0.6940
  107OSM    H2S10957   3.699   5.906  10.019  1.2838 -0.0859  1.9932
  107OSM    C3S10958   3.741   5.707  10.083 -0.2601  0.1153  0.7920
  107OSM    H3S10959   3.694   5.607  10.095  0.1306 -0.4174 -1.7211
  107OSM     O310960   3.800   5.747  10.210 -0.2522  0.4702 -0.7449
  107OSM    HO310961   3.724   5.795  10.243  1.0569  0.9852  1.6163
  107OSM    C4S10962   3.855   5.685   9.982 -0.9595 -0.4875  0.1182
  107OSM    H4S10963   3.835   5.595   9.923 -0.9520  0.6089 -1.5827
  107OSM    C5S10964   3.967   5.765   9.956 -0.4298 -0.0104 -0.2541
  107OSM    H5S10965   3.973   5.857  10.017 -0.8729 -1.3935  1.9565
  107OSM    C6S10966   4.076   5.746   9.861 -0.0283 -0.7171  0.0494
  107OSM    H6S10967   4.169   5.716   9.914  1.1784 -0.6058 -1.9859
  107OSM    H6T10968   4.092   5.845   9.814 -0.3866 -1.6473 -2.0613
  107OSM    C7S10969   4.047   5.651   9.743  0.4598  0.0318  0.5147
  107OSM    H7S10970   4.025   5.551   9.786  0.4863 -0.7673 -1.2664
  107OSM    H7T10971   4.148   5.656   9.696  0.7696  4.6754  1.4427
  107OSM    C8S10972   3.943   5.703   9.640 -0.0721  0.5209  0.4405
  107OSM    H8S10973   3.929   5.813   9.643 -0.4337  0.5614 -1.7841
  107OSM    H8T10974   3.847   5.662   9.677  0.3529 -0.2702  0.6844
  107OSM    C9S10975   3.984   5.666   9.503  0.1986  0.0721 -0.3698
  107OSM    H9S10976   4.054   5.579   9.498 -0.4402 -0.4595 -0.2067
  107OSM    H9T10977   4.036   5.757   9.466 -2.2029  1.6478  0.0429
  107OSM   C10S10978   3.858   5.621   9.424  0.0644  0.4048  0.1446
  107OSM   H10S10979   3.770   5.687   9.438 -0.2764 -0.4354  2.0257
  107OSM   H10T10980   3.826   5.519   9.453 -3.1226  0.8952 -1.4782
  107OSM   C11S10981   3.892   5.634   9.277 -0.4676 -0.4757 -0.0985
  107OSM   H11S10982   3.969   5.556   9.259 -1.1415 -1.3602  0.7946
  107OSM   H11T10983   3.925   5.738   9.256  2.1217 -1.0636  0.8347
  107OSM   C12S10984   3.781   5.603   9.184 -0.1104  0.0957 -0.2020
  107OSM   H12S10985   3.703   5.680   9.200 -0.6623 -0.8808  1.9353
  107OSM   H12T10986   3.729   5.508   9.207  1.0143 -0.2210  1.1137
  107OSM   C13S10987   3.826   5.591   9.034  0.6220  0.3760  0.2177
  107OSM   H13S10988   3.910   5.519   9.033  0.8361  0.6065 -1.6946
  107OSM   H13T10989   3.869   5.691   9.010  1.5538  0.6478  2.8356
  107OSM   C14S10990   3.712   5.547   8.931  0.1416 -0.5161  0.3214
  107OSM   H14S10991   3.626   5.617   8.940 -0.2738 -0.6340 -2.2292
  107OSM   H14T10992   3.655   5.462   8.973 -0.2708 -0.5743 -0.3463
  107OSM   C15S10993   3.763   5.541   8.787 -0.3669 -0.1958  0.5821
  107OSM   H15S10994   3.836   5.457   8.790 -0.2151 -0.1713 -1.8012
  107OSM   H15T10995   3.805   5.643   8.776  0.3296 -0.1582  3.2215
  107OSM   C16S10996   3.661   5.497   8.684  0.6418  0.6937  0.4066
  107OSM   H16S10997   3.572   5.563   8.694 -0.6014 -0.7029 -1.2622
  107OSM   H16T10998   3.616   5.402   8.719 -0.6800  1.4151  0.7113
  107OSM   C17S10999   3.729   5.490   8.543  0.6908  0.6520  0.0136
  107OSM   H17S11000   3.810   5.416   8.561 -0.4716 -0.6073  0.1248
  107OSM   H17T11001   3.781   5.587   8.523  3.0594 -1.1707 -3.1325
  107OSM   C18S11002   3.652   5.445   8.418  0.2182  0.7818  0.0198
  107OSM   H18S11003   3.575   5.524   8.406  1.1241  1.8675  1.2031
  107OSM   H18T11004   3.596   5.351   8.434 -1.9366  2.0717  0.1729
  107OSM   H18U11005   3.717   5.438   8.327  0.5922  1.6269  0.2190
  107OSM    C1F11006   3.505   5.848   9.835 -0.0521 -0.0718 -0.2334
  107OSM     OF11007   3.502   5.970   9.859  0.3731  0.2941 -0.0276
  107OSM    C2F11008   3.428   5.791   9.725 -0.3825 -0.6722  0.1969
  107OSM    H2F11009   3.358   5.871   9.693  0.0066 -0.2536  0.3918
  107OSM    H2G11010   3.376   5.701   9.767  0.1953 -0.2592  1.8529
  107OSM    C3F11011   3.514   5.733   9.619  1.1900 -0.3175 -0.1621
  107OSM    H3F11012   3.574   5.652   9.665  0.5346 -0.5094  0.3514
  107OSM    H3G11013   3.586   5.802   9.568 -0.0788 -1.1743 -3.2274
  107OSM    C4F11014   3.419   5.666   9.520 -0.6021 -0.1270 -0.1863
  107OSM    H4F11015   3.338   5.736   9.490  1.7405  0.6506 -5.2889
  107OSM    H4G11016   3.380   5.571   9.561 -0.0667 -0.4648 -0.4532
  107OSM    C5F11017   3.491   5.614   9.392  0.4323 -0.1883  0.0849
  107OSM    H5F11018   3.569   5.542   9.426  0.4004 -1.5570 -2.5739
  107OSM    H5G11019   3.545   5.697   9.342  1.9749  0.3216  2.5014
  107OSM    C6F11020   3.392   5.548   9.291 -0.3770 -0.0134  0.2506
  107OSM    H6F11021   3.312   5.488   9.340  0.8260 -0.7743  1.3027
  107OSM    H6G11022   3.457   5.476   9.237  1.3662  0.3982  1.7704
  107OSM    C7F11023   3.336   5.650   9.186 -0.2120 -0.2784 -0.2323
  107OSM    H7F11024   3.426   5.711   9.160 -0.8083  1.0706  0.7870
  107OSM    H7G11025   3.256   5.709   9.235  0.6885 -1.1392  2.3669
  107OSM    C8F11026   3.283   5.577   9.057  0.4190 -1.2652  0.0754
  107OSM    H8F11027   3.185   5.539   9.092 -0.0773  1.4427  1.7525
  107OSM    H8G11028   3.354   5.500   9.021  1.0043 -0.1597 -1.2058
  107OSM    C9F11029   3.265   5.669   8.938  0.0768 -0.3470  0.5808
  107OSM    H9F11030   3.238   5.770   8.974  1.0893  0.6860 -1.4246
  107OSM   C10F11031   3.258   5.643   8.804 -0.1377 -0.8367 -0.1682
  107OSM   H10F11032   3.270   5.727   8.734  0.1420  0.3560  1.2776
  107OSM   C11F11033   3.266   5.504   8.749  0.2929 -0.7566  0.2409
  107OSM   H11F11034   3.226   5.441   8.831 -0.7830 -1.0505 -0.4846
  107OSM   H11G11035   3.369   5.480   8.716  0.3824  0.6976 -0.5824
  107OSM   C12F11036   3.170   5.494   8.630 -0.6574  0.3059 -0.2903
  107OSM   H12F11037   3.066   5.530   8.638 -0.0044  2.3039 -0.4913
  107OSM   H12G11038   3.161   5.384   8.619 -0.3378  0.5926 -4.1073
  107OSM   C13F11039   3.222   5.553   8.504  0.0345 -0.7592  0.4961
  107OSM   H13F11040   3.318   5.501   8.480  0.2417  0.1079 -0.5985
  107OSM   H13G11041   3.248   5.660   8.514 -1.7102  0.3349 -4.9838
  107OSM   C14F11042   3.125   5.526   8.382  0.4614  0.2108  0.1373
  107OSM   H14F11043   3.134   5.613   8.314  1.0066  0.4066  0.4528
  107OSM   H14G11044   3.024   5.518   8.427  0.0558 -0.3150 -0.8688
  107OSM   C15F11045   3.145   5.407   8.292  0.2530 -0.5736  0.0027
  107OSM   H15F11046   3.046   5.370   8.257 -0.9523  1.4640  1.1271
  107OSM   H15G11047   3.180   5.323   8.356  0.3296 -0.6903 -0.1927
  107OSM   C16F11048   3.257   5.418   8.183 -0.3025 -0.1295 -0.0070
  107OSM   H16F11049   3.351   5.392   8.238 -0.5020  3.2959  2.0752
  107OSM   H16G11050   3.255   5.522   8.145  0.4305  0.4380  1.4646
  107OSM   C17F11051   3.228   5.312   8.069  0.1239 -0.1026  0.8843
  107OSM   H17F11052   3.216   5.212   8.116 -1.0377 -0.3988 -0.0204
  107OSM   H17G11053   3.320   5.308   8.006 -1.4209 -1.7924 -1.3567
  107OSM   C18F11054   3.112   5.335   7.969 -0.4852  0.5468  0.5984
  107OSM   H18F11055   3.096   5.445   7.971  0.5628  0.7101  0.2547
  107OSM   H18G11056   3.017   5.285   7.997  0.6843 -0.4225  2.9504
  107OSM   H18H11057   3.137   5.285   7.873 -1.0181  1.2477  0.0867
  108OSM      N11058   1.346   3.223  10.462  0.6652  0.0736  0.4142
  108OSM    C1511059   1.267   3.162  10.572 -0.1324  0.4639 -0.4689
  108OSM   H15A11060   1.239   3.233  10.649 -0.8079 -0.0290 -0.2471
  108OSM   H15B11061   1.316   3.090  10.636  0.4526  0.1175 -1.3081
  108OSM   H15C11062   1.176   3.112  10.540 -0.8067  1.0445  0.4950
  108OSM    C1411063   1.287   3.348  10.409 -0.6579 -0.1471 -0.1016
  108OSM   H14A11064   1.345   3.398  10.333  0.0616 -1.0051 -0.1280
  108OSM   H14B11065   1.262   3.421  10.485 -0.0774  1.6044 -1.5524
  108OSM   H14C11066   1.203   3.304  10.357  0.3623 -3.3266  0.8175
  108OSM    C1311067   1.475   3.255  10.530 -0.3934  0.1780 -0.5430
  108OSM   H13A11068   1.464   3.319  10.617  0.1857 -0.6383  0.1294
  108OSM   H13B11069   1.545   3.311  10.470  0.5641  1.1339  1.4056
  108OSM   H13C11070   1.530   3.164  10.545  2.1112  1.8655  0.8183
  108OSM    C1211071   1.371   3.124  10.347  0.1758 -0.7432 -0.1027
  108OSM   H12A11072   1.440   3.047  10.381  2.2011  0.8178 -0.5501
  108OSM   H12B11073   1.431   3.168  10.268 -0.9743 -0.8973 -1.0724
  108OSM    C1111074   1.236   3.055  10.286  0.0335 -0.2783 -0.6554
  108OSM   H11A11075   1.170   3.017  10.367 -0.7874  1.1955 -0.6301
  108OSM   H11B11076   1.277   2.975  10.220  0.0340  1.2610 -2.5596
  108OSM      P11077   1.213   3.193  10.062 -0.4829 -0.0523  0.3511
  108OSM    O1311078   1.124   3.296   9.998 -0.2593  0.0693 -0.0991
  108OSM    O1411079   1.352   3.235  10.069 -0.1795 -0.0821 -0.4200
  108OSM    O1111080   1.204   3.057   9.977 -0.0218  0.6321  0.1361
  108OSM    O1211081   1.170   3.154  10.212  0.2437 -0.2338  0.3610
  108OSM    C1S11082   1.086   3.036   9.903  0.4149  0.8324 -0.6598
  108OSM    H1S11083   1.075   3.110   9.822  0.3588  0.5558 -0.9060
  108OSM    H1T11084   1.002   3.042   9.976  1.2343 -3.6061  0.8117
  108OSM     NF11085   0.987   2.893   9.737  0.1194 -0.5376  0.2752
  108OSM    HNF11086   0.901   2.866   9.779  0.2085  1.2554  1.6616
  108OSM    C2S11087   1.089   2.893   9.837 -0.2523  0.2427  0.0906
  108OSM    H2S11088   1.182   2.875   9.778  0.7247  0.9830  1.3747
  108OSM    C3S11089   1.071   2.781   9.945 -0.0117  0.1162 -0.7580
  108OSM    H3S11090   0.972   2.795   9.993  0.1336  0.3474 -0.5244
  108OSM     O311091   1.173   2.794  10.041  0.3440  0.2613  0.3408
  108OSM    HO311092   1.177   2.890  10.035  1.2483  0.1568 -0.7507
  108OSM    C4S11093   1.082   2.642   9.879 -0.1672 -0.3718  0.4932
  108OSM    H4S11094   1.182   2.613   9.846 -0.0862  1.3031 -0.8029
  108OSM    C5S11095   0.986   2.545   9.878 -0.4768  0.6730 -0.3946
  108OSM    H5S11096   0.893   2.560   9.935  0.9478 -0.4947  2.3389
  108OSM    C6S11097   1.013   2.415   9.814 -0.2155 -0.5232  0.1664
  108OSM    H6S11098   0.921   2.374   9.767  1.0851 -0.6357 -2.3747
  108OSM    H6T11099   1.049   2.327   9.873 -0.4159  0.0217  1.1123
  108OSM    C7S11100   1.104   2.431   9.686 -0.4929 -0.0468  0.8917
  108OSM    H7S11101   1.194   2.493   9.705 -0.9476  0.2207  2.2190
  108OSM    H7T11102   1.041   2.481   9.610 -2.4979 -2.0225  1.2019
  108OSM    C8S11103   1.146   2.302   9.622 -0.4374 -1.1752  0.1055
  108OSM    H8S11104   1.057   2.246   9.588 -1.2401 -1.4529  2.5221
  108OSM    H8T11105   1.189   2.238   9.702 -0.9528  2.2062  3.2191
  108OSM    C9S11106   1.255   2.311   9.520 -0.6124 -0.5966  0.0135
  108OSM    H9S11107   1.268   2.214   9.468  2.9903  0.3356 -0.9526
  108OSM    H9T11108   1.346   2.327   9.581 -0.5438  0.4401 -0.3383
  108OSM   C10S11109   1.242   2.420   9.414 -0.1524 -0.1112  0.2033
  108OSM   H10S11110   1.271   2.522   9.448  0.0222  0.7469 -2.3962
  108OSM   H10T11111   1.137   2.428   9.377  0.2274 -0.5401 -0.9978
  108OSM   C11S11112   1.332   2.394   9.294 -0.2488  0.2307  0.0222
  108OSM   H11S11113   1.290   2.303   9.246  1.3983 -0.0188 -0.9933
  108OSM   H11T11114   1.436   2.372   9.327 -0.3930  1.2574  1.1731
  108OSM   C12S11115   1.332   2.496   9.181  0.8456  0.7375 -0.1499
  108OSM   H12S11116   1.349   2.599   9.218  2.2984  0.0582  1.1310
  108OSM   H12T11117   1.231   2.487   9.136  0.5993  1.3501  0.2750
  108OSM   C13S11118   1.435   2.462   9.069 -0.0863 -0.5397 -1.0188
  108OSM   H13S11119   1.433   2.352   9.050  1.1485 -0.8683  0.5667
  108OSM   H13T11120   1.533   2.497   9.107  0.1687 -2.2517 -0.0322
  108OSM   C14S11121   1.396   2.533   8.943  0.1772 -0.2080 -0.2161
  108OSM   H14S11122   1.291   2.567   8.960 -0.1166 -0.4302 -1.4982
  108OSM   H14T11123   1.393   2.464   8.856  2.4447  0.1900 -0.6527
  108OSM   C15S11124   1.499   2.647   8.904  0.5085  0.3092 -0.5880
  108OSM   H15S11125   1.531   2.696   8.998  1.1835 -0.4015 -0.4392
  108OSM   H15T11126   1.441   2.725   8.851  0.0681 -0.4157 -1.1954
  108OSM   C16S11127   1.618   2.603   8.826  0.1261  0.2396  0.5794
  108OSM   H16S11128   1.579   2.556   8.733 -0.2186 -0.2230  0.9591
  108OSM   H16T11129   1.671   2.521   8.878  1.3759 -0.1555 -1.2752
  108OSM   C17S11130   1.711   2.715   8.792 -0.5568  0.2341 -0.2648
  108OSM   H17S11131   1.727   2.762   8.891 -1.6435 -0.0402  0.0542
  108OSM   H17T11132   1.669   2.793   8.726 -1.8278  0.2842  0.5864
  108OSM   C18S11133   1.849   2.661   8.739  0.0065 -0.7430  0.3383
  108OSM   H18S11134   1.908   2.632   8.828 -1.6349 -1.3764  1.2396
  108OSM   H18T11135   1.909   2.736   8.683 -0.2454  0.2179  1.3579
  108OSM   H18U11136   1.834   2.573   8.673 -0.2642 -0.8735  0.5763
  108OSM    C1F11137   0.997   2.961   9.620 -1.0149 -0.6962  0.4757
  108OSM     OF11138   1.105   3.014   9.586 -0.4123 -0.2529 -0.0154
  108OSM    C2F11139   0.875   2.967   9.533 -0.3671 -0.6073 -0.0567
  108OSM    H2F11140   0.839   3.072   9.536  0.0985 -0.4730  1.1472
  108OSM    H2G11141   0.795   2.902   9.577 -0.5228  0.2686  0.9855
  108OSM    C3F11142   0.904   2.923   9.389  0.1523 -0.5151 -0.1790
  108OSM    H3F11143   0.934   2.819   9.412 -1.3740 -0.6776  1.2349
  108OSM    H3G11144   0.988   2.984   9.349 -0.5550  0.0665 -0.7900
  108OSM    C4F11145   0.789   2.921   9.292 -0.2588 -0.1050  0.2470
  108OSM    H4F11146   0.752   3.021   9.264 -1.1525  0.3298  2.8691
  108OSM    H4G11147   0.710   2.856   9.336  1.6180 -1.2135  2.0747
  108OSM    C5F11148   0.845   2.862   9.160  0.5519 -0.1766 -0.1293
  108OSM    H5F11149   0.938   2.916   9.131  0.5878 -1.1816 -1.9330
  108OSM    H5G11150   0.769   2.881   9.082 -0.2766  0.3835  0.8136
  108OSM    C6F11151   0.874   2.717   9.176 -0.2375  0.9387 -0.2837
  108OSM    H6F11152   0.806   2.676   9.254  1.3592 -2.9251 -0.7795
  108OSM    H6G11153   0.980   2.699   9.204 -0.8157 -2.3538  0.0162
  108OSM    C7F11154   0.855   2.629   9.048 -0.0718 -0.4936  0.1175
  108OSM    H7F11155   0.751   2.629   9.010 -0.3516 -1.3912  0.8542
  108OSM    H7G11156   0.878   2.521   9.062  0.1135 -0.5302 -0.4902
  108OSM    C8F11157   0.944   2.666   8.925  0.1374  0.4367  0.0454
  108OSM    H8F11158   1.052   2.675   8.948 -0.2013 -0.2483  2.0072
  108OSM    H8G11159   0.910   2.767   8.895 -5.1549 -1.6751 -1.8241
  108OSM    C9F11160   0.942   2.577   8.806  0.0505 -0.2055 -1.2220
  108OSM    H9F11161   0.922   2.472   8.831 -0.9390  1.1671  4.4277
  108OSM   C10F11162   0.968   2.610   8.679  0.6800  0.7334 -0.4036
  108OSM   H10F11163   0.968   2.527   8.607 -0.7052  1.1327 -0.8712
  108OSM   C11F11164   1.006   2.742   8.622  0.8484  0.0621 -0.3670
  108OSM   H11F11165   0.947   2.815   8.681  0.8192  0.6855 -1.1472
  108OSM   H11G11166   0.967   2.750   8.518 -0.9800 -3.7070 -0.0493
  108OSM   C12F11167   1.158   2.769   8.641 -0.7371 -0.2787 -0.1654
  108OSM   H12F11168   1.188   2.714   8.733  0.8482  0.9293  0.0549
  108OSM   H12G11169   1.174   2.876   8.666 -2.0978 -0.0123 -0.4001
  108OSM   C13F11170   1.251   2.732   8.522  0.0275  0.3835  0.2589
  108OSM   H13F11171   1.215   2.634   8.484 -1.0013  0.3101  1.3737
  108OSM   H13G11172   1.354   2.715   8.561 -0.9815 -0.4902  2.6421
  108OSM   C14F11173   1.246   2.831   8.410  0.0466  0.6992 -0.1161
  108OSM   H14F11174   1.145   2.866   8.381  0.2964  1.4593 -0.0907
  108OSM   H14G11175   1.286   2.778   8.322 -1.0594  1.7524 -1.2683
  108OSM   C15F11176   1.329   2.964   8.425 -0.0726  0.3774 -0.2799
  108OSM   H15F11177   1.320   3.002   8.529  0.6611 -2.7151  0.9612
  108OSM   H15G11178   1.274   3.040   8.365 -2.8826  0.2995  2.0863
  108OSM   C16F11179   1.481   2.943   8.389 -0.1425  0.0301  0.3615
  108OSM   H16F11180   1.523   2.856   8.445  0.9458  0.0337 -0.4455
  108OSM   H16G11181   1.540   3.031   8.423  2.1854 -0.7751 -1.4910
  108OSM   C17F11182   1.521   2.940   8.237 -0.1063  0.3373 -0.2268
  108OSM   H17F11183   1.506   3.038   8.186  0.3007 -0.1418 -1.2718
  108OSM   H17G11184   1.448   2.878   8.181  0.9961  1.1527 -2.6322
  108OSM   C18F11185   1.662   2.884   8.224  0.6534 -0.4924  0.4327
  108OSM   H18F11186   1.677   2.788   8.278 -1.0925 -0.9709  0.1011
  108OSM   H18G11187   1.727   2.967   8.259  0.4551 -0.0884 -0.1457
  108OSM   H18H11188   1.696   2.868   8.119  1.0315  2.0628  0.1242
  109OSM      N11189   0.980   3.875   9.986 -0.5310 -0.3734  0.2471
  109OSM    C1511190   0.940   3.996   9.906 -0.7737  0.6898  0.1544
  109OSM   H15A11191   0.833   4.013   9.914 -0.9986 -0.9175  0.6265
  109OSM   H15B11192   0.970   3.989   9.802 -2.2705 -2.3262 -0.1376
  109OSM   H15C11193   0.977   4.086   9.953  1.1236 -0.6111  1.1750
  109OSM    C1411194   0.896   3.859  10.108 -0.5920  0.4632  0.4726
  109OSM   H14A11195   0.916   3.951  10.161 -0.2597  0.8055 -0.2318
  109OSM   H14B11196   0.929   3.777  10.170 -0.0110  0.6808  0.4602
  109OSM   H14C11197   0.792   3.860  10.080 -0.4521  0.9226 -0.0660
  109OSM    C1311198   0.941   3.758   9.897 -0.2118 -0.1705 -0.4306
  109OSM   H13A11199   0.834   3.746   9.910 -0.1963  0.6397  0.5966
  109OSM   H13B11200   0.978   3.664   9.933 -0.3205 -0.2562 -0.5433
  109OSM   H13C11201   0.970   3.764   9.793  0.3058  0.2330 -0.2662
  109OSM    C1211202   1.132   3.877  10.014  0.0928 -0.2654 -0.0143
  109OSM   H12A11203   1.182   3.906   9.922  1.2431 -0.4400  0.5469
  109OSM   H12B11204   1.161   3.773  10.023 -1.6015 -0.9871 -2.2863
  109OSM    C1111205   1.188   3.962  10.124 -0.2858  0.2883 -0.0962
  109OSM   H11A11206   1.297   3.940  10.124 -0.4671 -0.6714  0.1670
  109OSM   H11B11207   1.155   3.937  10.227 -0.7606 -1.6588 -0.6947
  109OSM      P11208   1.266   4.217  10.109  0.0329  0.1274  0.0703
  109OSM    O1311209   1.184   4.343  10.100 -0.4835  0.1312  0.3294
  109OSM    O1411210   1.352   4.205  10.230  0.4618  0.0205 -0.1182
  109OSM    O1111211   1.343   4.199   9.979  0.1839 -0.2216 -0.6158
  109OSM    O1211212   1.158   4.098  10.099  0.4555 -0.2286 -0.4524
  109OSM    C1S11213   1.309   4.124   9.858  0.3386 -0.1409  0.3902
  109OSM    H1S11214   1.207   4.081   9.863  0.5162 -0.9509 -2.5037
  109OSM    H1T11215   1.383   4.043   9.843  0.8360  0.6579 -1.6400
  109OSM     NF11216   1.287   4.102   9.611  0.4304  0.2367  0.2606
  109OSM    HNF11217   1.367   4.093   9.552 -0.8748 -0.4939 -1.4328
  109OSM    C2S11218   1.301   4.204   9.720  1.3213 -0.1127 -0.4028
  109OSM    H2S11219   1.213   4.271   9.711 -0.1959 -1.4165  3.8620
  109OSM    C3S11220   1.422   4.294   9.704 -0.6252  0.3835  0.0003
  109OSM    H3S11221   1.515   4.238   9.724 -1.7428 -0.9464  1.6274
  109OSM     O311222   1.418   4.400   9.800 -0.4822 -0.7343  0.1181
  109OSM    HO311223   1.360   4.364   9.868 -0.9533 -1.2760 -0.5516
  109OSM    C4S11224   1.431   4.344   9.564  0.4465  0.4922  0.7727
  109OSM    H4S11225   1.388   4.444   9.546  1.5406  0.4256 -2.4721
  109OSM    C5S11226   1.513   4.296   9.467  0.0836  0.2695 -0.0619
  109OSM    H5S11227   1.587   4.220   9.493 -1.4337 -0.8535  1.0817
  109OSM    C6S11228   1.517   4.357   9.329 -0.1012  0.5950 -0.4267
  109OSM    H6S11229   1.615   4.403   9.306 -0.8812  3.9337  2.3656
  109OSM    H6T11230   1.449   4.445   9.317  0.2381  0.8281 -0.6329
  109OSM    C7S11231   1.494   4.251   9.220  0.2439 -0.5843  0.0119
  109OSM    H7S11232   1.407   4.196   9.260 -2.4286  2.5764 -1.1880
  109OSM    H7T11233   1.585   4.187   9.220 -1.3638 -2.9697  2.9590
  109OSM    C8S11234   1.455   4.299   9.076  0.9199 -0.4832 -0.0607
  109OSM    H8S11235   1.525   4.380   9.047 -0.4157  0.3892 -0.9096
  109OSM    H8T11236   1.350   4.334   9.088  1.1399 -0.0295  0.5726
  109OSM    C9S11237   1.461   4.175   8.979  0.4977 -0.4479  0.5842
  109OSM    H9S11238   1.392   4.096   9.014 -1.9093  2.2737  2.1959
  109OSM    H9T11239   1.566   4.139   8.976  1.1182  1.4449 -1.7265
  109OSM   C10S11240   1.410   4.214   8.840 -0.1697 -0.4357  0.4407
  109OSM   H10S11241   1.465   4.307   8.817  1.5192 -1.9395 -1.8323
  109OSM   H10T11242   1.307   4.252   8.856  0.1580  1.4955 -1.8121
  109OSM   C11S11243   1.434   4.112   8.728 -0.1693  0.4785 -0.7228
  109OSM   H11S11244   1.363   4.030   8.749  1.8170 -1.2754 -0.6794
  109OSM   H11T11245   1.534   4.068   8.746 -0.3111 -1.5255 -4.3121
  109OSM   C12S11246   1.421   4.161   8.584 -0.1765  0.1311  0.0299
  109OSM   H12S11247   1.479   4.255   8.569 -1.6586  0.7092 -2.3700
  109OSM   H12T11248   1.314   4.187   8.566 -1.0074 -0.4167  3.7051
  109OSM   C13S11249   1.451   4.054   8.476  0.4050 -0.7013 -0.4144
  109OSM   H13S11250   1.386   3.965   8.485  0.8033 -0.8184  1.7213
  109OSM   H13T11251   1.552   4.023   8.511  1.1669  0.6308 -1.3586
  109OSM   C14S11252   1.463   4.111   8.337  0.6634 -0.0020  0.1611
  109OSM   H14S11253   1.546   4.183   8.320  1.2738 -1.0978 -1.6653
  109OSM   H14T11254   1.368   4.162   8.311  1.0168 -0.1044 -1.4028
  109OSM   C15S11255   1.468   3.990   8.247 -0.4250  0.0370  0.0614
  109OSM   H15S11256   1.370   3.941   8.227 -0.1612 -0.7388  0.6497
  109OSM   H15T11257   1.536   3.915   8.291 -1.9723  0.5380  3.4566
  109OSM   C16S11258   1.528   4.018   8.106 -0.5418 -0.0644 -0.1512
  109OSM   H16S11259   1.567   3.921   8.068 -1.9800 -0.1363 -1.5170
  109OSM   H16T11260   1.610   4.093   8.112 -1.5665  1.1213 -0.6697
  109OSM   C17S11261   1.415   4.063   8.005 -0.1207  0.2209  0.4519
  109OSM   H17S11262   1.362   4.150   8.049  0.1388  0.6947 -0.1651
  109OSM   H17T11263   1.349   3.976   7.984  0.6818 -0.8695  2.2266
  109OSM   C18S11264   1.473   4.097   7.872  0.7527  0.1955 -0.2625
  109OSM   H18S11265   1.525   4.195   7.880  0.3039  0.7191 -3.0715
  109OSM   H18T11266   1.394   4.113   7.795  0.3975  1.2015  0.2970
  109OSM   H18U11267   1.543   4.021   7.832  1.4896  1.1551 -0.8297
  109OSM    C1F11268   1.176   4.033   9.579 -0.2491 -0.4591 -0.0699
  109OSM     OF11269   1.083   4.033   9.653 -0.2050  0.1096 -0.0327
  109OSM    C2F11270   1.184   3.949   9.457 -0.3695  0.1364  0.1267
  109OSM    H2F11271   1.260   3.867   9.458  0.4459  0.8885  0.8160
  109OSM    H2G11272   1.223   4.011   9.373  0.2558 -1.8097 -1.0795
  109OSM    C3F11273   1.048   3.894   9.411  0.5971  0.3406  0.1701
  109OSM    H3F11274   0.965   3.968   9.423 -1.7972 -2.0514 -1.1075
  109OSM    H3G11275   1.037   3.817   9.490  1.6058 -0.6413 -0.6498
  109OSM    C4F11276   1.045   3.839   9.265 -0.3965  0.1033  1.0228
  109OSM    H4F11277   0.956   3.776   9.244 -0.9071  1.6209 -1.5477
  109OSM    H4G11278   1.125   3.764   9.247 -1.0098  0.0478 -1.6284
  109OSM    C5F11279   1.045   3.955   9.161 -0.1736 -0.0416  0.2245
  109OSM    H5F11280   1.128   4.026   9.179  2.0083 -2.8084  1.3187
  109OSM    H5G11281   0.955   4.019   9.174 -0.1386 -0.2364  1.4666
  109OSM    C6F11282   1.048   3.902   9.017  0.4632  0.3226 -0.3257
  109OSM    H6F11283   0.950   3.856   8.989  1.7122 -1.6963 -1.4597
  109OSM    H6G11284   1.126   3.824   9.022 -0.8938 -0.9914  0.8402
  109OSM    C7F11285   1.076   4.019   8.922 -1.0365  0.0832 -0.1357
  109OSM    H7F11286   1.177   4.063   8.936 -0.8612 -1.3467  3.6274
  109OSM    H7G11287   0.997   4.093   8.949 -1.1814 -0.5591  1.2598
  109OSM    C8F11288   1.046   3.978   8.776  0.5631 -0.1369  0.6483
  109OSM    H8F11289   0.943   3.937   8.773  0.5155 -0.0806  1.4740
  109OSM    H8G11290   1.119   3.906   8.731  0.2100  0.3255 -0.6954
  109OSM    C9F11291   1.043   4.105   8.689 -0.0608  0.1135 -0.2701
  109OSM    H9F11292   1.098   4.195   8.721  0.4172 -0.3870  0.3501
  109OSM   C10F11293   1.014   4.096   8.553  1.4826  0.5585 -0.6495
  109OSM   H10F11294   1.008   4.189   8.494 -0.4789  1.3400  0.7162
  109OSM   C11F11295   0.975   3.974   8.476  0.3080  0.7918 -0.9139
  109OSM   H11F11296   0.866   3.984   8.460  0.0458 -1.7265 -0.9416
  109OSM   H11G11297   0.970   3.876   8.529 -1.3796  0.1868 -2.1430
  109OSM   C12F11298   1.055   3.947   8.348 -0.1845  0.3351  0.2433
  109OSM   H12F11299   0.987   3.870   8.305  1.1086 -0.6726 -0.0416
  109OSM   H12G11300   1.155   3.906   8.372 -1.1460 -1.5166  1.2093
  109OSM   C13F11301   1.075   4.063   8.242 -0.4666 -0.2181 -0.0025
  109OSM   H13F11302   1.127   4.020   8.153 -1.9034  2.2137 -2.0902
  109OSM   H13G11303   1.143   4.140   8.283  2.0458 -2.7034  0.6487
  109OSM   C14F11304   0.939   4.116   8.195 -0.5947 -0.1508 -0.2732
  109OSM   H14F11305   0.872   4.143   8.280  1.4289  0.2668  1.2450
  109OSM   H14G11306   0.895   4.029   8.142  0.2514 -0.0252 -1.1915
  109OSM   C15F11307   0.955   4.230   8.092  0.0218  0.3158  0.3123
  109OSM   H15F11308   0.966   4.324   8.150 -0.7645  0.5380  0.1041
  109OSM   H15G11309   0.859   4.228   8.037  0.5910 -0.5592 -0.6604
  109OSM   C16F11310   1.077   4.239   7.997  0.1504  0.7054 -0.3719
  109OSM   H16F11311   1.090   4.141   7.945 -0.7753 -0.2883  1.2204
  109OSM   H16G11312   1.175   4.255   8.047  0.2877 -1.9793  0.3343
  109OSM   C17F11313   1.042   4.349   7.896 -0.8322  0.0787  0.8161
  109OSM   H17F11314   1.012   4.433   7.963  1.5902  1.3977  0.2898
  109OSM   H17G11315   0.955   4.312   7.837  1.5092 -0.5869 -2.3371
  109OSM   C18F11316   1.151   4.389   7.795 -0.7347  0.1769  0.1319
  109OSM   H18F11317   1.253   4.391   7.839 -1.2292  1.3616  1.2644
  109OSM   H18G11318   1.129   4.491   7.757  1.5912  0.6290 -0.0763
  109OSM   H18H11319   1.152   4.321   7.708  1.1063  0.6233 -0.2220
  110OSM      N11320   2.194   4.877   9.889 -0.8646  0.0057 -0.9529
  110OSM    C1511321   2.241   4.899  10.033 -0.0616  0.0168 -0.1448
  110OSM   H15A11322   2.346   4.923  10.042 -0.0319 -0.4754  0.9137
  110OSM   H15B11323   2.217   4.811  10.091  0.6175  2.4574  4.0048
  110OSM   H15C11324   2.186   4.988  10.060 -1.1334 -0.3886 -0.9537
  110OSM    C1411325   2.233   4.996   9.811  0.1881 -0.1425 -0.4672
  110OSM   H14A11326   2.166   5.080   9.805  0.3874  0.1536  1.0404
  110OSM   H14B11327   2.246   4.975   9.706  0.5657  1.7943 -0.8123
  110OSM   H14C11328   2.327   5.035   9.848 -0.8551  1.7926  0.2003
  110OSM    C1311329   2.270   4.763   9.826 -0.0341 -0.2486 -0.1589
  110OSM   H13A11330   2.376   4.769   9.844 -0.2401  1.6667  0.5046
  110OSM   H13B11331   2.252   4.761   9.719  2.4631 -0.0440 -0.6166
  110OSM   H13C11332   2.239   4.672   9.876  0.4410  0.8614  2.2357
  110OSM    C1211333   2.045   4.861   9.885  0.3648 -0.2008  0.8553
  110OSM   H12A11334   2.020   4.844   9.781 -0.8734  0.6727  0.9941
  110OSM   H12B11335   1.997   4.956   9.905 -0.0496  0.7979 -4.1062
  110OSM    C1111336   1.982   4.744   9.966  0.4600 -0.9123  0.2858
  110OSM   H11A11337   2.024   4.750  10.068 -3.8296  0.6154  2.0623
  110OSM   H11B11338   2.002   4.640   9.931 -3.4198 -1.7502  0.2467
  110OSM      P11339   1.779   4.873  10.061  0.3219  0.1560  0.2021
  110OSM    O1311340   1.640   4.842  10.082 -0.3792 -0.1161  0.7288
  110OSM    O1411341   1.861   4.906  10.179 -0.2278 -0.1822 -0.8742
  110OSM    O1111342   1.789   4.989   9.962 -0.7058  0.0857 -0.3523
  110OSM    O1211343   1.844   4.764   9.977 -0.4438 -0.1781  0.0609
  110OSM    C1S11344   1.688   5.037   9.874  0.3476  0.4520 -0.3781
  110OSM    H1S11345   1.694   5.148   9.875  1.0542  0.4266 -1.1250
  110OSM    H1T11346   1.586   5.030   9.919  0.5446 -0.6928 -0.0893
  110OSM     NF11347   1.730   5.079   9.646  0.0940  0.3835  0.2381
  110OSM    HNF11348   1.663   5.118   9.584  0.0163  1.5233  1.0249
  110OSM    C2S11349   1.691   4.975   9.740  0.5982  0.5099  0.1861
  110OSM    H2S11350   1.759   4.888   9.732  0.8879  0.6203  1.4117
  110OSM    C3S11351   1.541   4.924   9.718 -0.6081 -0.5076  0.0631
  110OSM    H3S11352   1.475   5.008   9.747  1.8930  1.6964 -0.4092
  110OSM     O311353   1.502   4.810   9.800  0.0004 -0.4326 -0.1885
  110OSM    HO311354   1.564   4.807   9.873  1.2361  2.3819 -1.0479
  110OSM    C4S11355   1.515   4.900   9.564  0.4012  0.0010 -0.2880
  110OSM    H4S11356   1.488   4.994   9.514  1.9288  0.0561 -1.0256
  110OSM    C5S11357   1.517   4.785   9.494 -0.9545  0.4101  1.3114
  110OSM    H5S11358   1.527   4.686   9.541 -2.6111  0.4401  1.7747
  110OSM    C6S11359   1.486   4.789   9.344  0.0252 -0.6786 -1.1941
  110OSM    H6S11360   1.466   4.894   9.316  0.8396  0.6094  2.8129
  110OSM    H6T11361   1.397   4.727   9.319  0.3584 -0.8674 -1.9415
  110OSM    C7S11362   1.597   4.727   9.257  0.3328 -0.2804 -0.2096
  110OSM    H7S11363   1.628   4.630   9.302  0.3060 -0.5051 -0.6733
  110OSM    H7T11364   1.687   4.792   9.259 -0.7058  1.1442  3.4754
  110OSM    C8S11365   1.547   4.697   9.108  0.7475 -0.7273 -0.5227
  110OSM    H8S11366   1.462   4.626   9.121 -0.4493  0.8382  0.4272
  110OSM    H8T11367   1.633   4.656   9.051  2.4267  1.1652  0.6125
  110OSM    C9S11368   1.487   4.819   9.024  0.8051 -0.1866 -0.1124
  110OSM    H9S11369   1.565   4.897   9.029  0.4217  0.1246  1.1253
  110OSM    H9T11370   1.391   4.841   9.076  0.8001  0.1098 -0.2455
  110OSM   C10S11371   1.455   4.771   8.884  0.3362 -0.0876  0.0787
  110OSM   H10S11372   1.395   4.679   8.890  0.3222 -0.1387 -0.8157
  110OSM   H10T11373   1.549   4.750   8.827 -0.7249 -1.0751 -1.3337
  110OSM   C11S11374   1.358   4.868   8.810 -0.3878  0.1347 -0.9879
  110OSM   H11S11375   1.410   4.966   8.813  0.6697 -0.3955 -1.5224
  110OSM   H11T11376   1.265   4.887   8.867 -0.7082 -1.0152 -1.1139
  110OSM   C12S11377   1.325   4.841   8.657 -0.2026  0.0889 -0.7603
  110OSM   H12S11378   1.245   4.910   8.621 -1.4218 -0.9312 -0.0428
  110OSM   H12T11379   1.293   4.735   8.647 -0.2379  0.0180  0.0672
  110OSM   C13S11380   1.450   4.851   8.567 -0.5118  1.0888 -0.1700
  110OSM   H13S11381   1.544   4.820   8.617 -0.7249  1.2034  0.2987
  110OSM   H13T11382   1.465   4.960   8.547 -0.7691  1.0919 -0.3537
  110OSM   C14S11383   1.438   4.792   8.422 -0.7914  0.2015  0.2622
  110OSM   H14S11384   1.525   4.835   8.367 -0.6842  0.8740  0.9628
  110OSM   H14T11385   1.339   4.828   8.387  0.4798  1.4488 -2.1866
  110OSM   C15S11386   1.447   4.638   8.427 -0.0836 -0.0486  0.2294
  110OSM   H15S11387   1.372   4.604   8.502  1.2990 -0.2269  1.5515
  110OSM   H15T11388   1.534   4.604   8.487  1.2817  1.6175 -0.7785
  110OSM   C16S11389   1.465   4.554   8.305 -0.3976  0.0275 -0.6716
  110OSM   H16S11390   1.488   4.451   8.338 -2.1593 -0.4784 -0.9761
  110OSM   H16T11391   1.549   4.582   8.238 -1.5545 -0.4173 -2.3246
  110OSM   C17S11392   1.335   4.556   8.226  0.0652  0.5480  0.0132
  110OSM   H17S11393   1.356   4.507   8.128 -0.5196 -1.1245  0.7002
  110OSM   H17T11394   1.291   4.656   8.206  1.3386  1.6962  2.7612
  110OSM   C18S11395   1.231   4.464   8.290  0.0476  0.2709 -0.3027
  110OSM   H18S11396   1.191   4.504   8.385  2.2392  1.9805 -0.0723
  110OSM   H18T11397   1.282   4.366   8.303 -2.3469 -0.7343  1.8500
  110OSM   H18U11398   1.148   4.456   8.216 -1.3589  1.1913  1.1541
  110OSM    C1F11399   1.856   5.119   9.640  0.1112  0.1296  0.2231
  110OSM     OF11400   1.937   5.072   9.719  0.6189 -0.3164 -0.6014
  110OSM    C2F11401   1.896   5.215   9.534  0.0959  0.2064  0.1222
  110OSM    H2F11402   1.967   5.288   9.578  0.2412  0.5921 -0.7334
  110OSM    H2G11403   1.808   5.276   9.506 -0.0024  0.4771  1.0196
  110OSM    C3F11404   1.974   5.150   9.418 -0.6891 -0.3559  0.2698
  110OSM    H3F11405   2.082   5.148   9.447  0.5223  0.3374 -3.9235
  110OSM    H3G11406   1.978   5.220   9.332 -1.1747 -1.6278 -0.8059
  110OSM    C4F11407   1.930   5.009   9.379  0.9380  0.5508 -0.0358
  110OSM    H4F11408   1.822   5.016   9.355  0.7983 -2.1207 -0.2436
  110OSM    H4G11409   1.930   4.949   9.473 -1.8656  1.4144  0.5695
  110OSM    C5F11410   2.005   4.935   9.272 -0.5349 -0.0949 -0.3366
  110OSM    H5F11411   1.957   4.836   9.257  0.4383 -0.4870 -0.9470
  110OSM    H5G11412   2.110   4.922   9.307 -0.8054  1.5749  1.1653
  110OSM    C6F11413   2.007   5.009   9.137 -0.5154  0.3265  0.0279
  110OSM    H6F11414   2.047   5.111   9.156  2.0397 -1.1132  2.9152
  110OSM    H6G11415   1.905   5.029   9.097  0.6264 -0.4849 -3.4727
  110OSM    C7F11416   2.089   4.930   9.037 -0.3102  0.0976 -0.3884
  110OSM    H7F11417   2.072   4.822   9.056  0.9970  0.0060  0.3026
  110OSM    H7G11418   2.196   4.958   9.045  0.5039 -2.6586 -1.0591
  110OSM    C8F11419   2.051   4.955   8.884 -0.1925 -0.4953 -0.2437
  110OSM    H8F11420   2.135   4.920   8.819  1.1940 -0.4305  1.4706
  110OSM    H8G11421   2.041   5.065   8.879 -0.6538 -0.4599  1.3565
  110OSM    C9F11422   1.914   4.891   8.853 -0.5612 -0.1213  0.7749
  110OSM    H9F11423   1.834   4.910   8.925 -3.1160 -0.3190 -1.9270
  110OSM   C10F11424   1.869   4.812   8.753 -0.0693 -0.1626  0.1651
  110OSM   H10F11425   1.768   4.768   8.754 -0.9549  1.7868 -0.8308
  110OSM   C11F11426   1.956   4.765   8.636  0.3357 -0.0305 -0.0616
  110OSM   H11F11427   2.000   4.664   8.648  3.1156  0.9179 -1.8338
  110OSM   H11G11428   2.034   4.842   8.619 -0.2581  0.4053 -0.7965
  110OSM   C12F11429   1.873   4.735   8.507 -0.7439 -0.1076 -0.7080
  110OSM   H12F11430   1.873   4.823   8.439 -3.3702  0.1449 -0.4263
  110OSM   H12G11431   1.766   4.726   8.537 -1.0035  1.8663 -0.9369
  110OSM   C13F11432   1.912   4.605   8.432 -0.6585  0.1050 -0.8966
  110OSM   H13F11433   1.869   4.512   8.475 -0.5967  0.1366 -0.7669
  110OSM   H13G11434   2.023   4.608   8.438 -0.5888  0.2101 -2.0187
  110OSM   C14F11435   1.872   4.604   8.287 -0.6026  0.1233 -0.3752
  110OSM   H14F11436   1.924   4.683   8.229  3.0873 -0.9408  1.3456
  110OSM   H14G11437   1.763   4.628   8.295 -0.1702  1.5754  1.4192
  110OSM   C15F11438   1.890   4.469   8.208  0.0666 -0.2612 -0.7129
  110OSM   H15F11439   1.841   4.387   8.264 -0.2443  0.7422  0.4970
  110OSM   H15G11440   1.997   4.439   8.202  0.6342  1.7352 -1.0201
  110OSM   C16F11441   1.842   4.502   8.073  0.5810  0.2960 -0.3842
  110OSM   H16F11442   1.882   4.594   8.025  2.7821 -2.0625 -3.3322
  110OSM   H16G11443   1.731   4.508   8.082  0.5775 -0.0869 -0.1505
  110OSM   C17F11444   1.862   4.383   7.973 -0.5592  0.7674  0.2274
  110OSM   H17F11445   1.810   4.297   8.020  0.9563 -0.4531 -0.2848
  110OSM   H17G11446   1.969   4.362   7.950 -1.3925 -1.6684 -1.7309
  110OSM   C18F11447   1.796   4.405   7.836  0.0104 -0.2719  0.3102
  110OSM   H18F11448   1.696   4.449   7.855  0.3949  0.9492 -0.4618
  110OSM   H18G11449   1.783   4.311   7.778 -1.1610  0.2722 -0.3256
  110OSM   H18H11450   1.861   4.467   7.770  0.9649 -1.2696  0.2805
  111OSM      N11451   4.511   1.275  10.323  0.8910  0.0704  0.2642
  111OSM    C1511452   4.485   1.146  10.398 -0.3330 -0.0497  0.1492
  111OSM   H15A11453   4.495   1.160  10.505  1.5670 -0.8156  0.0900
  111OSM   H15B11454   4.550   1.068  10.361  0.1372  0.9331 -1.0986
  111OSM   H15C11455   4.385   1.114  10.374 -0.1453  1.7647 -3.3628
  111OSM    C1411456   4.410   1.378  10.371  0.2102  0.3236  1.0165
  111OSM   H14A11457   4.421   1.395  10.477  0.1358  0.2366  1.0377
  111OSM   H14B11458   4.307   1.350  10.352  0.3822 -1.0732  2.0609
  111OSM   H14C11459   4.435   1.465  10.313 -0.3797 -0.4172 -0.3639
  111OSM    C1311460   4.647   1.311  10.354 -0.1279 -1.1591 -0.7639
  111OSM   H13A11461   4.726   1.239  10.336 -0.1490 -0.7858 -2.3357
  111OSM   H13B11462   4.651   1.328  10.461 -0.1947 -0.5077 -0.8627
  111OSM   H13C11463   4.682   1.402  10.308 -0.1689 -1.4015 -1.2750
  111OSM    C1211464   4.470   1.253  10.183 -0.0308 -0.0161  0.2275
  111OSM   H12A11465   4.544   1.184  10.143  2.6790  3.5236 -1.1230
  111OSM   H12B11466   4.495   1.342  10.127 -0.1197 -0.4480 -0.5121
  111OSM    C1111467   4.320   1.216  10.134  0.1505  0.2145  0.4839
  111OSM   H11A11468   4.308   1.122  10.192  0.3904  0.4200  0.8695
  111OSM   H11B11469   4.315   1.204  10.024 -0.4023 -0.1571  0.5438
  111OSM      P11470   4.076   1.288  10.134  0.1165  0.6094  0.2493
  111OSM    O1311471   4.037   1.158  10.191  0.2539  0.4401  0.3615
  111OSM    O1411472   3.987   1.404  10.159  0.0514 -0.0020 -0.1868
  111OSM    O1111473   4.090   1.255   9.977  0.2972 -0.1917 -0.0870
  111OSM    O1211474   4.224   1.318  10.178 -0.3999 -0.3389 -0.2754
  111OSM    C1S11475   3.969   1.264   9.897 -0.3042  0.6212 -0.0686
  111OSM    H1S11476   3.924   1.365   9.895 -0.3546  0.5731 -1.9329
  111OSM    H1T11477   3.893   1.190   9.929 -0.0395 -0.9102 -2.7985
  111OSM     NF11478   3.894   1.286   9.668 -0.1530  0.4960  0.4225
  111OSM    HNF11479   3.814   1.228   9.663  3.0468 -4.1031  0.0886
  111OSM    C2S11480   4.002   1.232   9.751  0.2077  0.1054 -0.0244
  111OSM    H2S11481   4.098   1.283   9.724  0.3782 -0.3886 -0.3629
  111OSM    C3S11482   4.024   1.078   9.736  0.4359  0.4176  0.5587
  111OSM    H3S11483   3.923   1.033   9.748  1.1844 -1.5282 -0.1689
  111OSM     O311484   4.115   1.026   9.836 -0.7706 -1.1208 -0.2349
  111OSM    HO311485   4.135   1.098   9.897  0.6892 -2.0417  0.4071
  111OSM    C4S11486   4.075   1.058   9.602  0.3897  0.2031  0.2087
  111OSM    H4S11487   4.168   1.109   9.571  0.6681 -0.9166 -0.8165
  111OSM    C5S11488   4.010   0.983   9.515  0.9924  0.5378  0.0220
  111OSM    H5S11489   3.913   0.939   9.543  0.4407 -0.7069 -3.5359
  111OSM    C6S11490   4.046   0.950   9.370 -0.3012  0.5102  0.1846
  111OSM    H6S11491   4.116   0.865   9.380 -3.0260 -1.9775 -1.1326
  111OSM    H6T11492   4.103   1.034   9.324  0.9012  0.1050  0.9183
  111OSM    C7S11493   3.929   0.921   9.271 -0.6116 -0.1770  0.3682
  111OSM    H7S11494   3.858   1.006   9.279 -1.5896 -1.0828  1.6546
  111OSM    H7T11495   3.890   0.819   9.293 -1.1243 -0.0988 -0.1790
  111OSM    C8S11496   3.979   0.918   9.125 -0.1516 -0.4923 -0.5476
  111OSM    H8S11497   4.017   1.020   9.103 -2.1510  0.2376 -0.6989
  111OSM    H8T11498   3.895   0.897   9.056  0.0422 -0.6502 -0.7372
  111OSM    C9S11499   4.093   0.810   9.109 -0.2644 -0.0026  0.1115
  111OSM    H9S11500   4.053   0.709   9.132 -0.1518  0.1261  0.8814
  111OSM    H9T11501   4.176   0.835   9.178  0.5974 -0.7028 -0.6722
  111OSM   C10S11502   4.156   0.807   8.963 -0.3280 -0.5687 -0.5965
  111OSM   H10S11503   4.235   0.730   8.975  0.4927  0.6692  2.6707
  111OSM   H10T11504   4.215   0.900   8.945 -0.4449 -0.1570  1.0842
  111OSM   C11S11505   4.063   0.782   8.844  0.6739  0.7429 -0.1453
  111OSM   H11S11506   4.003   0.875   8.840 -1.1600 -0.2713  2.4285
  111OSM   H11T11507   3.999   0.699   8.880  0.4432  0.5264 -1.0571
  111OSM   C12S11508   4.143   0.760   8.715  0.6830  0.2131  0.3410
  111OSM   H12S11509   4.066   0.744   8.637  0.9038  2.0264 -0.2642
  111OSM   H12T11510   4.211   0.673   8.726 -1.0981 -1.6010 -2.3379
  111OSM   C13S11511   4.230   0.882   8.677 -0.1032  0.3265 -0.3508
  111OSM   H13S11512   4.310   0.906   8.751 -3.1812  1.0993  2.8725
  111OSM   H13T11513   4.166   0.972   8.661 -2.7063 -1.4784 -0.3246
  111OSM   C14S11514   4.303   0.851   8.539 -0.0790 -0.6411 -0.7614
  111OSM   H14S11515   4.209   0.839   8.481 -3.3582  2.9607  3.3980
  111OSM   H14T11516   4.366   0.760   8.546  0.6685 -0.0814  0.0679
  111OSM   C15S11517   4.372   0.974   8.485 -0.3628  0.5355  0.1533
  111OSM   H15S11518   4.290   1.049   8.492 -1.8931 -1.1362  0.7642
  111OSM   H15T11519   4.411   0.955   8.383  1.1088  1.1010  0.5964
  111OSM   C16S11520   4.500   1.020   8.563  0.2053  0.9307 -0.5290
  111OSM   H16S11521   4.577   0.942   8.548 -1.8556 -1.0055 -1.4192
  111OSM   H16T11522   4.469   1.032   8.669 -0.0522 -0.3274 -0.4578
  111OSM   C17S11523   4.553   1.168   8.536  0.2848 -0.1312  0.2194
  111OSM   H17S11524   4.478   1.241   8.573 -0.7819 -1.0665 -0.0889
  111OSM   H17T11525   4.582   1.186   8.430 -0.0351  0.8900  0.3007
  111OSM   C18S11526   4.674   1.201   8.623 -0.1512  0.2812  0.8774
  111OSM   H18S11527   4.759   1.134   8.599  0.7609  1.5430  0.4832
  111OSM   H18T11528   4.660   1.189   8.732  0.1407 -3.0375  0.6088
  111OSM   H18U11529   4.717   1.300   8.594 -0.7994  0.8565  1.8588
  111OSM    C1F11530   3.896   1.420   9.639  0.0414 -0.1392 -0.3398
  111OSM     OF11531   4.000   1.480   9.662 -0.5967 -0.7008  0.2032
  111OSM    C2F11532   3.775   1.483   9.586 -0.0026  0.0361 -0.1270
  111OSM    H2F11533   3.730   1.536   9.673 -0.4089 -0.8617  0.2105
  111OSM    H2G11534   3.713   1.397   9.553  1.7487 -1.2570 -0.0895
  111OSM    C3F11535   3.800   1.594   9.483 -0.0759  0.2091  0.1477
  111OSM    H3F11536   3.853   1.679   9.533 -2.2345  1.1031  0.9826
  111OSM    H3G11537   3.703   1.632   9.444  0.3553  1.2786  0.0930
  111OSM    C4F11538   3.880   1.552   9.364 -0.8394 -0.4045  0.4416
  111OSM    H4F11539   3.820   1.473   9.315 -0.1635 -0.2571 -0.6340
  111OSM    H4G11540   3.979   1.511   9.394 -0.8188 -1.3949 -0.9360
  111OSM    C5F11541   3.900   1.682   9.274 -0.1371  0.0457 -0.3781
  111OSM    H5F11542   3.951   1.759   9.336 -0.2814 -1.3538  1.5233
  111OSM    H5G11543   3.800   1.722   9.247 -2.5970 -3.0762  3.6100
  111OSM    C6F11544   3.977   1.640   9.148  0.7254  0.1169  0.2495
  111OSM    H6F11545   3.924   1.556   9.099  1.8663 -0.0805 -0.6760
  111OSM    H6G11546   4.081   1.607   9.172  0.4539 -1.0951 -0.2154
  111OSM    C7F11547   3.976   1.752   9.045 -0.4622 -0.4825 -0.3980
  111OSM    H7F11548   4.042   1.833   9.084  1.4146 -1.9106 -0.5233
  111OSM    H7G11549   3.870   1.785   9.040 -0.1733  0.4263 -0.6020
  111OSM    C8F11550   4.035   1.705   8.906  0.4271 -0.3073 -0.5428
  111OSM    H8F11551   4.023   1.781   8.826  0.2828 -1.2768 -1.4559
  111OSM    H8G11552   3.973   1.619   8.872 -0.9285  0.3614  0.2163
  111OSM    C9F11553   4.180   1.652   8.911 -0.1493  0.4333 -0.2533
  111OSM    H9F11554   4.188   1.567   8.980 -0.0203  0.6110 -0.0499
  111OSM   C10F11555   4.295   1.678   8.839 -0.4002  0.1714  0.2539
  111OSM   H10F11556   4.391   1.637   8.874 -0.2693 -0.0656 -0.3878
  111OSM   C11F11557   4.314   1.778   8.734  0.1133 -0.1175  0.1435
  111OSM   H11F11558   4.370   1.868   8.768  1.5531 -1.6869  2.0361
  111OSM   H11G11559   4.217   1.826   8.710  0.1735 -0.3145 -0.4765
  111OSM   C12F11560   4.379   1.717   8.605  0.4119 -0.4138  0.3125
  111OSM   H12F11561   4.309   1.642   8.563 -0.8872  1.4449 -0.8689
  111OSM   H12G11562   4.473   1.666   8.637  0.1701 -0.2394  1.3301
  111OSM   C13F11563   4.423   1.821   8.503  0.2782 -0.8673 -0.3235
  111OSM   H13F11564   4.517   1.786   8.453  1.1462 -1.1680  1.4648
  111OSM   H13G11565   4.451   1.913   8.558  0.4330 -0.1380 -1.6023
  111OSM   C14F11566   4.313   1.862   8.398  0.0111  0.8791  0.2405
  111OSM   H14F11567   4.347   1.946   8.335  3.7975 -0.3519  0.4947
  111OSM   H14G11568   4.241   1.911   8.467 -1.3488 -0.8307  0.0821
  111OSM   C15F11569   4.249   1.748   8.312 -0.0023 -0.0348  0.3237
  111OSM   H15F11570   4.169   1.777   8.240  0.3819  0.4564  0.0907
  111OSM   H15G11571   4.219   1.673   8.388  1.1993  0.9541  1.8088
  111OSM   C16F11572   4.346   1.667   8.221 -0.2670  0.4854 -0.2146
  111OSM   H16F11573   4.304   1.568   8.191  0.5350  0.6523 -1.9552
  111OSM   H16G11574   4.439   1.639   8.275  0.4730 -1.4685 -2.3763
  111OSM   C17F11575   4.376   1.749   8.098  0.3872  0.3800 -0.1762
  111OSM   H17F11576   4.425   1.842   8.135  0.7783  0.3926 -0.7290
  111OSM   H17G11577   4.283   1.774   8.043 -1.7998 -2.4524  2.0933
  111OSM   C18F11578   4.478   1.674   8.018 -0.0342  0.6046 -0.2302
  111OSM   H18F11579   4.517   1.748   7.944 -0.1914 -0.6443 -1.5921
  111OSM   H18G11580   4.439   1.591   7.956  1.4212 -0.1013 -0.2269
  111OSM   H18H11581   4.556   1.626   8.081 -0.1641 -1.5786 -1.6950
  112OSM      N11582   2.830   5.841  10.149 -0.4209 -0.6379  0.7495
  112OSM    C1511583   2.926   5.922  10.065 -0.0150  0.1756  0.3107
  112OSM   H15A11584   3.027   5.918  10.102  0.5173  1.8938 -0.9321
  112OSM   H15B11585   2.890   6.023  10.052 -0.8279 -0.0729  0.5482
  112OSM   H15C11586   2.926   5.883   9.964 -1.5217  2.2635 -0.5330
  112OSM    C1411587   2.898   5.720  10.192  0.0950  0.4175 -0.0995
  112OSM   H14A11588   2.918   5.655  10.108 -0.7041  0.5655 -0.4000
  112OSM   H14B11589   2.842   5.651  10.254  1.8141  0.2853  1.3484
  112OSM   H14C11590   2.989   5.735  10.248 -0.6988  2.3638  0.7183
  112OSM    C1311591   2.807   5.923  10.275 -0.3455 -0.3205  0.1100
  112OSM   H13A11592   2.757   6.018  10.260  0.8404  0.5373  1.4206
  112OSM   H13B11593   2.898   5.958  10.321 -1.7338  0.8489  2.0770
  112OSM   H13C11594   2.748   5.861  10.341  0.2052 -0.3888  0.5482
  112OSM    C1211595   2.701   5.818  10.068  0.8086 -0.2426  0.2583
  112OSM   H12A11596   2.672   5.918  10.040  0.0599 -0.1505  1.3271
  112OSM   H12B11597   2.628   5.780  10.138  0.3517  0.7273  0.3224
  112OSM    C1111598   2.710   5.721   9.942 -0.1019  0.7749  0.0709
  112OSM   H11A11599   2.778   5.772   9.871  0.4774 -0.6532 -0.4161
  112OSM   H11B11600   2.606   5.706   9.906  0.9111 -1.8919 -1.8587
  112OSM      P11601   2.783   5.482   9.872  0.5055 -0.4190 -0.1770
  112OSM    O1311602   2.904   5.534   9.801 -0.0088 -0.4768  0.1510
  112OSM    O1411603   2.800   5.355   9.944  0.3821 -0.3940 -0.3223
  112OSM    O1111604   2.651   5.475   9.787  0.5152  0.1758  0.4220
  112OSM    O1211605   2.753   5.595   9.986  0.0337  0.4117 -0.0105
  112OSM    C1S11606   2.634   5.566   9.682  0.4774  0.5860  0.2991
  112OSM    H1S11607   2.706   5.548   9.599 -1.0324 -2.9952 -0.3333
  112OSM    H1T11608   2.629   5.672   9.717 -2.3723  0.9706 -1.1242
  112OSM     NF11609   2.481   5.658   9.537 -0.0546 -0.9461  0.4515
  112OSM    HNF11610   2.421   5.728   9.573  1.4441  0.4670  0.2431
  112OSM    C2S11611   2.497   5.546   9.627 -0.3647  0.1100  0.2991
  112OSM    H2S11612   2.488   5.452   9.569  0.6307  0.7714 -0.9458
  112OSM    C3S11613   2.387   5.545   9.739 -0.4490  0.2038 -0.1014
  112OSM    H3S11614   2.399   5.634   9.805 -1.3026 -0.4256  0.8962
  112OSM     O311615   2.393   5.439   9.832  0.3387  0.0358 -0.7031
  112OSM    HO311616   2.485   5.415   9.827  0.2142 -0.8049  0.6811
  112OSM    C4S11617   2.253   5.546   9.671 -0.5038  0.5271 -0.4569
  112OSM    H4S11618   2.228   5.464   9.602 -0.8871  1.5997 -1.6170
  112OSM    C5S11619   2.159   5.641   9.688  0.2618  0.2166  0.4708
  112OSM    H5S11620   2.175   5.720   9.763 -1.2844 -0.2824  1.3617
  112OSM    C6S11621   2.024   5.649   9.613  0.8296  0.4652  0.4008
  112OSM    H6S11622   1.948   5.679   9.688 -0.9167 -0.2446 -1.0270
  112OSM    H6T11623   1.996   5.546   9.584  0.0864  0.5967  0.6204
  112OSM    C7S11624   2.032   5.734   9.479  0.3824  0.4974 -0.0127
  112OSM    H7S11625   2.063   5.837   9.506 -0.6788  0.6718  0.5886
  112OSM    H7T11626   1.929   5.742   9.438  0.7264 -0.4961 -1.0840
  112OSM    C8S11627   2.135   5.685   9.374 -0.2639  0.2991 -0.1029
  112OSM    H8S11628   2.237   5.682   9.416  0.3820  2.1301 -1.4613
  112OSM    H8T11629   2.146   5.769   9.302  1.7970  2.0622  2.1636
  112OSM    C9S11630   2.101   5.551   9.302  1.1077  0.2273 -0.4330
  112OSM    H9S11631   1.999   5.568   9.261  0.7378  0.8506  0.7084
  112OSM    H9T11632   2.087   5.472   9.378 -1.0308  0.0218 -1.0015
  112OSM   C10S11633   2.198   5.526   9.188 -0.1363 -0.3584  0.1715
  112OSM   H10S11634   2.296   5.509   9.236  0.8848  0.9435 -1.3711
  112OSM   H10T11635   2.202   5.616   9.121  0.5495  0.1105  0.8444
  112OSM   C11S11636   2.168   5.402   9.108  0.4437 -0.0583 -0.4636
  112OSM   H11S11637   2.070   5.400   9.055 -0.3779  2.9496  0.8797
  112OSM   H11T11638   2.166   5.317   9.180  0.4656 -1.9638 -2.6511
  112OSM   C12S11639   2.287   5.378   9.006 -0.2728  0.2904  0.2313
  112OSM   H12S11640   2.366   5.329   9.066 -0.5867  2.1932  2.2409
  112OSM   H12T11641   2.326   5.474   8.968 -2.1488  0.8183 -0.3809
  112OSM   C13S11642   2.258   5.278   8.889 -0.2617  0.1277  0.6644
  112OSM   H13S11643   2.188   5.323   8.816 -1.3792 -1.6797  0.6063
  112OSM   H13T11644   2.210   5.188   8.932 -1.8358  0.3208 -0.6610
  112OSM   C14S11645   2.393   5.243   8.826  0.5633  0.0166 -0.3128
  112OSM   H14S11646   2.474   5.212   8.896  0.3954 -0.7512 -0.4571
  112OSM   H14T11647   2.426   5.335   8.773 -1.4230  1.0466  0.1946
  112OSM   C15S11648   2.389   5.121   8.732 -0.6400  0.1556 -0.2653
  112OSM   H15S11649   2.373   5.027   8.789  1.4833 -0.6358 -0.9200
  112OSM   H15T11650   2.476   5.092   8.670  0.2539  0.9685  0.6113
  112OSM   C16S11651   2.271   5.135   8.630 -0.8271  0.2409  0.3295
  112OSM   H16S11652   2.266   5.236   8.585  2.3726 -0.2136 -1.1752
  112OSM   H16T11653   2.174   5.130   8.684 -1.2452  1.6911 -0.2669
  112OSM   C17S11654   2.270   5.037   8.512 -0.4191  0.2918 -0.3399
  112OSM   H17S11655   2.273   4.930   8.544 -1.4739  0.2796 -0.2340
  112OSM   H17T11656   2.342   5.060   8.431  0.7026 -0.0926  0.5456
  112OSM   C18S11657   2.139   5.057   8.432  0.7309  0.2304 -0.8525
  112OSM   H18S11658   2.157   5.022   8.328  1.8127  2.0988 -1.3167
  112OSM   H18T11659   2.128   5.167   8.426 -0.7456  0.3599  2.9372
  112OSM   H18U11660   2.051   5.013   8.483 -0.0228  1.3536 -1.1576
  112OSM    C1F11661   2.539   5.664   9.415 -0.3563 -0.5695 -0.3880
  112OSM     OF11662   2.575   5.558   9.369 -0.0369 -0.5563  0.2996
  112OSM    C2F11663   2.570   5.798   9.355 -0.0052  0.3090  0.3326
  112OSM    H2F11664   2.680   5.814   9.358  0.0429 -0.2743  2.1331
  112OSM    H2G11665   2.532   5.882   9.416  1.3761  2.7608 -2.0555
  112OSM    C3F11666   2.520   5.818   9.209  0.6325  0.0694 -0.7427
  112OSM    H3F11667   2.413   5.786   9.216  0.2269  1.8603  1.7840
  112OSM    H3G11668   2.582   5.755   9.142 -1.0742  0.3645 -2.6652
  112OSM    C4F11669   2.526   5.967   9.159 -0.0788 -0.1078 -0.3047
  112OSM    H4F11670   2.628   6.012   9.163  0.0940 -0.3933 -1.4563
  112OSM    H4G11671   2.458   6.030   9.220 -2.1778 -1.3020 -1.3667
  112OSM    C5F11672   2.477   5.975   9.015  0.1850  0.4958 -0.7847
  112OSM    H5F11673   2.522   5.890   8.960  0.9030  0.7608 -0.6120
  112OSM    H5G11674   2.504   6.070   8.963 -0.9713  1.0664 -0.3658
  112OSM    C6F11675   2.326   5.954   9.018  0.8620 -0.1475  0.4543
  112OSM    H6F11676   2.265   6.015   9.089  0.0285  1.5746 -1.6958
  112OSM    H6G11677   2.309   5.858   9.072 -1.0580 -0.2407 -0.2779
  112OSM    C7F11678   2.256   5.968   8.882  0.0198 -0.4687  0.1844
  112OSM    H7F11679   2.273   6.072   8.849 -1.9842 -0.3752 -0.6331
  112OSM    H7G11680   2.146   5.963   8.902 -0.0100 -2.8317 -0.4223
  112OSM    C8F11681   2.321   5.880   8.773  0.2228  0.6208  0.5091
  112OSM    H8F11682   2.425   5.920   8.765  0.6291 -0.2689  1.1825
  112OSM    H8G11683   2.274   5.904   8.675 -0.3256 -1.0460  0.3422
  112OSM    C9F11684   2.334   5.727   8.778  0.2743  0.2743  0.5607
  112OSM    H9F11685   2.385   5.693   8.869  0.2318  1.1173  0.9008
  112OSM   C10F11686   2.290   5.635   8.696 -0.4358  0.2144  0.0091
  112OSM   H10F11687   2.301   5.531   8.729  2.5270  1.2008  2.4245
  112OSM   C11F11688   2.210   5.663   8.571 -0.3875 -0.4689  0.7348
  112OSM   H11F11689   2.225   5.768   8.538  0.8191 -0.8964 -0.1196
  112OSM   H11G11690   2.100   5.652   8.584 -0.3552 -0.7996  0.7374
  112OSM   C12F11691   2.277   5.576   8.467  0.3563  0.6175  0.8038
  112OSM   H12F11692   2.275   5.468   8.495 -1.8275  1.2925  3.4998
  112OSM   H12G11693   2.384   5.599   8.450  0.0431  0.5105 -1.5199
  112OSM   C13F11694   2.216   5.573   8.327  0.3368  0.1774 -0.0885
  112OSM   H13F11695   2.283   5.504   8.272  1.3035 -1.1612  2.6901
  112OSM   H13G11696   2.219   5.676   8.285  0.4083 -0.0939 -0.7598
  112OSM   C14F11697   2.073   5.522   8.314  0.1330  0.3996 -0.4691
  112OSM   H14F11698   2.004   5.582   8.378 -0.4516  0.8431 -1.4847
  112OSM   H14G11699   2.067   5.414   8.336  0.1394  0.2247 -1.2905
  112OSM   C15F11700   2.009   5.526   8.172 -0.2407 -0.1013  0.0632
  112OSM   H15F11701   2.080   5.483   8.098  0.6448 -1.4639  1.6590
  112OSM   H15G11702   1.983   5.627   8.136 -3.0025 -0.2628  1.5251
  112OSM   C16F11703   1.875   5.453   8.164 -0.1484  0.3911  0.2558
  112OSM   H16F11704   1.825   5.486   8.258  1.2296  0.5474  0.9421
  112OSM   H16G11705   1.871   5.343   8.179 -1.1603  0.4451  0.4411
  112OSM   C17F11706   1.788   5.479   8.042  0.4083 -0.4863 -0.2744
  112OSM   H17F11707   1.826   5.424   7.953 -1.0792  2.0855 -2.5919
  112OSM   H17G11708   1.805   5.585   8.015  1.3196  0.2277  2.8876
  112OSM   C18F11709   1.636   5.455   8.055 -0.0540  0.8405 -0.3631
  112OSM   H18F11710   1.613   5.346   8.061 -1.5214  1.2578  2.2511
  112OSM   H18G11711   1.580   5.492   7.967 -1.7352  0.8224  0.6593
  112OSM   H18H11712   1.595   5.504   8.146  2.4507 -0.5473  1.5770
  113OSM      N11713   1.392   2.548  10.251  0.1682  0.8495  0.4229
  113OSM    C1511714   1.486   2.464  10.333 -0.4019 -0.1463 -0.2744
  113OSM   H15A11715   1.589   2.479  10.302 -0.2362  2.1963  1.2568
  113OSM   H15B11716   1.449   2.363  10.325  0.4620 -0.6562  1.7727
  113OSM   H15C11717   1.487   2.483  10.440  1.6417 -0.6158 -0.1735
  113OSM    C1411718   1.269   2.569  10.337 -0.3532  0.3136 -0.0214
  113OSM   H14A11719   1.296   2.606  10.435  0.8237  1.0534 -0.6061
  113OSM   H14B11720   1.206   2.482  10.341  0.7773 -0.4901  0.6480
  113OSM   H14C11721   1.209   2.652  10.302 -0.6856  0.6237  1.2481
  113OSM    C1311722   1.449   2.683  10.236  0.0144 -0.8786 -0.4195
  113OSM   H13A11723   1.363   2.745  10.216 -0.6829 -1.5975  0.3272
  113OSM   H13B11724   1.509   2.680  10.147  1.5891  1.6004  0.5131
  113OSM   H13C11725   1.491   2.726  10.326  2.2853 -1.7654 -1.0352
  113OSM    C1211726   1.358   2.493  10.111 -0.0189 -0.0685  0.0249
  113OSM   H12A11727   1.446   2.510  10.051  0.3342 -2.7331 -0.2684
  113OSM   H12B11728   1.278   2.561  10.084  0.8546  0.9102 -0.1348
  113OSM    C1111729   1.316   2.346  10.097 -0.2519 -0.2186 -0.3119
  113OSM   H11A11730   1.397   2.304  10.160  0.9585  3.3285  0.6409
  113OSM   H11B11731   1.318   2.319   9.990  2.4918 -0.8882 -0.1244
  113OSM      P11732   1.147   2.174  10.180 -0.1199 -0.2019  0.1758
  113OSM    O1311733   1.248   2.100  10.262 -0.3454  0.3795  0.0600
  113OSM    O1411734   1.008   2.168  10.234 -0.2135  0.0232  0.0515
  113OSM    O1111735   1.143   2.117  10.037  0.2676  0.0523  0.0558
  113OSM    O1211736   1.187   2.326  10.167  0.0842  0.1433 -0.4251
  113OSM    C1S11737   1.036   2.030   9.991 -0.8449 -0.3401 -0.2347
  113OSM    H1S11738   0.936   2.077   9.988  1.4825  4.8220 -0.6663
  113OSM    H1T11739   1.035   1.937  10.052 -1.4428 -0.0007  0.2764
  113OSM     NF11740   0.970   1.905   9.787  0.1798  0.2549 -0.5633
  113OSM    HNF11741   0.973   1.806   9.798 -2.2074  0.3433  1.1734
  113OSM    C2S11742   1.079   1.986   9.849  0.7010 -0.2836  0.2339
  113OSM    H2S11743   1.088   2.073   9.781 -0.3837  0.1173  0.5958
  113OSM    C3S11744   1.213   1.905   9.844  0.5807 -0.3189 -0.0768
  113OSM    H3S11745   1.194   1.802   9.881  0.1608 -0.2933 -0.2115
  113OSM     O311746   1.316   1.957   9.927 -0.2388 -0.4641 -0.3430
  113OSM    HO311747   1.277   2.025   9.982  1.3592 -1.7073  2.4797
  113OSM    C4S11748   1.250   1.903   9.697 -0.4037  1.1193  0.5387
  113OSM    H4S11749   1.262   2.000   9.646  0.7202 -0.4324 -2.2924
  113OSM    C5S11750   1.267   1.780   9.639 -0.5656 -0.5142  0.5851
  113OSM    H5S11751   1.253   1.690   9.701 -2.9789 -0.0043  0.8386
  113OSM    C6S11752   1.297   1.761   9.488  0.5666  0.1986 -0.4621
  113OSM    H6S11753   1.221   1.697   9.439 -0.7063  1.1382  0.2551
  113OSM    H6T11754   1.393   1.706   9.485  1.0973  0.9844  1.0985
  113OSM    C7S11755   1.310   1.889   9.405 -0.5946  0.5310  0.1081
  113OSM    H7S11756   1.374   1.961   9.461  1.5350  0.5593 -2.2803
  113OSM    H7T11757   1.212   1.941   9.395 -0.3713  0.9813  0.2486
  113OSM    C8S11758   1.357   1.858   9.261 -0.0299  0.5975  1.2776
  113OSM    H8S11759   1.286   1.786   9.216 -0.2161  0.7338  1.3563
  113OSM    H8T11760   1.446   1.790   9.261 -0.0733  0.5239 -0.0847
  113OSM    C9S11761   1.352   1.981   9.161 -0.3127  0.4360  0.5972
  113OSM    H9S11762   1.433   1.957   9.089  1.2096  0.7669  2.1692
  113OSM    H9T11763   1.378   2.071   9.221 -0.1775 -0.1747  1.4658
  113OSM   C10S11764   1.207   1.981   9.102 -0.3962 -0.2334  0.0767
  113OSM   H10S11765   1.126   2.003   9.175 -0.8947  2.3794 -1.1978
  113OSM   H10T11766   1.180   1.881   9.061  0.8248 -0.1645 -0.9096
  113OSM   C11S11767   1.189   2.083   8.989 -0.3878  0.3958  0.6876
  113OSM   H11S11768   1.261   2.062   8.907 -1.0390 -2.8926  0.9063
  113OSM   H11T11769   1.208   2.186   9.027 -0.1182  0.3427  0.7027
  113OSM   C12S11770   1.053   2.077   8.920 -0.0778 -0.0717  0.1772
  113OSM   H12S11771   0.978   2.120   8.990  1.6519  0.1379  1.9547
  113OSM   H12T11772   1.032   1.969   8.906  1.4030 -0.0619 -2.4549
  113OSM   C13S11773   1.045   2.126   8.775  0.5822  0.5958 -0.1952
  113OSM   H13S11774   1.140   2.090   8.730 -0.0874  0.5679 -1.6426
  113OSM   H13T11775   1.046   2.236   8.792 -0.7386  0.2301  2.5145
  113OSM   C14S11776   0.923   2.085   8.686  0.3361  0.2186  1.0101
  113OSM   H14S11777   0.826   2.108   8.736  0.4456  0.5410  1.0740
  113OSM   H14T11778   0.918   1.975   8.671  1.1513  0.5156 -1.5865
  113OSM   C15S11779   0.916   2.157   8.548 -0.8905 -0.2278 -0.4542
  113OSM   H15S11780   1.018   2.157   8.503  0.4197  2.3504  2.3614
  113OSM   H15T11781   0.889   2.264   8.556  1.4803  0.1570  3.7367
  113OSM   C16S11782   0.826   2.081   8.447 -0.1664  0.7880 -0.6750
  113OSM   H16S11783   0.732   2.056   8.501 -0.3042  0.2767 -1.1368
  113OSM   H16T11784   0.862   1.983   8.408 -2.9306 -0.9822  1.0326
  113OSM   C17S11785   0.778   2.162   8.332  0.1945 -0.4046  0.1849
  113OSM   H17S11786   0.722   2.109   8.251  1.0275 -0.2207 -0.5122
  113OSM   H17T11787   0.868   2.211   8.289 -0.4913  0.6781 -0.0437
  113OSM   C18S11788   0.668   2.265   8.367  0.4664  0.9970  0.1545
  113OSM   H18S11789   0.691   2.323   8.459  1.9109 -0.1581  0.5414
  113OSM   H18T11790   0.572   2.211   8.380  1.8018 -1.4847  0.1384
  113OSM   H18U11791   0.662   2.336   8.281 -0.7026 -1.3992 -1.7955
  113OSM    C1F11792   0.859   1.962   9.747 -0.0446 -0.7016 -0.0509
  113OSM     OF11793   0.859   2.079   9.713 -0.3352  0.5132  0.5451
  113OSM    C2F11794   0.740   1.866   9.736 -0.2896  0.3030 -0.4196
  113OSM    H2F11795   0.757   1.768   9.785 -0.4791  1.4954  2.1326
  113OSM    H2G11796   0.728   1.853   9.627 -0.5321  0.7603 -0.4493
  113OSM    C3F11797   0.608   1.935   9.773 -1.5518 -0.5886 -0.1271
  113OSM    H3F11798   0.595   2.037   9.730 -0.2276 -1.1409 -1.8973
  113OSM    H3G11799   0.594   1.942   9.883  0.7783  0.6383  0.1405
  113OSM    C4F11800   0.488   1.854   9.727 -0.2654  0.1975 -0.7785
  113OSM    H4F11801   0.505   1.754   9.772  0.9424  0.5879 -0.3557
  113OSM    H4G11802   0.487   1.839   9.616 -1.2253  0.3158 -0.7924
  113OSM    C5F11803   0.347   1.909   9.766  0.1717  0.4007  0.9395
  113OSM    H5F11804   0.345   1.920   9.877  0.9741  0.3187  0.9714
  113OSM    H5G11805   0.273   1.827   9.755 -0.1096  0.8276 -0.3908
  113OSM    C6F11806   0.319   2.039   9.693 -0.0442  0.6425 -0.6248
  113OSM    H6F11807   0.400   2.112   9.718  1.3609 -1.7276  2.0888
  113OSM    H6G11808   0.228   2.077   9.743 -0.7030 -0.6765 -0.8080
  113OSM    C7F11809   0.290   2.033   9.547 -0.1756  0.2491  0.0461
  113OSM    H7F11810   0.228   1.941   9.534 -0.3061  0.6257 -2.2968
  113OSM    H7G11811   0.388   2.013   9.499  0.0656 -0.2818  0.7621
  113OSM    C8F11812   0.216   2.151   9.489 -0.2817  0.2919  0.1492
  113OSM    H8F11813   0.116   2.132   9.533 -0.2323  0.5934  0.3924
  113OSM    H8G11814   0.213   2.125   9.381  0.0370 -1.2256  0.4926
  113OSM    C9F11815   0.273   2.291   9.519  0.2340 -0.5400 -0.8101
  113OSM    H9F11816   0.275   2.315   9.626  0.2097 -0.1335 -0.9023
  113OSM   C10F11817   0.313   2.391   9.437 -0.5664 -0.7730  0.0421
  113OSM   H10F11818   0.371   2.473   9.482  1.8713 -1.5675 -1.5702
  113OSM   C11F11819   0.303   2.386   9.286  0.1705 -0.0926  0.3752
  113OSM   H11F11820   0.236   2.471   9.259 -1.2033 -1.0078  0.8214
  113OSM   H11G11821   0.246   2.298   9.249  1.8078  0.0759 -2.7110
  113OSM   C12F11822   0.427   2.398   9.198  0.0721  0.1074  0.5256
  113OSM   H12F11823   0.494   2.315   9.231 -1.4084 -3.0007 -3.9014
  113OSM   H12G11824   0.473   2.495   9.227 -1.1386  2.1805 -3.9630
  113OSM   C13F11825   0.414   2.390   9.050  0.1701 -0.3909  0.0734
  113OSM   H13F11826   0.358   2.480   9.017  0.8339  0.0756  0.2063
  113OSM   H13G11827   0.344   2.309   9.021  0.2561 -0.7064  0.7413
  113OSM   C14F11828   0.546   2.381   8.971  0.0635  0.4115  0.2756
  113OSM   H14F11829   0.607   2.296   9.010  1.0342  1.3376  0.7807
  113OSM   H14G11830   0.615   2.467   8.981 -0.4574  0.7773  0.7451
  113OSM   C15F11831   0.517   2.352   8.824 -0.1365 -0.5938 -0.3087
  113OSM   H15F11832   0.613   2.365   8.770 -0.4231  0.1677 -0.6312
  113OSM   H15G11833   0.456   2.433   8.779 -0.3720 -0.1527  0.8036
  113OSM   C16F11834   0.453   2.221   8.787  0.0487  0.1504  0.1584
  113OSM   H16F11835   0.352   2.221   8.834 -0.4508 -0.1123 -0.8943
  113OSM   H16G11836   0.500   2.141   8.848  0.4197 -0.6149 -1.1045
  113OSM   C17F11837   0.437   2.173   8.643  0.0987 -0.0101  0.1581
  113OSM   H17F11838   0.391   2.072   8.645  0.2400 -0.0579  1.6875
  113OSM   H17G11839   0.536   2.166   8.593  1.2110  0.7695  2.1962
  113OSM   C18F11840   0.351   2.271   8.561 -0.4978  0.1907 -0.8036
  113OSM   H18F11841   0.244   2.269   8.589 -1.0238  0.1480 -2.7523
  113OSM   H18G11842   0.367   2.242   8.455 -0.0015 -0.1858 -0.6294
  113OSM   H18H11843   0.390   2.375   8.566 -1.8107  0.6727 -0.5489
  114OSM      N11844   1.674   5.170  10.363  0.3509 -0.6359 -0.5410
  114OSM    C1511845   1.777   5.230  10.270 -0.3252  0.3070 -0.1586
  114OSM   H15A11846   1.842   5.153  10.231 -0.4612 -0.3375  0.8559
  114OSM   H15B11847   1.836   5.303  10.325 -0.1346  1.5098 -1.9401
  114OSM   H15C11848   1.731   5.286  10.190  0.8092  1.6615  0.1184
  114OSM    C1411849   1.735   5.083  10.466  0.4301  0.0162  0.2425
  114OSM   H14A11850   1.827   5.130  10.496  0.4557 -0.0617  0.2876
  114OSM   H14B11851   1.751   4.982  10.432  1.9100  0.2506  0.2184
  114OSM   H14C11852   1.675   5.078  10.557 -0.6641 -0.6866 -0.4962
  114OSM    C1311853   1.617   5.287  10.437 -0.0682  0.1256 -0.5600
  114OSM   H13A11854   1.540   5.273  10.511 -1.3462  0.9577 -1.7095
  114OSM   H13B11855   1.574   5.347  10.358  0.1303  2.2522  0.8993
  114OSM   H13C11856   1.701   5.345  10.473 -1.5027  1.5044  0.6321
  114OSM    C1211857   1.564   5.103  10.283  0.5402  0.1421 -0.6597
  114OSM   H12A11858   1.482   5.090  10.351  1.9973 -1.4694  0.8530
  114OSM   H12B11859   1.597   5.005  10.252 -0.8903 -0.3781 -0.5319
  114OSM    C1111860   1.518   5.187  10.167  0.4920  0.0515 -0.1644
  114OSM   H11A11861   1.438   5.128  10.118 -0.4913  0.7948  0.5306
  114OSM   H11B11862   1.592   5.205  10.086  1.6786  0.6090  1.0195
  114OSM      P11863   1.405   5.418  10.124  0.0224 -0.0204  0.2170
  114OSM    O1311864   1.257   5.419  10.145 -0.1044 -0.2105  0.0345
  114OSM    O1411865   1.480   5.533  10.171  0.3406 -0.0470  0.1026
  114OSM    O1111866   1.443   5.387   9.973 -0.6752  0.0092  0.2789
  114OSM    O1211867   1.450   5.297  10.206  0.6754 -0.4356  0.5021
  114OSM    C1S11868   1.386   5.288   9.894  0.3784  0.8158  0.1126
  114OSM    H1S11869   1.336   5.207   9.952  1.4703  0.2787  0.3160
  114OSM    H1T11870   1.461   5.229   9.838 -1.6030  0.1133 -1.8914
  114OSM     NF11871   1.236   5.249   9.702  0.1936  0.4568 -0.0340
  114OSM    HNF11872   1.288   5.225   9.620 -0.2648 -1.4439  0.1895
  114OSM    C2S11873   1.283   5.353   9.793 -0.3119 -0.0541  0.2104
  114OSM    H2S11874   1.197   5.378   9.859 -0.2637  0.4795  0.0672
  114OSM    C3S11875   1.335   5.469   9.710 -0.4557  0.6994  0.1437
  114OSM    H3S11876   1.402   5.439   9.626 -0.3572 -0.2984  0.5770
  114OSM     O311877   1.424   5.555   9.785 -0.0322 -0.6462 -0.2108
  114OSM    HO311878   1.427   5.503   9.866 -1.9478 -1.0718 -0.3785
  114OSM    C4S11879   1.214   5.529   9.638 -0.6078 -0.3519  0.4555
  114OSM    H4S11880   1.179   5.478   9.547 -2.2302  1.4847  0.0188
  114OSM    C5S11881   1.149   5.635   9.685  0.2100  0.4526  0.0355
  114OSM    H5S11882   1.180   5.659   9.788  2.4700  1.6081 -0.8885
  114OSM    C6S11883   1.034   5.699   9.632 -0.2148 -0.1750  0.5386
  114OSM    H6S11884   1.048   5.808   9.642 -0.3543 -0.1328  0.2799
  114OSM    H6T11885   0.940   5.680   9.688 -0.6932 -0.4794 -0.3573
  114OSM    C7S11886   1.001   5.675   9.484 -0.0039 -0.3289  0.6007
  114OSM    H7S11887   0.914   5.740   9.459  1.3871  0.8665 -1.2176
  114OSM    H7T11888   0.966   5.570   9.467 -1.3406  0.0727  0.8339
  114OSM    C8S11889   1.112   5.706   9.385  0.4990  0.0177  0.2693
  114OSM    H8S11890   1.201   5.642   9.401 -0.1662 -0.7858  0.7803
  114OSM    H8T11891   1.151   5.809   9.396 -0.7118  0.4238  0.8764
  114OSM    C9S11892   1.075   5.696   9.230 -0.2644 -0.6077  0.4678
  114OSM    H9S11893   0.987   5.761   9.208  2.0178  2.1472 -0.8105
  114OSM    H9T11894   1.043   5.591   9.210 -1.5736 -0.3404  1.0994
  114OSM   C10S11895   1.183   5.740   9.133 -0.6238  0.0889  0.6957
  114OSM   H10S11896   1.268   5.679   9.169 -0.1843 -0.4970 -1.2716
  114OSM   H10T11897   1.220   5.842   9.158  0.7755 -0.4818  0.9782
  114OSM   C11S11898   1.154   5.711   8.983  0.1585 -0.3378  0.1400
  114OSM   H11S11899   1.119   5.808   8.941  1.4655  0.9492  1.9354
  114OSM   H11T11900   1.070   5.639   8.974 -2.4654  2.2277  3.0165
  114OSM   C12S11901   1.276   5.671   8.900 -0.1487 -0.2012  0.2450
  114OSM   H12S11902   1.346   5.599   8.947 -0.1979 -0.0873  0.4915
  114OSM   H12T11903   1.326   5.770   8.893  1.2328 -1.0875 -3.2553
  114OSM   C13S11904   1.242   5.639   8.750 -0.6221 -0.1988 -0.3462
  114OSM   H13S11905   1.166   5.710   8.711 -0.5683  1.2503  2.0720
  114OSM   H13T11906   1.203   5.535   8.744 -0.7741 -0.1266 -0.6717
  114OSM   C14S11907   1.370   5.646   8.670  0.0763  0.5620  0.1161
  114OSM   H14S11908   1.442   5.576   8.716  1.5469  1.7386 -0.3625
  114OSM   H14T11909   1.430   5.738   8.681  1.8562 -0.2483 -2.3378
  114OSM   C15S11910   1.352   5.620   8.520 -0.3663  0.3024 -0.0418
  114OSM   H15S11911   1.453   5.633   8.474 -0.1899  0.7356  0.4558
  114OSM   H15T11912   1.292   5.706   8.483  0.0061  0.7324  0.3379
  114OSM   C16S11913   1.283   5.486   8.488  0.2029  0.1568  0.3430
  114OSM   H16S11914   1.185   5.478   8.539 -0.1606  2.3361  0.0509
  114OSM   H16T11915   1.345   5.400   8.522 -0.4746  0.4199  2.2780
  114OSM   C17S11916   1.259   5.473   8.331 -0.2503  0.5767 -0.5840
  114OSM   H17S11917   1.357   5.458   8.282 -0.2352  0.9112 -0.6562
  114OSM   H17T11918   1.207   5.565   8.297  1.2946  2.3892  1.8523
  114OSM   C18S11919   1.173   5.357   8.304 -0.1312  0.5998  0.1828
  114OSM   H18S11920   1.225   5.269   8.349  1.3720  1.4096  0.0658
  114OSM   H18T11921   1.154   5.325   8.199 -0.2409  1.2291  0.0087
  114OSM   H18U11922   1.075   5.368   8.354 -0.2217 -0.3670  0.2343
  114OSM    C1F11923   1.154   5.153   9.744  0.8125  0.1445 -0.1920
  114OSM     OF11924   1.123   5.137   9.863  0.4347 -0.1594  0.1263
  114OSM    C2F11925   1.136   5.046   9.643  0.1010 -0.3920  0.2562
  114OSM    H2F11926   1.130   4.944   9.686  2.5427 -0.4035  0.6297
  114OSM    H2G11927   1.214   5.044   9.564  1.1371 -0.3669  1.2654
  114OSM    C3F11928   1.002   5.069   9.562 -0.8120  0.1089 -0.1205
  114OSM    H3F11929   0.919   5.057   9.635  0.1166  0.0493  0.9353
  114OSM    H3G11930   0.994   4.973   9.506 -2.4299 -0.0887  0.4060
  114OSM    C4F11931   0.990   5.187   9.469  0.3119 -0.9930 -0.2747
  114OSM    H4F11932   0.966   5.282   9.521 -0.0635 -0.3607 -1.5870
  114OSM    H4G11933   0.902   5.159   9.407 -0.0879  0.0944 -0.2236
  114OSM    C5F11934   1.107   5.207   9.372 -0.4785 -0.6720 -0.3067
  114OSM    H5F11935   1.200   5.207   9.433  0.0969 -0.2137 -1.1718
  114OSM    H5G11936   1.113   5.310   9.330 -1.7318 -0.2572  0.5209
  114OSM    C6F11937   1.120   5.097   9.267 -0.5113  0.2783 -0.1858
  114OSM    H6F11938   1.073   5.120   9.169  1.4226  1.4467 -0.8637
  114OSM    H6G11939   1.061   5.010   9.303 -1.6323 -0.3006 -3.2560
  114OSM    C7F11940   1.265   5.058   9.229  0.1138  0.5610  0.3023
  114OSM    H7F11941   1.254   4.953   9.195  0.9525  0.7838 -0.6685
  114OSM    H7G11942   1.330   5.058   9.319 -0.5871  0.4604  0.8107
  114OSM    C8F11943   1.331   5.149   9.119  0.6695  1.2394 -0.5188
  114OSM    H8F11944   1.253   5.179   9.045 -0.8532 -0.3437  0.4122
  114OSM    H8G11945   1.414   5.102   9.063 -0.1366  0.2215 -0.8709
  114OSM    C9F11946   1.403   5.267   9.199  0.5197  0.6011  1.1400
  114OSM    H9F11947   1.338   5.344   9.242  3.2696  3.3126  0.5980
  114OSM   C10F11948   1.538   5.287   9.213 -0.0448 -0.0498 -0.8789
  114OSM   H10F11949   1.569   5.380   9.263  0.6692 -0.7350 -0.0199
  114OSM   C11F11950   1.646   5.201   9.159  0.4184 -0.2161  0.4069
  114OSM   H11F11951   1.619   5.093   9.169 -1.3363 -0.1261 -2.7091
  114OSM   H11G11952   1.743   5.218   9.211  1.1268 -2.6138 -0.0279
  114OSM   C12F11953   1.662   5.224   9.010  0.3256 -0.4711  0.2265
  114OSM   H12F11954   1.570   5.201   8.952  0.2255  2.1414 -0.6700
  114OSM   H12G11955   1.743   5.162   8.966 -0.9877 -2.4323  0.5033
  114OSM   C13F11956   1.684   5.370   8.973  0.2753  0.1881 -0.3283
  114OSM   H13F11957   1.768   5.416   9.028  0.1949  2.0466 -1.6738
  114OSM   H13G11958   1.596   5.420   9.019  0.1526 -0.0825 -0.2671
  114OSM   C14F11959   1.675   5.401   8.826  0.4046  0.1376 -0.6952
  114OSM   H14F11960   1.653   5.508   8.809 -0.1762  0.0960 -0.2071
  114OSM   H14G11961   1.592   5.338   8.787 -0.9566  0.8932  0.9407
  114OSM   C15F11962   1.805   5.363   8.750  0.0148  0.6108 -0.0124
  114OSM   H15F11963   1.853   5.274   8.797  1.2876  1.1778 -0.2132
  114OSM   H15G11964   1.880   5.445   8.754  1.5646 -0.6770 -1.5409
  114OSM   C16F11965   1.785   5.330   8.595 -0.8217 -0.1238 -0.5959
  114OSM   H16F11966   1.882   5.343   8.541 -0.8406 -1.4075 -0.9506
  114OSM   H16G11967   1.725   5.415   8.556 -0.4042  0.2895 -0.3580
  114OSM   C17F11968   1.705   5.204   8.560 -0.0005  0.0759  0.0110
  114OSM   H17F11969   1.595   5.219   8.568 -0.1244 -1.4434  1.6073
  114OSM   H17G11970   1.725   5.130   8.641 -0.5442 -0.2595 -0.1633
  114OSM   C18F11971   1.718   5.149   8.429  0.3654  0.0934  0.2030
  114OSM   H18F11972   1.827   5.139   8.410 -0.0197 -1.5601 -1.2693
  114OSM   H18G11973   1.672   5.194   8.338  0.4295 -0.2137  0.0135
  114OSM   H18H11974   1.662   5.053   8.429  0.0246  0.2875 -0.4605
  115OSM      N11975   6.455   3.298   9.936 -0.6529  0.5436 -0.4998
  115OSM    C1511976   6.365   3.273   9.822  0.3935 -0.8360 -0.1625
  115OSM   H15A11977   6.363   3.172   9.783 -1.5113  0.1087 -2.6530
  115OSM   H15B11978   6.375   3.349   9.746  0.0023 -1.6723 -1.0687
  115OSM   H15C11979   6.266   3.279   9.865  1.8317  1.3106  3.0370
  115OSM    C1411980   6.443   3.196  10.048 -0.3192 -0.7584  0.3408
  115OSM   H14A11981   6.478   3.099  10.018  0.2246 -0.2970 -0.5301
  115OSM   H14B11982   6.343   3.180  10.086 -1.2002  1.0717 -1.1043
  115OSM   H14C11983   6.508   3.222  10.130  1.1934  1.4386 -1.5022
  115OSM    C1311984   6.598   3.281   9.880 -0.1747 -0.0981  0.2640
  115OSM   H13A11985   6.603   3.189   9.823  0.7358  1.4229 -2.1940
  115OSM   H13B11986   6.668   3.275   9.962  1.2620 -0.6453 -0.9639
  115OSM   H13C11987   6.625   3.369   9.824  2.2091 -1.4016 -0.7149
  115OSM    C1211988   6.432   3.441   9.985  0.4721  0.8674 -0.2948
  115OSM   H12A11989   6.331   3.437  10.024  0.7260 -1.0397  0.2251
  115OSM   H12B11990   6.421   3.513   9.905 -0.4708 -0.6567 -1.5545
  115OSM    C1111991   6.528   3.510  10.089  0.3987 -0.4170 -1.1348
  115OSM   H11A11992   6.566   3.440  10.167  0.9797 -0.2654 -1.2840
  115OSM   H11B11993   6.469   3.588  10.143  0.1656 -1.0752 -0.4228
  115OSM      P11994   6.628   3.700   9.939 -0.1819 -0.2079 -0.0326
  115OSM    O1311995   6.549   3.804  10.012 -0.6829  0.1081  0.5044
  115OSM    O1411996   6.761   3.735   9.890 -0.2180 -0.0102  0.2970
  115OSM    O1111997   6.534   3.651   9.824 -0.0528  0.0594 -0.4153
  115OSM    O1211998   6.638   3.563  10.031  0.0661 -0.1226  0.5993
  115OSM    C1S11999   6.497   3.739   9.713  0.0131 -0.5600  0.0989
  115OSM    H1S12000   6.498   3.847   9.737  0.3207 -0.8099  1.2009
  115OSM    H1T12001   6.400   3.711   9.666  0.5633 -3.0912  0.3970
  115OSM     NF12002   6.556   3.835   9.495  0.2299  0.1732  0.2784
  115OSM    HNF12003   6.542   3.797   9.404 -0.6341 -1.7641  1.1999
  115OSM    C2S12004   6.600   3.745   9.600 -0.2100  0.6110 -0.0448
  115OSM    H2S12005   6.693   3.783   9.648 -1.3532  1.9827  1.1369
  115OSM    C3S12006   6.610   3.602   9.544  0.1613 -0.1257 -0.1923
  115OSM    H3S12007   6.511   3.558   9.522  0.1382  0.6787 -1.7273
  115OSM     O312008   6.674   3.505   9.630  0.1024  0.0793  0.0768
  115OSM    HO312009   6.670   3.553   9.712  0.6017  0.2591 -0.0029
  115OSM    C4S12010   6.695   3.613   9.421  0.4479 -0.1642 -1.5019
  115OSM    H4S12011   6.786   3.674   9.435  0.3304 -0.2729 -0.2066
  115OSM    C5S12012   6.656   3.586   9.297  0.6681 -0.0588  0.0519
  115OSM    H5S12013   6.561   3.532   9.291 -0.1973  1.1368  2.4519
  115OSM    C6S12014   6.734   3.600   9.166 -0.0515  0.6119 -0.1583
  115OSM    H6S12015   6.722   3.511   9.100  1.3120 -0.0672  0.4848
  115OSM    H6T12016   6.843   3.613   9.182 -0.2940 -0.0239  2.1230
  115OSM    C7S12017   6.693   3.722   9.084  0.7971  0.1060  0.5463
  115OSM    H7S12018   6.690   3.818   9.140 -2.0468  0.0357  0.5881
  115OSM    H7T12019   6.586   3.698   9.064  1.1907 -2.2742  1.1866
  115OSM    C8S12020   6.766   3.739   8.954 -0.4117 -0.3444  0.2187
  115OSM    H8S12021   6.789   3.643   8.904 -0.6228  0.0402 -0.6172
  115OSM    H8T12022   6.859   3.789   8.988  0.3032 -2.1509  1.0057
  115OSM    C9S12023   6.694   3.832   8.856 -0.4301 -0.6998  0.6346
  115OSM    H9S12024   6.677   3.925   8.914 -0.4851 -2.0798  2.9088
  115OSM    H9T12025   6.590   3.801   8.836 -1.4062  0.7362  3.2525
  115OSM   C10S12026   6.760   3.839   8.717 -0.6612  0.1960  1.1304
  115OSM   H10S12027   6.742   3.737   8.678  0.4546 -0.2988  1.8939
  115OSM   H10T12028   6.866   3.867   8.737  0.2010 -1.3020 -1.1726
  115OSM   C11S12029   6.717   3.958   8.623  0.2188 -0.4431  0.5059
  115OSM   H11S12030   6.743   4.053   8.673  2.2043 -1.2240  1.0216
  115OSM   H11T12031   6.607   3.954   8.607 -0.1038  1.2199  2.0847
  115OSM   C12S12032   6.785   3.973   8.484  0.0674  0.2335 -0.1749
  115OSM   H12S12033   6.896   3.967   8.496  0.2167 -0.0844 -1.6207
  115OSM   H12T12034   6.760   4.078   8.455 -1.7325  0.0549  0.6855
  115OSM   C13S12035   6.745   3.863   8.387 -0.5040 -0.4209  0.9698
  115OSM   H13S12036   6.635   3.849   8.381 -0.3349 -0.6104 -2.1829
  115OSM   H13T12037   6.791   3.771   8.430  1.8966  0.2791 -0.0406
  115OSM   C14S12038   6.813   3.889   8.250  0.7059  0.5897  0.0746
  115OSM   H14S12039   6.787   3.811   8.175 -1.7366  2.2657 -0.8804
  115OSM   H14T12040   6.919   3.894   8.280  0.3978  1.4175  1.0350
  115OSM   C15S12041   6.775   4.021   8.181 -0.3069  0.1928 -0.0899
  115OSM   H15S12042   6.820   4.034   8.080  3.4772  3.0618  1.8748
  115OSM   H15T12043   6.822   4.101   8.241  1.4246 -1.1917  0.4533
  115OSM   C16S12044   6.626   4.026   8.174  0.1838 -0.5753 -0.0927
  115OSM   H16S12045   6.582   4.020   8.276  0.0656 -0.9218 -0.1635
  115OSM   H16T12046   6.590   3.949   8.103  0.9714 -0.5879 -0.4836
  115OSM   C17S12047   6.576   4.167   8.126  0.0526 -0.3614  0.0749
  115OSM   H17S12048   6.476   4.151   8.080  1.1720 -1.0738 -2.1778
  115OSM   H17T12049   6.633   4.206   8.039 -2.1620  0.9027 -0.8327
  115OSM   C18S12050   6.566   4.286   8.225 -0.2073  0.0915 -0.3507
  115OSM   H18S12051   6.668   4.304   8.265 -1.1230  0.5520  1.8182
  115OSM   H18T12052   6.487   4.258   8.298 -1.4134 -0.5170 -1.8420
  115OSM   H18U12053   6.539   4.379   8.169 -1.6629  0.2803  0.6391
  115OSM    C1F12054   6.546   3.963   9.518  0.1489  0.2208  0.4831
  115OSM     OF12055   6.596   4.010   9.620  0.1766 -0.8824  0.3413
  115OSM    C2F12056   6.474   4.046   9.423 -0.3171 -0.1039 -0.3794
  115OSM    H2F12057   6.501   4.150   9.448  0.2482 -0.1084 -0.9413
  115OSM    H2G12058   6.365   4.040   9.442 -0.5926 -2.3822 -2.3830
  115OSM    C3F12059   6.517   4.019   9.272 -0.1455  0.0653  0.2383
  115OSM    H3F12060   6.512   3.910   9.251  0.5250 -0.0864  0.8314
  115OSM    H3G12061   6.625   4.044   9.280 -0.1488  0.3763 -0.6453
  115OSM    C4F12062   6.449   4.111   9.172  0.4562 -0.6078 -0.6941
  115OSM    H4F12063   6.445   4.217   9.206 -2.0515 -1.1728  0.9390
  115OSM    H4G12064   6.339   4.096   9.180  0.4407 -0.8102 -1.2662
  115OSM    C5F12065   6.486   4.090   9.023  0.1772  0.5249  0.1382
  115OSM    H5F12066   6.488   3.979   9.010 -0.9282  0.6678 -1.4290
  115OSM    H5G12067   6.588   4.125   8.999  2.0271 -4.3622  0.2212
  115OSM    C6F12068   6.377   4.132   8.925 -0.6259  0.0695 -0.5593
  115OSM    H6F12069   6.338   4.228   8.964 -1.5795 -0.8358  0.7566
  115OSM    H6G12070   6.295   4.058   8.938  2.3756 -3.2771  0.0033
  115OSM    C7F12071   6.414   4.125   8.773  0.2406 -0.4479  0.4895
  115OSM    H7F12072   6.478   4.039   8.742  1.2478  0.1725  0.8513
  115OSM    H7G12073   6.466   4.217   8.740 -0.0400 -0.2305  0.6492
  115OSM    C8F12074   6.298   4.131   8.678 -0.0745 -0.6249  0.6591
  115OSM    H8F12075   6.327   4.161   8.575 -0.7144 -0.9859  0.3656
  115OSM    H8G12076   6.230   4.216   8.697  0.1538 -0.7297  1.9468
  115OSM    C9F12077   6.221   4.006   8.672  0.7697  0.0110  0.0092
  115OSM    H9F12078   6.178   3.979   8.769  1.9246  0.4895  0.6604
  115OSM   C10F12079   6.186   3.937   8.559 -1.1908  0.2302 -0.7262
  115OSM   H10F12080   6.109   3.859   8.567 -1.8003  0.9893  1.0646
  115OSM   C11F12081   6.218   3.976   8.416  0.2199 -0.0155 -0.1660
  115OSM   H11F12082   6.273   3.896   8.363 -0.4917  0.2906 -1.3779
  115OSM   H11G12083   6.293   4.058   8.411 -0.3026  0.4193 -0.9285
  115OSM   C12F12084   6.082   3.998   8.353 -0.2072 -0.3555 -0.3808
  115OSM   H12F12085   6.017   4.069   8.410  0.6252  0.6499 -0.6798
  115OSM   H12G12086   6.027   3.902   8.360 -1.0324  0.2833  3.2134
  115OSM   C13F12087   6.078   4.060   8.208 -0.0902 -0.4962 -0.0001
  115OSM   H13F12088   5.972   4.065   8.174 -0.8355  1.2728  2.4863
  115OSM   H13G12089   6.140   3.995   8.142  2.4429  0.1787  1.6669
  115OSM   C14F12090   6.131   4.206   8.201  0.3657  0.4689  0.5151
  115OSM   H14F12091   6.240   4.216   8.220  0.7706  0.5294 -1.6912
  115OSM   H14G12092   6.087   4.267   8.282 -0.9556 -2.0397  1.7626
  115OSM   C15F12093   6.110   4.272   8.061  0.1374  0.9075 -0.4274
  115OSM   H15F12094   6.127   4.381   8.073  2.4295  0.8685 -2.8545
  115OSM   H15G12095   6.005   4.254   8.030  0.1195 -0.5123  0.4125
  115OSM   C16F12096   6.208   4.220   7.959 -0.1950 -0.0302 -1.0489
  115OSM   H16F12097   6.200   4.109   7.965  2.1065 -0.1911 -0.5202
  115OSM   H16G12098   6.310   4.242   7.996 -1.0395  1.9426  0.1808
  115OSM   C17F12099   6.173   4.263   7.818 -0.0726  0.3439  0.0004
  115OSM   H17F12100   6.086   4.196   7.799  0.7405 -1.2979  1.8865
  115OSM   H17G12101   6.260   4.226   7.761 -0.7383 -0.5787 -0.4324
  115OSM   C18F12102   6.136   4.407   7.773 -0.4629  0.2306 -0.1474
  115OSM   H18F12103   6.112   4.418   7.665 -0.4188  0.8941 -0.0862
  115OSM   H18G12104   6.215   4.480   7.799 -1.2200  0.5907  1.2139
  115OSM   H18H12105   6.041   4.432   7.826  0.1489 -1.7902  2.0089
  116OSM      N12106   2.260   0.466  10.507 -0.4869  0.2173 -0.1509
  116OSM    C1512107   2.116   0.455  10.561  0.2624 -0.1713 -0.2153
  116OSM   H15A12108   2.087   0.554  10.593 -1.2227 -0.4611 -0.6428
  116OSM   H15B12109   2.105   0.395  10.651 -2.6691  1.0808  0.3170
  116OSM   H15C12110   2.046   0.422  10.486  2.4561 -0.5714 -2.1465
  116OSM    C1412111   2.345   0.533  10.607  0.4355 -0.2038 -0.0228
  116OSM   H14A12112   2.450   0.518  10.589  0.3293 -0.9812 -0.0483
  116OSM   H14B12113   2.329   0.495  10.707 -0.2998 -1.5907 -0.6516
  116OSM   H14C12114   2.327   0.639  10.606  0.0236 -0.2220 -4.2585
  116OSM    C1312115   2.308   0.318  10.497  0.1803 -0.0181 -0.2387
  116OSM   H13A12116   2.240   0.257  10.439  1.2639 -0.1471 -1.3904
  116OSM   H13B12117   2.310   0.270  10.594  0.4081  2.8108  1.2128
  116OSM   H13C12118   2.406   0.312  10.451  0.6851  0.2464  0.7719
  116OSM    C1212119   2.268   0.537  10.385 -1.2751 -0.1589  1.0688
  116OSM   H12A12120   2.367   0.569  10.355 -1.4848 -2.2854 -2.1407
  116OSM   H12B12121   2.213   0.628  10.402 -3.4273 -1.0312 -0.9152
  116OSM    C1112122   2.199   0.470  10.263  0.4362 -0.6713 -0.1168
  116OSM   H11A12123   2.204   0.548  10.184  0.9061  0.9059  1.4352
  116OSM   H11B12124   2.095   0.449  10.295 -0.1700  0.6607 -1.1382
  116OSM      P12125   2.248   0.286  10.087  0.3676  0.1585 -0.3832
  116OSM    O1312126   2.339   0.169  10.081  0.0026  0.6032  0.4411
  116OSM    O1412127   2.109   0.253  10.055  0.1152 -0.1440 -0.4376
  116OSM    O1112128   2.293   0.405   9.992  0.0866  0.0823  0.0369
  116OSM    O1212129   2.268   0.347  10.227  0.0269  0.3543  0.5973
  116OSM    C1S12130   2.414   0.469  10.009  0.3228 -0.0149  0.2765
  116OSM    H1S12131   2.479   0.426  10.088 -0.1406  1.1061  1.2919
  116OSM    H1T12132   2.404   0.575  10.041  0.9633  0.5931 -1.4602
  116OSM     NF12133   2.622   0.537   9.896  0.5515  0.4802 -0.6598
  116OSM    HNF12134   2.638   0.630   9.865 -0.2572  1.7507  2.5989
  116OSM    C2S12135   2.488   0.475   9.872  0.4208  0.2131 -0.2801
  116OSM    H2S12136   2.497   0.367   9.845  0.8511 -0.3434  1.9075
  116OSM    C3S12137   2.407   0.567   9.771 -0.9358  0.3422  0.3100
  116OSM    H3S12138   2.401   0.669   9.813 -0.7378  0.7118 -0.5349
  116OSM     O312139   2.274   0.521   9.767  0.0441  0.5883  0.4916
  116OSM    HO312140   2.267   0.461   9.841  1.5324 -1.7136 -1.1560
  116OSM    C4S12141   2.478   0.569   9.638 -0.5001  0.7124  0.0494
  116OSM    H4S12142   2.572   0.626   9.629 -0.3681  0.1850 -2.0284
  116OSM    C5S12143   2.445   0.503   9.524 -0.3309 -0.2878 -0.5295
  116OSM    H5S12144   2.356   0.439   9.517 -0.7247  0.2638 -0.5717
  116OSM    C6S12145   2.534   0.518   9.411  0.1066 -0.0400 -0.1964
  116OSM    H6S12146   2.540   0.622   9.374 -2.6388  0.3914  0.4395
  116OSM    H6T12147   2.488   0.465   9.324  1.9409 -2.3950  0.2249
  116OSM    C7S12148   2.672   0.446   9.419  0.5095  0.3658 -0.4968
  116OSM    H7S12149   2.655   0.337   9.408 -3.3096  0.7632  0.6729
  116OSM    H7T12150   2.703   0.463   9.524 -1.3334 -0.1002  0.1317
  116OSM    C8S12151   2.779   0.489   9.310  0.0562  0.3358 -0.1254
  116OSM    H8S12152   2.876   0.436   9.327 -1.2051 -1.7218  0.9123
  116OSM    H8T12153   2.793   0.597   9.331  1.6868 -0.1221  1.2703
  116OSM    C9S12154   2.739   0.466   9.161 -0.1210 -0.9308  0.3979
  116OSM    H9S12155   2.634   0.498   9.144  0.9555  1.3311 -2.2802
  116OSM    H9T12156   2.758   0.358   9.141  0.8936 -0.7060  0.1451
  116OSM   C10S12157   2.824   0.552   9.067  0.2377 -0.7240 -0.5686
  116OSM   H10S12158   2.932   0.527   9.078 -0.5380 -3.6025  1.1394
  116OSM   H10T12159   2.804   0.660   9.087 -1.7823 -0.8207 -2.0272
  116OSM   C11S12160   2.778   0.542   8.917  0.5246 -0.7731  0.1244
  116OSM   H11S12161   2.683   0.599   8.911 -0.1780 -1.7856  1.3740
  116OSM   H11T12162   2.747   0.438   8.894 -1.5255 -0.3811  1.0247
  116OSM   C12S12163   2.875   0.603   8.815 -0.1667  0.4882 -0.0780
  116OSM   H12S12164   2.955   0.654   8.872  1.4846 -2.1700  0.0690
  116OSM   H12T12165   2.831   0.689   8.760 -0.8578  0.9470  1.1629
  116OSM   C13S12166   2.936   0.494   8.732  0.1104  0.6271  0.1164
  116OSM   H13S12167   2.859   0.443   8.670  0.4308 -0.8070  0.8681
  116OSM   H13T12168   2.986   0.415   8.792  0.8085  0.7789 -0.2701
  116OSM   C14S12169   3.052   0.548   8.644 -0.2441 -0.7099  0.1526
  116OSM   H14S12170   3.122   0.599   8.714 -0.5840  1.0691 -0.7839
  116OSM   H14T12171   3.022   0.628   8.574  0.5765 -0.5556 -0.0269
  116OSM   C15S12172   3.126   0.439   8.567 -0.1304  0.4249 -0.5298
  116OSM   H15S12173   3.058   0.382   8.501  2.3052 -0.8197 -2.0713
  116OSM   H15T12174   3.168   0.362   8.636 -1.1964 -1.2118 -1.6757
  116OSM   C16S12175   3.230   0.489   8.468  0.1221 -0.0106 -0.9640
  116OSM   H16S12176   3.295   0.404   8.439 -0.1127 -0.7055  0.4934
  116OSM   H16T12177   3.300   0.555   8.523  0.3448 -2.1344  1.3796
  116OSM   C17S12178   3.175   0.552   8.342  0.9656  0.3108 -0.0452
  116OSM   H17S12179   3.141   0.654   8.368 -2.7373 -0.1050 -2.8033
  116OSM   H17T12180   3.091   0.493   8.299  0.5987  0.4008  0.5443
  116OSM   C18S12181   3.266   0.566   8.228 -0.1473 -0.1501 -0.8029
  116OSM   H18S12182   3.312   0.470   8.199  3.8349  1.2335  0.5694
  116OSM   H18T12183   3.352   0.630   8.259 -0.0968 -0.9311  0.6872
  116OSM   H18U12184   3.221   0.619   8.141  0.8960  1.3399 -0.4602
  116OSM    C1F12185   2.724   0.474   9.959 -0.5727  0.3586 -0.1930
  116OSM     OF12186   2.726   0.351   9.953  0.3429  0.1733  1.0703
  116OSM    C2F12187   2.839   0.558  10.011  1.2244  0.7194  0.6179
  116OSM    H2F12188   2.862   0.531  10.116  1.8528 -0.0889  0.2722
  116OSM    H2G12189   2.801   0.662   9.999 -1.0350  0.2057  2.8457
  116OSM    C3F12190   2.971   0.540   9.929 -0.0210  1.2695  0.5822
  116OSM    H3F12191   2.960   0.566   9.821  0.1872 -1.5314 -0.1590
  116OSM    H3G12192   3.013   0.437   9.935  1.4904  1.7737 -0.9665
  116OSM    C4F12193   3.082   0.623   9.995 -0.0465 -0.2498 -0.2652
  116OSM    H4F12194   3.128   0.577  10.085  0.3572  1.9386  0.6795
  116OSM    H4G12195   3.051   0.728  10.015 -3.8201 -1.2793 -0.2984
  116OSM    C5F12196   3.200   0.649   9.890 -0.6131  0.6481  0.1061
  116OSM    H5F12197   3.169   0.665   9.784 -0.6612  0.5919  0.1127
  116OSM    H5G12198   3.263   0.558   9.893  0.7936  1.3888 -4.0514
  116OSM    C6F12199   3.292   0.765   9.927 -0.7783  0.3022  0.1125
  116OSM    H6F12200   3.281   0.771  10.038 -1.1860  2.6652 -0.0304
  116OSM    H6G12201   3.272   0.863   9.880 -1.9118 -0.0328 -0.1209
  116OSM    C7F12202   3.435   0.733   9.888 -0.0837 -0.1567 -0.0423
  116OSM    H7F12203   3.457   0.634   9.934 -1.2406  0.2418  1.3532
  116OSM    H7G12204   3.490   0.821   9.928  0.2939 -0.3111 -0.2108
  116OSM    C8F12205   3.474   0.725   9.734  0.4764  0.5289  0.7694
  116OSM    H8F12206   3.425   0.635   9.691 -2.4967  2.4339 -0.0130
  116OSM    H8G12207   3.585   0.725   9.729  0.5419 -1.8184  1.9243
  116OSM    C9F12208   3.430   0.847   9.655 -0.1503  0.2166  0.5280
  116OSM    H9F12209   3.419   0.942   9.709  0.5118 -0.1075  1.2577
  116OSM   C10F12210   3.394   0.850   9.526  0.9539 -0.1286 -0.7341
  116OSM   H10F12211   3.357   0.949   9.495  0.7877  0.1930  0.4667
  116OSM   C11F12212   3.390   0.738   9.429 -0.1227  0.7077  0.4982
  116OSM   H11F12213   3.285   0.706   9.409 -0.1174 -0.2946  1.9372
  116OSM   H11G12214   3.446   0.651   9.470 -1.4271  0.5485  2.0282
  116OSM   C12F12215   3.458   0.782   9.298 -0.1711  0.1517 -0.3229
  116OSM   H12F12216   3.561   0.813   9.325 -0.7264 -0.6491  2.8579
  116OSM   H12G12217   3.409   0.872   9.256 -0.1061  0.8015  0.9739
  116OSM   C13F12218   3.462   0.669   9.202 -0.1282  0.1636  0.4105
  116OSM   H13F12219   3.356   0.637   9.191 -0.4177  0.2482  2.6236
  116OSM   H13G12220   3.513   0.583   9.252  1.3068  1.3510  1.0218
  116OSM   C14F12221   3.533   0.699   9.075 -0.4788 -0.1636 -0.7193
  116OSM   H14F12222   3.643   0.708   9.088 -0.4440 -1.4616  0.0407
  116OSM   H14G12223   3.492   0.785   9.017  0.4819  1.8033  1.4395
  116OSM   C15F12224   3.507   0.571   8.989  0.2411  0.6927  0.2320
  116OSM   H15F12225   3.397   0.560   8.972  0.2614  0.7896  0.0363
  116OSM   H15G12226   3.536   0.480   9.046 -0.4242  0.8819  0.8852
  116OSM   C16F12227   3.589   0.573   8.861  0.0826 -0.1763  0.5999
  116OSM   H16F12228   3.696   0.548   8.880 -0.3668 -2.9745 -0.2207
  116OSM   H16G12229   3.602   0.678   8.830 -1.5035  0.0048  0.5107
  116OSM   C17F12230   3.522   0.485   8.766 -0.9466  0.3267  0.0719
  116OSM   H17F12231   3.425   0.536   8.746 -1.6009 -1.3610 -1.2482
  116OSM   H17G12232   3.499   0.397   8.830 -3.5313 -0.6645 -2.0884
  116OSM   C18F12233   3.596   0.445   8.633 -0.1999  0.2125 -0.0557
  116OSM   H18F12234   3.630   0.537   8.581  1.3867  1.5317  3.2274
  116OSM   H18G12235   3.536   0.373   8.574  0.6460  0.4601 -1.2375
  116OSM   H18H12236   3.686   0.392   8.671  0.0238  1.4653  1.2072
  117OSM      N12237   1.861   0.567  10.016  0.2861  0.5249  0.8887
  117OSM    C1512238   1.865   0.685  10.099  0.7253  0.5056 -0.8393
  117OSM   H15A12239   1.864   0.768  10.030 -0.1856  0.1812 -1.2122
  117OSM   H15B12240   1.956   0.685  10.157  2.3853 -1.2881 -3.3457
  117OSM   H15C12241   1.778   0.692  10.163  1.6106  0.7355  0.3684
  117OSM    C1412242   1.978   0.558   9.932 -0.1214 -0.3049 -0.0695
  117OSM   H14A12243   2.074   0.587   9.971 -0.2685 -1.3029  1.0624
  117OSM   H14B12244   1.968   0.628   9.851  1.5362 -0.1353 -0.1397
  117OSM   H14C12245   1.988   0.458   9.894  2.0286 -0.1687  0.1095
  117OSM    C1312246   1.853   0.451  10.110 -0.4944 -0.2242 -0.0599
  117OSM   H13A12247   1.826   0.480  10.211 -0.7931  0.7270 -0.4039
  117OSM   H13B12248   1.953   0.411  10.119  0.1932  1.5666  0.5613
  117OSM   H13C12249   1.780   0.383  10.069 -1.2454  0.3485  0.2975
  117OSM    C1212250   1.740   0.571   9.923  0.3590  0.2534 -0.1120
  117OSM   H12A12251   1.653   0.562   9.987  0.0387 -1.8803 -0.8008
  117OSM   H12B12252   1.760   0.492   9.852  1.4023  1.1668 -0.8485
  117OSM    C1112253   1.725   0.697   9.835  0.3887  0.0566 -0.3902
  117OSM   H11A12254   1.633   0.683   9.775 -0.3770  1.0430  0.5317
  117OSM   H11B12255   1.814   0.716   9.771  1.5832 -0.7636  1.0126
  117OSM      P12256   1.560   0.844   9.978 -0.1302  0.1390 -0.1851
  117OSM    O1312257   1.461   0.733   9.988 -0.5984  0.2500  0.4077
  117OSM    O1412258   1.592   0.910  10.106  0.6321  0.1147  0.2592
  117OSM    O1112259   1.505   0.948   9.873 -0.9384  0.4076 -0.0618
  117OSM    O1212260   1.697   0.808   9.907  0.1197  0.1214  0.1936
  117OSM    C1S12261   1.447   0.906   9.751 -0.5329  0.6752 -0.6770
  117OSM    H1S12262   1.341   0.884   9.774  0.3583 -1.3778  1.6016
  117OSM    H1T12263   1.496   0.818   9.704 -1.1432  0.6832 -1.3369
  117OSM     NF12264   1.576   0.993   9.553  0.1165  0.1679  0.4337
  117OSM    HNF12265   1.654   1.042   9.592  1.2271 -0.3994 -1.0204
  117OSM    C2S12266   1.449   1.002   9.633  0.4673 -0.5110  0.1656
  117OSM    H2S12267   1.363   0.977   9.567 -0.6389 -0.7400  1.6794
  117OSM    C3S12268   1.412   1.148   9.684 -0.0029  0.4621 -0.6070
  117OSM    H3S12269   1.491   1.187   9.752 -1.5828  2.0104  0.3981
  117OSM     O312270   1.304   1.144   9.776 -0.2707 -0.4019  0.3472
  117OSM    HO312271   1.307   1.055   9.813 -2.8460 -0.3538  0.7670
  117OSM    C4S12272   1.375   1.225   9.559  0.1270 -0.1929  0.4248
  117OSM    H4S12273   1.467   1.274   9.523  0.0174  0.0395  0.4545
  117OSM    C5S12274   1.259   1.239   9.494 -0.2609  0.2149 -0.5815
  117OSM    H5S12275   1.174   1.178   9.527 -0.3551  0.8845  0.4474
  117OSM    C6S12276   1.243   1.322   9.359 -0.3333  0.2399  0.1848
  117OSM    H6S12277   1.164   1.399   9.368  0.4884  1.1558 -0.4025
  117OSM    H6T12278   1.201   1.250   9.286 -0.3523  1.3243 -0.8783
  117OSM    C7S12279   1.368   1.371   9.291 -0.0728  0.0579 -0.4363
  117OSM    H7S12280   1.417   1.276   9.264  1.4572  0.1441  1.8313
  117OSM    H7T12281   1.430   1.426   9.365  2.6250  2.3023 -4.1587
  117OSM    C8S12282   1.330   1.469   9.186  0.5323  0.3629 -0.0370
  117OSM    H8S12283   1.284   1.559   9.233 -1.4559 -1.7138  2.1145
  117OSM    H8T12284   1.262   1.423   9.111 -0.4499  1.2886  0.2719
  117OSM    C9S12285   1.449   1.527   9.113 -0.0649 -0.5881  0.0018
  117OSM    H9S12286   1.515   1.452   9.064 -0.2382 -0.6931 -0.0712
  117OSM    H9T12287   1.520   1.567   9.189  2.6807 -3.9736 -0.6568
  117OSM   C10S12288   1.408   1.627   9.007  0.2217  0.3884  0.1283
  117OSM   H10S12289   1.484   1.708   9.009 -0.3600  0.9037  1.8830
  117OSM   H10T12290   1.313   1.674   9.039 -0.5356  0.3356 -1.9587
  117OSM   C11S12291   1.383   1.565   8.863 -0.4292  0.4076  0.1613
  117OSM   H11S12292   1.309   1.482   8.864  1.4703 -1.3349 -0.3199
  117OSM   H11T12293   1.485   1.534   8.830 -0.8489 -1.5546  0.6613
  117OSM   C12S12294   1.343   1.663   8.754  0.3541  0.4246 -0.1627
  117OSM   H12S12295   1.252   1.723   8.777 -1.9692 -2.0781 -2.4056
  117OSM   H12T12296   1.326   1.599   8.665  0.9426 -1.4670  1.0572
  117OSM   C13S12297   1.451   1.769   8.719  0.2134  1.1551  0.1765
  117OSM   H13S12298   1.540   1.716   8.679  0.3330  2.4810 -1.3449
  117OSM   H13T12299   1.500   1.821   8.804 -1.0780  1.8325  0.5147
  117OSM   C14S12300   1.407   1.880   8.617  0.3761  0.5462  0.5157
  117OSM   H14S12301   1.492   1.894   8.546 -2.3677  2.2868 -2.5778
  117OSM   H14T12302   1.384   1.975   8.670 -0.3476 -0.4430  2.0140
  117OSM   C15S12303   1.295   1.850   8.508 -0.8813 -0.6343 -0.3086
  117OSM   H15S12304   1.199   1.862   8.561 -1.0278 -1.0232 -0.4846
  117OSM   H15T12305   1.297   1.742   8.482 -1.3056 -0.8774  0.6532
  117OSM   C16S12306   1.310   1.944   8.379  0.8183 -0.0995  0.0042
  117OSM   H16S12307   1.402   1.910   8.326  0.3541  0.3775 -1.1194
  117OSM   H16T12308   1.327   2.051   8.403 -1.5756  0.4847 -0.8548
  117OSM   C17S12309   1.193   1.919   8.273  0.7671 -0.8226 -0.1148
  117OSM   H17S12310   1.100   1.953   8.324  0.5730 -0.4123 -0.7363
  117OSM   H17T12311   1.172   1.812   8.251  1.3345 -1.2543  1.3947
  117OSM   C18S12312   1.202   2.012   8.149 -0.3971  0.4506  0.2319
  117OSM   H18S12313   1.234   2.110   8.189  1.3343  0.1583 -0.4053
  117OSM   H18T12314   1.110   2.013   8.086  0.7327  0.7114 -1.4509
  117OSM   H18U12315   1.286   1.977   8.086  0.5651  1.7511  0.7795
  117OSM    C1F12316   1.604   0.889   9.478  0.0361 -0.0200 -0.1130
  117OSM     OF12317   1.515   0.809   9.470 -0.1114 -0.3796  0.2215
  117OSM    C2F12318   1.733   0.870   9.408  0.0233 -0.5314 -0.4014
  117OSM    H2F12319   1.808   0.944   9.442 -0.7304  0.6493 -1.2683
  117OSM    H2G12320   1.713   0.890   9.301 -2.9954  0.0354  0.2120
  117OSM    C3F12321   1.784   0.727   9.420 -0.0724 -0.1692 -0.6743
  117OSM    H3F12322   1.777   0.688   9.524  0.9828 -0.5622 -0.7453
  117OSM    H3G12323   1.894   0.733   9.407  0.3877 -2.0643  1.9506
  117OSM    C4F12324   1.709   0.632   9.319  0.2163 -0.7932 -0.4197
  117OSM    H4F12325   1.604   0.623   9.355  0.0484  1.8965 -0.1296
  117OSM    H4G12326   1.756   0.531   9.330 -0.8879 -1.3787 -1.0153
  117OSM    C5F12327   1.706   0.677   9.173  0.3073  0.0391  0.1492
  117OSM    H5F12328   1.799   0.736   9.157  1.1105 -0.9932  0.9725
  117OSM    H5G12329   1.623   0.750   9.161 -0.8220 -1.3205 -0.5883
  117OSM    C6F12330   1.712   0.568   9.068 -0.2289  0.1751  0.2451
  117OSM    H6F12331   1.636   0.492   9.096 -0.2343  0.0181 -0.1899
  117OSM    H6G12332   1.814   0.529   9.049  0.1117  0.8180  0.7188
  117OSM    C7F12333   1.662   0.626   8.935 -0.1733  0.0479 -1.0003
  117OSM    H7F12334   1.568   0.684   8.950  0.1807 -0.2052  2.5412
  117OSM    H7G12335   1.641   0.538   8.870  4.0827 -1.6794 -0.1852
  117OSM    C8F12336   1.771   0.711   8.874 -0.0957 -0.3811  0.2495
  117OSM    H8F12337   1.851   0.635   8.863  0.1432  0.0059 -0.7206
  117OSM    H8G12338   1.808   0.791   8.942  1.1462 -1.3231  0.7105
  117OSM    C9F12339   1.725   0.766   8.744  0.0711  0.0159 -0.0905
  117OSM    H9F12340   1.618   0.768   8.720  0.3773  0.3110 -1.4435
  117OSM   C10F12341   1.812   0.823   8.659  0.3773  0.3060 -0.0074
  117OSM   H10F12342   1.779   0.866   8.563 -0.8685  0.9912  0.7148
  117OSM   C11F12343   1.962   0.837   8.683  0.0342 -0.0957  0.1503
  117OSM   H11F12344   2.007   0.736   8.683 -1.7325 -0.9434 -2.2360
  117OSM   H11G12345   1.986   0.882   8.781  2.5805 -1.5193  0.2025
  117OSM   C12F12346   2.027   0.930   8.577  0.3071  0.2919  0.5426
  117OSM   H12F12347   2.030   0.878   8.479 -0.8964  1.4888 -0.1506
  117OSM   H12G12348   2.132   0.951   8.606 -0.1722  2.3646  0.8842
  117OSM   C13F12349   1.972   1.077   8.550  0.0881  0.8431 -0.3116
  117OSM   H13F12350   1.962   1.136   8.644 -0.9894 -2.6489  1.8637
  117OSM   H13G12351   1.866   1.079   8.515  0.5020  3.1507 -1.5740
  117OSM   C14F12352   2.060   1.143   8.449 -0.6272  0.4449 -0.3013
  117OSM   H14F12353   2.072   1.083   8.356 -2.1798  0.7753 -0.7328
  117OSM   H14G12354   2.158   1.154   8.499 -0.5931 -0.4052 -0.1756
  117OSM   C15F12355   2.003   1.278   8.418 -0.1581  0.3109  0.2076
  117OSM   H15F12356   1.996   1.336   8.512  1.1635 -2.5094  2.1182
  117OSM   H15G12357   1.903   1.269   8.370 -0.7320 -0.7371  1.5896
  117OSM   C16F12358   2.084   1.344   8.301  0.5816  0.2392 -0.1414
  117OSM   H16F12359   2.072   1.278   8.213 -0.8644  0.1099  0.1404
  117OSM   H16G12360   2.189   1.325   8.333  0.9955  1.8802 -0.4427
  117OSM   C17F12361   2.061   1.496   8.264 -0.1421 -0.4566 -0.6743
  117OSM   H17F12362   2.146   1.553   8.221 -0.4586  1.8175  1.6125
  117OSM   H17G12363   2.030   1.539   8.362  1.7727  1.4165 -0.8804
  117OSM   C18F12364   1.937   1.515   8.183  0.2552  0.7684  0.6093
  117OSM   H18F12365   1.853   1.468   8.238 -0.6398  0.4741 -0.9902
  117OSM   H18G12366   1.939   1.478   8.078 -1.1653 -1.7024  1.4056
  117OSM   H18H12367   1.915   1.624   8.183 -1.0947  0.5143  2.4029
  118OSM      N12368   0.642   2.309  10.054  0.2454 -0.1737  0.0324
  118OSM    C1512369   0.659   2.303   9.904  0.3042 -0.1551 -0.7345
  118OSM   H15A12370   0.564   2.278   9.859  0.3094 -2.3083  0.3621
  118OSM   H15B12371   0.729   2.222   9.886  0.9464  0.3720 -0.6227
  118OSM   H15C12372   0.697   2.396   9.864  0.6124  0.7955  1.7015
  118OSM    C1412373   0.550   2.200  10.092  0.0893  0.3451 -0.0994
  118OSM   H14A12374   0.454   2.210  10.045  0.5710  0.8952 -0.9749
  118OSM   H14B12375   0.537   2.204  10.199  2.5842 -2.6451  0.4022
  118OSM   H14C12376   0.594   2.109  10.054  0.6894 -0.1236  1.6686
  118OSM    C1312377   0.766   2.303  10.138  0.0042  0.3677  1.0226
  118OSM   H13A12378   0.822   2.395  10.129  1.2780 -0.3631  1.4265
  118OSM   H13B12379   0.822   2.218  10.102 -0.9677 -0.0758  0.5272
  118OSM   H13C12380   0.748   2.293  10.243 -0.0544 -2.2773  0.7841
  118OSM    C1212381   0.570   2.435  10.084  0.3331  0.2356 -0.4374
  118OSM   H12A12382   0.498   2.445  10.004 -1.0527  2.8848  1.0831
  118OSM   H12B12383   0.638   2.515  10.058  0.8835  0.1578  0.7587
  118OSM    C1112384   0.496   2.452  10.220 -0.5007 -0.2256 -0.3986
  118OSM   H11A12385   0.447   2.551  10.216 -1.7408 -0.7830  0.4778
  118OSM   H11B12386   0.578   2.468  10.293  0.4260 -2.6112 -0.8604
  118OSM      P12387   0.249   2.383  10.254  0.1740 -0.0189  0.3433
  118OSM    O1312388   0.191   2.251  10.231 -0.4308  0.4673 -0.6890
  118OSM    O1412389   0.198   2.457  10.371 -0.1370 -0.2190  0.5024
  118OSM    O1112390   0.236   2.475  10.123  0.4671  0.5581 -0.1143
  118OSM    O1212391   0.403   2.350  10.275  0.4933 -0.1020  0.0862
  118OSM    C1S12392   0.227   2.402   9.997 -0.1228  0.0535  0.8178
  118OSM    H1S12393   0.145   2.327   9.996  0.0172 -0.0931 -1.3636
  118OSM    H1T12394   0.327   2.353   9.987  0.4901  1.0293  2.0046
  118OSM     NF12395   0.279   2.603   9.844  0.2016 -0.0219  0.3020
  118OSM    HNF12396   0.249   2.689   9.883 -1.0263  0.3758 -1.4578
  118OSM    C2S12397   0.181   2.497   9.879 -0.2765  0.3930 -0.8114
  118OSM    H2S12398   0.174   2.432   9.790  1.8862 -0.7667 -0.1696
  118OSM    C3S12399   0.041   2.549   9.926  0.8611 -0.4002  0.0273
  118OSM    H3S12400   0.051   2.618  10.012 -1.3575 -0.3734  0.3015
  118OSM     O312401  -0.046   2.451   9.978  1.0015  0.0991 -0.1265
  118OSM    HO312402  -0.003   2.369   9.954  3.7284  1.1902  0.8356
  118OSM    C4S12403  -0.021   2.635   9.816 -0.3177 -0.2118 -0.3887
  118OSM    H4S12404   0.002   2.742   9.807  0.2808 -0.4820 -2.2742
  118OSM    C5S12405  -0.105   2.594   9.717 -0.8555  0.4413  0.1065
  118OSM    H5S12406  -0.124   2.486   9.708 -0.5327  0.5749 -2.3928
  118OSM    C6S12407  -0.163   2.680   9.603 -0.0665  0.8412  0.1880
  118OSM    H6S12408  -0.140   2.785   9.631  1.8446  0.2082  1.0306
  118OSM    H6T12409  -0.274   2.670   9.601 -0.0573  0.2588  1.6935
  118OSM    C7S12410  -0.097   2.674   9.457 -0.1875  0.3565  0.9279
  118OSM    H7S12411   0.005   2.640   9.482 -0.4750 -2.0865 -1.0617
  118OSM    H7T12412  -0.111   2.776   9.416 -0.3872 -0.3172 -0.6952
  118OSM    C8S12413  -0.161   2.579   9.359 -0.4267 -0.0856  0.0496
  118OSM    H8S12414  -0.213   2.639   9.281 -0.0507  0.3536  0.1341
  118OSM    H8T12415  -0.235   2.517   9.414  1.2919  1.0614  3.7681
  118OSM    C9S12416  -0.062   2.478   9.283  0.1782 -0.8655  0.7775
  118OSM    H9S12417   0.006   2.428   9.356  1.4262  0.5379  0.5741
  118OSM    H9T12418  -0.006   2.542   9.212 -0.6593 -0.4509  0.4822
  118OSM   C10S12419  -0.149   2.369   9.208  0.5699 -0.3268  0.3130
  118OSM   H10S12420  -0.206   2.415   9.124  0.7505 -0.5594  0.0624
  118OSM   H10T12421  -0.222   2.330   9.283  0.9115  0.2534  0.9514
  118OSM   C11S12422  -0.061   2.250   9.156  0.3411  0.0960  0.4746
  118OSM   H11S12423  -0.125   2.164   9.126  1.1406  0.1425 -1.3858
  118OSM   H11T12424  -0.006   2.217   9.247 -0.0867 -3.7997 -0.6173
  118OSM   C12S12425   0.037   2.283   9.042 -0.1617 -0.4555  0.6607
  118OSM   H12S12426   0.109   2.202   9.018  2.7944  1.9150  1.3186
  118OSM   H12T12427   0.102   2.364   9.080 -2.3111  1.6904 -0.0901
  118OSM   C13S12428  -0.039   2.322   8.910  0.4901 -0.2130 -0.0876
  118OSM   H13S12429   0.037   2.355   8.837  3.1245 -2.8176  1.3662
  118OSM   H13T12430  -0.098   2.415   8.924 -0.1224  0.0585 -3.9415
  118OSM   C14S12431  -0.125   2.209   8.848 -0.5496  0.0972  0.4514
  118OSM   H14S12432  -0.190   2.153   8.919  1.7352 -0.9375  1.7824
  118OSM   H14T12433  -0.057   2.140   8.793 -0.5033 -0.7371  1.5320
  118OSM   C15S12434  -0.227   2.280   8.750 -0.6843  0.6420 -0.2559
  118OSM   H15S12435  -0.295   2.337   8.816 -0.7757 -1.3358  1.3983
  118OSM   H15T12436  -0.272   2.193   8.697 -0.7409  0.9201 -0.6682
  118OSM   C16S12437  -0.177   2.383   8.646 -0.3525  0.7950 -1.4083
  118OSM   H16S12438  -0.136   2.475   8.693  0.2850  0.7645 -1.8934
  118OSM   H16T12439  -0.259   2.414   8.579 -1.8079  0.4496  0.1911
  118OSM   C17S12440  -0.069   2.326   8.544  0.8081  0.1131  0.2940
  118OSM   H17S12441  -0.127   2.262   8.474  0.4181 -0.2777  0.9666
  118OSM   H17T12442  -0.002   2.263   8.607 -0.7256 -2.4576 -0.5626
  118OSM   C18S12443   0.006   2.435   8.460 -0.4450  0.0124  0.4113
  118OSM   H18S12444   0.083   2.381   8.400  0.1521  1.6836 -0.3608
  118OSM   H18T12445   0.033   2.515   8.533 -2.8673 -0.5179  1.9632
  118OSM   H18U12446  -0.070   2.480   8.394 -1.9168 -1.3175  1.1792
  118OSM    C1F12447   0.395   2.576   9.786  0.4864  0.0180 -0.4831
  118OSM     OF12448   0.437   2.462   9.778 -0.4046  0.0295 -0.0762
  118OSM    C2F12449   0.464   2.688   9.726 -0.7442 -0.2413 -0.8442
  118OSM    H2F12450   0.427   2.783   9.771 -0.6692  0.0705 -1.4435
  118OSM    H2G12451   0.423   2.688   9.623 -0.9519  1.2286 -0.7723
  118OSM    C3F12452   0.616   2.685   9.722 -1.4513 -0.1091  0.2408
  118OSM    H3F12453   0.662   2.681   9.823 -0.7161 -1.2682 -0.1304
  118OSM    H3G12454   0.646   2.776   9.665 -0.8809 -1.0386 -0.9597
  118OSM    C4F12455   0.683   2.567   9.644 -0.4089 -0.1597  0.3242
  118OSM    H4F12456   0.648   2.467   9.678  0.7968 -0.7753 -0.2388
  118OSM    H4G12457   0.792   2.577   9.660 -0.3990  1.1275 -0.4581
  118OSM    C5F12458   0.666   2.565   9.487 -0.4850  0.3426 -0.2755
  118OSM    H5F12459   0.719   2.653   9.443 -0.1019 -1.3234 -3.3390
  118OSM    H5G12460   0.560   2.556   9.455 -0.4004  1.9842 -1.0858
  118OSM    C6F12461   0.748   2.450   9.416  0.0158 -0.1129  0.9208
  118OSM    H6F12462   0.855   2.464   9.447 -0.7075 -0.5509  3.8303
  118OSM    H6G12463   0.729   2.460   9.307 -3.3853 -0.6507  1.4274
  118OSM    C7F12464   0.708   2.305   9.442 -0.3205  0.5592 -0.3829
  118OSM    H7F12465   0.597   2.306   9.438 -0.4867 -1.0055  2.2828
  118OSM    H7G12466   0.730   2.275   9.547  1.1867 -0.3703 -0.9508
  118OSM    C8F12467   0.772   2.195   9.347 -0.1402 -0.0987 -0.3018
  118OSM    H8F12468   0.882   2.212   9.344 -0.0620  0.0094  2.3318
  118OSM    H8G12469   0.742   2.215   9.242 -0.2926  1.1674 -0.0267
  118OSM    C9F12470   0.745   2.056   9.389  0.2908  0.7571  0.0056
  118OSM    H9F12471   0.798   2.010   9.473 -0.6702 -2.2327 -0.9718
  118OSM   C10F12472   0.671   1.968   9.320  0.4185 -0.2548  0.0406
  118OSM   H10F12473   0.648   1.873   9.370  1.8080 -1.8657 -2.2520
  118OSM   C11F12474   0.598   1.992   9.188  0.8060 -0.0389 -0.1932
  118OSM   H11F12475   0.648   1.928   9.112 -0.6531 -1.0048 -0.3733
  118OSM   H11G12476   0.597   2.096   9.150  1.2799 -0.8395 -2.4870
  118OSM   C12F12477   0.449   1.933   9.193 -1.0603  0.7453 -0.3169
  118OSM   H12F12478   0.374   1.983   9.257  1.0692  1.2167  1.9269
  118OSM   H12G12479   0.458   1.826   9.221 -0.3070  0.4768 -1.5577
  118OSM   C13F12480   0.385   1.925   9.048  0.5164 -0.0524  0.5945
  118OSM   H13F12481   0.454   1.868   8.983 -1.3270 -0.1101 -1.3889
  118OSM   H13G12482   0.376   2.025   9.002 -2.3454 -0.4200  0.2565
  118OSM   C14F12483   0.257   1.846   9.030  0.7338  0.0200 -0.5631
  118OSM   H14F12484   0.277   1.739   9.054  1.5759  0.1352 -0.7385
  118OSM   H14G12485   0.226   1.845   8.924  1.0828  0.6640 -0.6762
  118OSM   C15F12486   0.151   1.885   9.130 -0.1627 -0.0771  0.4244
  118OSM   H15F12487   0.151   1.996   9.135  2.6045 -0.0300 -0.3242
  118OSM   H15G12488   0.194   1.840   9.222 -0.0286 -0.2670  0.2690
  118OSM   C16F12489   0.002   1.826   9.114  0.2805 -0.7009 -0.3179
  118OSM   H16F12490  -0.007   1.718   9.090 -3.2058 -0.3127 -1.0770
  118OSM   H16G12491  -0.039   1.870   9.021  1.4742  2.5647  0.6376
  118OSM   C17F12492  -0.087   1.874   9.226 -0.7860 -0.2697  0.3313
  118OSM   H17F12493  -0.069   1.984   9.229  2.4137 -0.6947 -0.6872
  118OSM   H17G12494  -0.057   1.835   9.326  3.7255  4.0505  0.8882
  118OSM   C18F12495  -0.234   1.838   9.204 -0.2613  0.4155 -0.8633
  118OSM   H18F12496  -0.282   1.857   9.302  0.2120  0.2744 -0.6032
  118OSM   H18G12497  -0.250   1.728   9.194  0.4833  0.3058 -0.8035
  118OSM   H18H12498  -0.274   1.899   9.120  1.0112  0.7343 -1.2360
  119OSM      N12499   1.297   0.374   9.894 -0.2199  0.2145 -0.2977
  119OSM    C1512500   1.287   0.522   9.932  1.1336  0.0201 -0.6314
  119OSM   H15A12501   1.237   0.574   9.851 -3.0182 -0.2511  1.6086
  119OSM   H15B12502   1.383   0.560   9.963  1.0227  1.2366 -1.7532
  119OSM   H15C12503   1.222   0.534  10.017 -0.3942 -0.1163 -1.7633
  119OSM    C1412504   1.163   0.321   9.868  0.8670  0.0412 -0.1335
  119OSM   H14A12505   1.094   0.339   9.949 -1.4948  1.4573 -2.4067
  119OSM   H14B12506   1.164   0.213   9.858 -1.5322 -0.1688  1.4267
  119OSM   H14C12507   1.103   0.358   9.787  1.4023 -0.7858 -0.9145
  119OSM    C1312508   1.364   0.376   9.766 -0.0039  0.1310 -0.5703
  119OSM   H13A12509   1.341   0.291   9.703  2.7832 -0.8407 -0.3648
  119OSM   H13B12510   1.471   0.377   9.785 -0.1131  0.9381  0.0265
  119OSM   H13C12511   1.342   0.465   9.710 -0.4083 -0.0201 -0.6460
  119OSM    C1212512   1.376   0.295   9.997  0.1832  0.5964 -0.1944
  119OSM   H12A12513   1.374   0.193   9.961  2.4337  0.3746  0.2654
  119OSM   H12B12514   1.306   0.291  10.079  0.9404  2.8308  0.5894
  119OSM    C1112515   1.520   0.341  10.043  0.5431  0.8231 -0.2855
  119OSM   H11A12516   1.542   0.284  10.136  0.1739 -0.4820 -0.9909
  119OSM   H11B12517   1.515   0.449  10.070 -1.3507  0.5315  0.6188
  119OSM      P12518   1.652   0.153   9.904 -0.3084  0.0274  0.0664
  119OSM    O1312519   1.748   0.098  10.005  0.0039  0.7182 -0.7199
  119OSM    O1412520   1.533   0.067   9.881 -0.0181  0.0757 -0.2058
  119OSM    O1112521   1.737   0.162   9.770 -0.0867 -0.0485  0.2238
  119OSM    O1212522   1.614   0.306   9.938  0.1042 -0.6419 -0.1595
  119OSM    C1S12523   1.885   0.169   9.784 -0.0699  0.8143 -0.1169
  119OSM    H1S12524   1.926   0.067   9.795 -0.4752  0.5607 -0.9237
  119OSM    H1T12525   1.923   0.233   9.867  0.7638  0.2262 -0.0407
  119OSM     NF12526   2.093   0.205   9.680 -0.1269 -0.8990  0.0938
  119OSM    HNF12527   2.143   0.284   9.714 -1.8153  0.8009 -1.2840
  119OSM    C2S12528   1.951   0.218   9.656 -0.6387  0.7881  0.1703
  119OSM    H2S12529   1.925   0.148   9.574  0.9763 -0.6557  0.8649
  119OSM    C3S12530   1.913   0.367   9.627 -0.1609  0.3344 -0.6385
  119OSM    H3S12531   1.966   0.434   9.697 -0.7743  2.3570 -2.0592
  119OSM     O312532   1.778   0.401   9.645  0.8528  0.1731  0.3012
  119OSM    HO312533   1.745   0.313   9.668  0.5980  0.6813  1.9709
  119OSM    C4S12534   1.954   0.398   9.492 -0.2840  0.1447  0.7376
  119OSM    H4S12535   1.902   0.341   9.414 -0.4624 -2.3330  2.5922
  119OSM    C5S12536   2.049   0.488   9.455  0.3929  0.3642  0.5275
  119OSM    H5S12537   2.095   0.551   9.533 -2.1219  0.0909  2.2796
  119OSM    C6S12538   2.089   0.518   9.310 -0.6815 -0.4277  0.0743
  119OSM    H6S12539   2.200   0.513   9.301 -0.6848  1.6720 -1.3356
  119OSM    H6T12540   2.044   0.611   9.271 -0.9094 -0.9932 -1.0117
  119OSM    C7S12541   2.060   0.405   9.208 -0.3111  0.3728 -0.2569
  119OSM    H7S12542   1.950   0.389   9.210 -0.0180 -1.6779  1.0460
  119OSM    H7T12543   2.104   0.309   9.241 -0.5706  0.0013 -0.9881
  119OSM    C8S12544   2.102   0.438   9.057 -0.1626 -0.3609  0.5170
  119OSM    H8S12545   2.067   0.539   9.029  1.2704 -0.5186 -1.9393
  119OSM    H8T12546   2.056   0.366   8.987  0.8382 -1.2904  0.7828
  119OSM    C9S12547   2.256   0.420   9.042 -0.0225  0.6951  0.1315
  119OSM    H9S12548   2.286   0.314   9.059  1.3384  1.4373  2.5936
  119OSM    H9T12549   2.299   0.481   9.124  2.3038 -1.8775  0.9264
  119OSM   C10S12550   2.312   0.486   8.919  0.0074 -0.7122  0.3192
  119OSM   H10S12551   2.423   0.472   8.917  0.1774  0.5798  0.3765
  119OSM   H10T12552   2.312   0.597   8.918  1.5225 -0.6812 -1.7931
  119OSM   C11S12553   2.255   0.441   8.781  0.1612  1.0637 -0.1290
  119OSM   H11S12554   2.149   0.473   8.771 -0.5137 -1.0738  0.0480
  119OSM   H11T12555   2.265   0.331   8.776 -1.7079  0.8673  0.1130
  119OSM   C12S12556   2.339   0.500   8.662 -0.0136 -0.0222 -0.1647
  119OSM   H12S12557   2.447   0.483   8.682  0.1556  1.5338  0.2679
  119OSM   H12T12558   2.303   0.605   8.653 -0.9070 -0.3518 -0.5789
  119OSM   C13S12559   2.304   0.425   8.530 -0.4977 -0.7425 -0.2138
  119OSM   H13S12560   2.364   0.331   8.540  1.2747  0.2484 -1.2897
  119OSM   H13T12561   2.354   0.485   8.452  0.2397 -1.1207 -0.0418
  119OSM   C14S12562   2.157   0.414   8.501  0.4483 -0.0021 -0.2692
  119OSM   H14S12563   2.102   0.510   8.515  0.8530  0.2898 -0.6436
  119OSM   H14T12564   2.115   0.334   8.565  1.2232 -0.1571  0.0565
  119OSM   C15S12565   2.152   0.376   8.349  0.9198 -0.3026 -1.3521
  119OSM   H15S12566   2.226   0.294   8.339  2.7808  1.1298  0.2602
  119OSM   H15T12567   2.193   0.459   8.286 -0.2751  0.4800 -1.1090
  119OSM   C16S12568   2.010   0.354   8.296  0.1483  0.2380  0.1841
  119OSM   H16S12569   1.952   0.448   8.298 -1.3076 -0.6544  1.0332
  119OSM   H16T12570   1.965   0.283   8.369 -0.6013  2.0575  1.5064
  119OSM   C17S12571   2.003   0.285   8.159 -0.7026 -0.7198 -0.0638
  119OSM   H17S12572   2.100   0.240   8.129 -0.3123  1.0466 -1.5160
  119OSM   H17T12573   1.978   0.361   8.082  1.7191 -1.2244 -1.3849
  119OSM   C18S12574   1.895   0.179   8.160 -0.0576 -0.0681  0.1627
  119OSM   H18S12575   1.882   0.118   8.068 -1.7025  0.0164  0.3135
  119OSM   H18T12576   1.794   0.224   8.174 -0.4063 -0.0354 -2.3238
  119OSM   H18U12577   1.910   0.104   8.241 -0.3236  0.5600  0.7883
  119OSM    C1F12578   2.167   0.099   9.669 -0.4580  0.5234 -0.1124
  119OSM     OF12579   2.119  -0.009   9.625 -0.2723 -0.0535  0.3407
  119OSM    C2F12580   2.311   0.102   9.722 -0.1746 -0.4732 -0.2482
  119OSM    H2F12581   2.309   0.076   9.830  2.6762  0.6535  0.1277
  119OSM    H2G12582   2.331   0.208   9.696 -0.6374 -0.2907  0.1220
  119OSM    C3F12583   2.396   0.000   9.634  0.1323  0.0471 -0.9791
  119OSM    H3F12584   2.367   0.011   9.528  0.9713  1.1042 -1.1183
  119OSM    H3G12585   2.370  -0.100   9.675  3.3049 -0.1732  0.7248
  119OSM    C4F12586   2.547   0.021   9.652 -0.2188 -0.0302  0.1139
  119OSM    H4F12587   2.579  -0.016   9.752 -1.5366  0.5118  0.7530
  119OSM    H4G12588   2.565   0.129   9.667  2.3760 -0.3636 -0.3590
  119OSM    C5F12589   2.630  -0.033   9.533 -0.6082  0.2023 -0.7211
  119OSM    H5F12590   2.737  -0.010   9.551 -0.4623 -1.3423  0.5562
  119OSM    H5G12591   2.600   0.013   9.437 -0.6611 -1.6635 -1.6322
  119OSM    C6F12592   2.620  -0.185   9.510  0.1184 -1.0105  0.5835
  119OSM    H6F12593   2.515  -0.222   9.506  0.1218 -0.8682 -1.8611
  119OSM    H6G12594   2.676  -0.222   9.598  0.5528  0.9996  1.1707
  119OSM    C7F12595   2.680  -0.237   9.382 -0.1430 -0.6279  0.3198
  119OSM    H7F12596   2.780  -0.189   9.381 -0.6330  0.4147  0.3244
  119OSM    H7G12597   2.637  -0.192   9.289  0.0765 -0.4117  0.3225
  119OSM    C8F12598   2.696  -0.393   9.364 -0.2354  0.6642 -0.0997
  119OSM    H8F12599   2.730  -0.446   9.456 -2.2456  1.6224  1.2635
  119OSM    H8G12600   2.777  -0.392   9.288  0.2404  2.6875  0.3890
  119OSM    C9F12601   2.568  -0.460   9.323  0.2255 -0.0893  0.0012
  119OSM    H9F12602   2.486  -0.462   9.397 -1.1069 -1.9207 -1.4697
  119OSM   C10F12603   2.549  -0.525   9.207 -0.1552  0.5360  0.3652
  119OSM   H10F12604   2.448  -0.551   9.174  0.0451  0.8497 -0.5111
  119OSM   C11F12605   2.652  -0.537   9.097  0.1302 -0.8532  0.2691
  119OSM   H11F12606   2.712  -0.630   9.099  0.1133 -0.8960 -0.9143
  119OSM   H11G12607   2.722  -0.451   9.104 -0.2595 -0.6201  1.4447
  119OSM   C12F12608   2.583  -0.537   8.959 -0.4326  0.3456  0.4267
  119OSM   H12F12609   2.523  -0.629   8.942  0.1654  0.1103 -0.4787
  119OSM   H12G12610   2.665  -0.555   8.886 -1.0610  1.6880 -0.6335
  119OSM   C13F12611   2.520  -0.403   8.919  1.0811  0.4079 -0.0334
  119OSM   H13F12612   2.470  -0.362   9.010  1.8788 -0.5046  0.8210
  119OSM   H13G12613   2.446  -0.431   8.841 -0.0946  0.9505  0.8552
  119OSM   C14F12614   2.614  -0.293   8.873 -0.4008 -0.2153 -0.2738
  119OSM   H14F12615   2.685  -0.269   8.956 -3.0617 -0.5565  2.1585
  119OSM   H14G12616   2.565  -0.197   8.848 -2.3563 -1.4829 -1.4122
  119OSM   C15F12617   2.684  -0.331   8.746 -0.7812  0.8422  0.6095
  119OSM   H15F12618   2.623  -0.358   8.658  1.6638 -2.1129 -0.3001
  119OSM   H15G12619   2.747  -0.423   8.752 -0.9425  0.8510  2.9288
  119OSM   C16F12620   2.790  -0.231   8.689  0.1601  0.3202  0.5079
  119OSM   H16F12621   2.879  -0.240   8.754 -0.5127 -1.6662  1.1716
  119OSM   H16G12622   2.747  -0.133   8.720  1.1485  1.0765 -0.4915
  119OSM   C17F12623   2.814  -0.231   8.534 -0.2291  0.2891 -0.1808
  119OSM   H17F12624   2.854  -0.132   8.505 -0.2920  0.4215  0.1815
  119OSM   H17G12625   2.714  -0.227   8.486 -0.7095  0.7158  0.8533
  119OSM   C18F12626   2.901  -0.352   8.500 -0.0634 -0.4312  0.3771
  119OSM   H18F12627   2.862  -0.445   8.546  1.7053 -0.2666  2.2467
  119OSM   H18G12628   3.004  -0.331   8.534 -0.2616  1.2819 -0.0240
  119OSM   H18H12629   2.915  -0.363   8.390 -1.9687  1.5778 -0.1002
  120OSM      N12630   0.775   5.836  10.296 -0.2198  0.5020 -0.2110
  120OSM    C1512631   0.804   5.966  10.365  0.4165 -0.1897 -0.6092
  120OSM   H15A12632   0.764   5.962  10.465 -1.0606  0.0264 -1.1879
  120OSM   H15B12633   0.757   6.040  10.302 -1.5606 -1.6083 -0.8296
  120OSM   H15C12634   0.912   5.978  10.364  0.6536 -2.0966  0.6901
  120OSM    C1412635   0.812   5.722  10.395 -0.5036 -0.1818 -0.7382
  120OSM   H14A12636   0.805   5.621  10.355  1.5046 -0.2756 -0.8807
  120OSM   H14B12637   0.758   5.739  10.487 -0.0046  2.3805 -0.8876
  120OSM   H14C12638   0.915   5.722  10.426 -0.7491 -1.5698  0.1520
  120OSM    C1312639   0.628   5.820  10.270  0.1912 -0.2953 -0.0114
  120OSM   H13A12640   0.580   5.903  10.220  1.1687 -0.6456 -1.5360
  120OSM   H13B12641   0.575   5.811  10.364  0.2660  0.9025  0.1600
  120OSM   H13C12642   0.604   5.733  10.212  3.3750 -1.3430  0.1924
  120OSM    C1212643   0.854   5.819  10.166  0.1678  0.4709  0.1477
  120OSM   H12A12644   0.838   5.717  10.134 -1.5811  0.1115  2.0638
  120OSM   H12B12645   0.957   5.829  10.197 -0.1423  0.4918  1.2205
  120OSM    C1112646   0.800   5.903  10.039 -0.1492 -0.2238  0.1337
  120OSM   H11A12647   0.705   5.850  10.018 -0.7466  1.5370 -1.7173
  120OSM   H11B12648   0.873   5.884   9.958 -0.0563 -0.3921  0.2549
  120OSM      P12649   0.658   6.116  10.019 -0.1573  0.6632  0.0810
  120OSM    O1312650   0.542   6.030  10.051  1.1080 -0.1353  0.2678
  120OSM    O1412651   0.647   6.253  10.071  0.7277 -0.1747  0.6682
  120OSM    O1112652   0.674   6.125   9.864  0.4870 -0.3654 -0.1964
  120OSM    O1212653   0.795   6.044  10.061  0.0590  0.2849  0.9075
  120OSM    C1S12654   0.782   6.196   9.805  0.0458 -0.1471  0.0504
  120OSM    H1S12655   0.876   6.137   9.803 -0.9557 -1.7208 -2.2131
  120OSM    H1T12656   0.817   6.286   9.861  0.7443 -0.5632  0.2888
  120OSM     NF12657   0.864   6.283   9.588 -0.1931 -0.0892  0.1469
  120OSM    HNF12658   0.858   6.378   9.561 -1.4596 -0.0347  0.6095
  120OSM    C2S12659   0.754   6.213   9.654 -0.0341 -0.7400  0.0365
  120OSM    H2S12660   0.736   6.109   9.621 -0.9561 -0.9400  1.1329
  120OSM    C3S12661   0.615   6.289   9.639 -0.5862  0.5164 -0.6342
  120OSM    H3S12662   0.638   6.380   9.700 -0.2074  1.7916 -2.6392
  120OSM     O312663   0.505   6.224   9.683  0.1419 -1.0364 -1.1230
  120OSM    HO312664   0.536   6.158   9.745 -0.9977 -0.4970  0.0526
  120OSM    C4S12665   0.586   6.329   9.496 -0.0998 -0.0160 -0.0837
  120OSM    H4S12666   0.596   6.435   9.470 -2.8391 -0.2275 -2.3550
  120OSM    C5S12667   0.545   6.249   9.393  0.7404 -0.1674  0.0310
  120OSM    H5S12668   0.525   6.141   9.400  0.5545 -0.0220  1.8799
  120OSM    C6S12669   0.519   6.287   9.252  0.1975 -0.2932  0.4436
  120OSM    H6S12670   0.569   6.209   9.192 -0.3676 -0.2672 -0.0641
  120OSM    H6T12671   0.558   6.388   9.226 -0.9962 -0.0144 -0.3183
  120OSM    C7S12672   0.363   6.286   9.221 -0.3651 -0.1806  0.1257
  120OSM    H7S12673   0.320   6.362   9.291 -1.7567 -0.7944 -0.0358
  120OSM    H7T12674   0.319   6.185   9.238  1.8605 -1.2291 -0.1718
  120OSM    C8S12675   0.333   6.343   9.077 -0.2008  0.4043 -0.2070
  120OSM    H8S12676   0.425   6.389   9.035 -0.5903  1.3316 -0.0699
  120OSM    H8T12677   0.248   6.415   9.084 -0.4180  0.2445 -1.1549
  120OSM    C9S12678   0.285   6.238   8.979 -0.1755 -0.1151  0.4086
  120OSM    H9S12679   0.202   6.177   9.021 -1.4143  0.4797 -1.0986
  120OSM    H9T12680   0.369   6.166   8.971 -1.5536 -1.6460 -0.8115
  120OSM   C10S12681   0.238   6.289   8.843 -0.3862  0.0854  0.6991
  120OSM   H10S12682   0.152   6.359   8.847 -1.2906 -0.8516 -1.3868
  120OSM   H10T12683   0.190   6.202   8.791  1.8606  0.7751 -2.6992
  120OSM   C11S12684   0.354   6.351   8.755 -0.0242  0.5325 -0.3091
  120OSM   H11S12685   0.435   6.277   8.746 -0.0483  0.5350 -0.5507
  120OSM   H11T12686   0.402   6.446   8.788 -1.1627  0.6150  1.2102
  120OSM   C12S12687   0.302   6.376   8.610 -0.9462  0.4002 -0.5723
  120OSM   H12S12688   0.261   6.479   8.609 -0.7304  0.5136  1.2176
  120OSM   H12T12689   0.224   6.305   8.574  0.6110 -1.1942 -0.9041
  120OSM   C13S12690   0.428   6.371   8.510  0.0568  0.0241  0.6443
  120OSM   H13S12691   0.497   6.293   8.548 -1.0075 -0.0779  2.4563
  120OSM   H13T12692   0.485   6.467   8.511  0.2659 -0.0900 -0.5165
  120OSM   C14S12693   0.378   6.364   8.364 -0.1789  0.1273 -0.3933
  120OSM   H14S12694   0.451   6.426   8.307 -0.0948  1.6620  1.3188
  120OSM   H14T12695   0.278   6.412   8.357  0.1046  0.4677 -2.3149
  120OSM   C15S12696   0.373   6.221   8.319 -0.8172  0.1526 -0.0060
  120OSM   H15S12697   0.273   6.181   8.345 -1.5231  1.9435  0.0868
  120OSM   H15T12698   0.443   6.153   8.371 -0.3542  0.9360  0.3975
  120OSM   C16S12699   0.393   6.219   8.165 -0.2278 -0.8163  0.5076
  120OSM   H16S12700   0.493   6.244   8.124 -1.1830  3.5684  0.5918
  120OSM   H16T12701   0.316   6.293   8.132 -0.5552 -1.3558  0.0417
  120OSM   C17S12702   0.346   6.090   8.105 -0.1018  0.9165 -0.6365
  120OSM   H17S12703   0.328   6.102   7.996  2.9462 -0.8520 -1.3799
  120OSM   H17T12704   0.251   6.057   8.153  1.3227 -2.0776  0.2226
  120OSM   C18S12705   0.439   5.964   8.134  0.3567  0.1846 -0.1190
  120OSM   H18S12706   0.540   5.973   8.087  0.1464 -2.3102 -1.0891
  120OSM   H18T12707   0.394   5.869   8.101  2.5748 -1.7994  2.2850
  120OSM   H18U12708   0.446   5.952   8.244 -1.4430 -0.7093 -0.0943
  120OSM    C1F12709   0.975   6.215   9.564  0.5975  0.0436 -0.2586
  120OSM     OF12710   0.976   6.095   9.591  0.0999 -0.3585  0.2959
  120OSM    C2F12711   1.091   6.288   9.502 -0.2839 -0.2986 -0.9191
  120OSM    H2F12712   1.160   6.317   9.583 -0.3642 -2.0197 -0.2082
  120OSM    H2G12713   1.052   6.377   9.448 -0.2076  0.8263  0.8704
  120OSM    C3F12714   1.166   6.208   9.390 -0.1664 -0.2267 -0.0259
  120OSM    H3F12715   1.188   6.107   9.431 -0.5242 -0.0071  0.7090
  120OSM    H3G12716   1.266   6.255   9.375  0.8634 -2.7456 -1.4932
  120OSM    C4F12717   1.095   6.185   9.252  0.0751 -0.7689  0.6834
  120OSM    H4F12718   1.165   6.131   9.184 -0.9480 -0.7109 -0.4269
  120OSM    H4G12719   1.068   6.284   9.210 -1.4366 -2.3871 -2.3805
  120OSM    C5F12720   0.964   6.107   9.272  0.1162 -0.1377  0.0783
  120OSM    H5F12721   0.879   6.173   9.301  0.0834  0.0354 -0.3994
  120OSM    H5G12722   0.980   6.026   9.347  0.1982 -0.5654 -0.3998
  120OSM    C6F12723   0.898   6.043   9.139 -0.1620  0.2749 -0.3447
  120OSM    H6F12724   0.821   5.973   9.178 -0.3828  1.1700  0.8566
  120OSM    H6G12725   0.977   5.979   9.094  1.7364  1.6895  0.8748
  120OSM    C7F12726   0.842   6.148   9.045  0.7056 -0.0244  0.2388
  120OSM    H7F12727   0.927   6.204   9.000  0.7561  1.0967  1.7162
  120OSM    H7G12728   0.786   6.228   9.098  0.6270  0.3581 -0.4172
  120OSM    C8F12729   0.757   6.087   8.937 -0.5027  0.5693  0.0974
  120OSM    H8F12730   0.671   6.044   8.993  0.8375 -0.0655  1.7122
  120OSM    H8G12731   0.788   5.988   8.895 -1.5517  0.1938  0.1916
  120OSM    C9F12732   0.715   6.177   8.826 -0.3094 -0.1788 -0.1513
  120OSM    H9F12733   0.617   6.225   8.837 -1.0068 -1.7213  0.5400
  120OSM   C10F12734   0.787   6.206   8.715  0.3790 -0.2482 -0.8367
  120OSM   H10F12735   0.754   6.290   8.653  0.9453  1.8807  1.6691
  120OSM   C11F12736   0.919   6.145   8.680 -0.0474 -0.2733 -0.3174
  120OSM   H11F12737   0.951   6.052   8.733  0.6481 -0.8413 -1.6684
  120OSM   H11G12738   1.012   6.206   8.688 -0.1943 -0.3636  2.1636
  120OSM   C12F12739   0.918   6.111   8.532  0.7218  0.1892 -0.5601
  120OSM   H12F12740   1.013   6.063   8.501  0.2860 -2.3344  1.8120
  120OSM   H12G12741   0.899   6.202   8.470 -1.5702  0.7933  0.9711
  120OSM   C13F12742   0.803   6.010   8.488 -0.5596 -0.7833  0.6988
  120OSM   H13F12743   0.709   6.069   8.483  1.1327  1.8941 -0.4570
  120OSM   H13G12744   0.806   5.947   8.580 -2.0079 -1.0114  0.5982
  120OSM   C14F12745   0.827   5.945   8.357 -0.2974 -0.0462 -0.6781
  120OSM   H14F12746   0.873   6.009   8.279  1.6305 -0.4991  0.0716
  120OSM   H14G12747   0.731   5.902   8.323  0.1858 -0.8298 -1.0504
  120OSM   C15F12748   0.914   5.820   8.375 -0.2683 -0.1214 -0.3056
  120OSM   H15F12749   0.875   5.748   8.450 -1.7028 -1.4249 -2.2614
  120OSM   H15G12750   1.021   5.833   8.403 -0.4363  1.0729 -0.2031
  120OSM   C16F12751   0.915   5.727   8.248 -0.6765 -0.4778  0.4434
  120OSM   H16F12752   0.809   5.697   8.239 -0.7544  0.2242 -1.2478
  120OSM   H16G12753   0.980   5.645   8.287  1.6548  1.1970  0.1718
  120OSM   C17F12754   0.956   5.801   8.120  1.0477 -0.3409  0.6933
  120OSM   H17F12755   0.978   5.718   8.049 -0.9423  2.2682 -3.1187
  120OSM   H17G12756   1.043   5.868   8.132 -0.0780  1.0754  1.0567
  120OSM   C18F12757   0.854   5.877   8.038  0.9423 -0.2712 -0.3907
  120OSM   H18F12758   0.778   5.804   8.002  1.8068 -0.3451 -2.1106
  120OSM   H18G12759   0.889   5.917   7.941 -2.5351  1.6314 -0.9545
  120OSM   H18H12760   0.800   5.954   8.097  0.0298 -3.1708  2.7584
  121OSM      N12761   7.086   2.234  10.271 -0.1299 -0.6651 -0.8320
  121OSM    C1512762   7.076   2.175  10.407 -0.3217  0.3508 -0.1366
  121OSM   H15A12763   7.145   2.093  10.424 -2.1786 -1.6829 -2.1290
  121OSM   H15B12764   6.979   2.129  10.421 -1.1586  1.2052 -2.8289
  121OSM   H15C12765   7.092   2.254  10.479  2.6807 -0.7019  0.4269
  121OSM    C1412766   6.962   2.304  10.244  0.3036 -0.1208 -0.4748
  121OSM   H14A12767   6.970   2.371  10.159 -0.7724 -1.1756 -1.4252
  121OSM   H14B12768   6.935   2.371  10.324  1.0283 -1.6236  1.0623
  121OSM   H14C12769   6.879   2.237  10.229  0.0736 -0.5736  2.4985
  121OSM    C1312770   7.196   2.331  10.272  0.1597 -0.4229  0.1479
  121OSM   H13A12771   7.194   2.391  10.182 -0.2373  0.0978  0.5071
  121OSM   H13B12772   7.291   2.281  10.289  0.4516  0.6712  1.7664
  121OSM   H13C12773   7.186   2.402  10.352 -1.3848  0.5787 -0.9058
  121OSM    C1212774   7.106   2.116  10.165  0.3580 -0.8194 -0.3890
  121OSM   H12A12775   7.101   2.156  10.064 -2.3033 -1.4799 -0.5656
  121OSM   H12B12776   7.022   2.048  10.161 -0.1427 -0.3114  1.2996
  121OSM    C1112777   7.244   2.051  10.168  0.2857  0.1724  0.3737
  121OSM   H11A12778   7.267   2.016  10.271  0.4457 -0.3890  0.1521
  121OSM   H11B12779   7.326   2.120  10.138  1.3360 -1.1086  0.2156
  121OSM      P12780   7.357   1.865  10.035 -0.1171  0.3054  0.0265
  121OSM    O1312781   7.479   1.893  10.114 -0.8188 -0.1133 -0.4908
  121OSM    O1412782   7.313   1.728  10.015  0.4355 -0.4680 -0.1734
  121OSM    O1112783   7.375   1.927   9.894 -0.6733  0.3111 -0.1073
  121OSM    O1212784   7.232   1.937  10.089 -0.3219 -0.7625  0.0717
  121OSM    C1S12785   7.300   1.887   9.783 -0.3704  0.4123 -0.5864
  121OSM    H1S12786   7.276   1.779   9.781  1.6723 -0.0860  0.2405
  121OSM    H1T12787   7.358   1.890   9.688 -0.4328  1.1415 -0.6025
  121OSM     NF12788   7.083   1.921   9.655 -0.4014  0.2774 -0.3575
  121OSM    HNF12789   7.084   1.969   9.567 -1.6052  0.4331 -0.2909
  121OSM    C2S12790   7.168   1.967   9.773  0.3216  0.0368 -0.2191
  121OSM    H2S12791   7.109   1.950   9.865 -0.8391 -0.1400 -0.9838
  121OSM    C3S12792   7.195   2.130   9.775  0.6313 -0.7328  0.4519
  121OSM    H3S12793   7.257   2.161   9.688  0.8128 -0.6190  0.6214
  121OSM     O312794   7.276   2.174   9.888 -0.2503 -0.1700 -0.5682
  121OSM    HO312795   7.306   2.088   9.920 -1.1946  0.6582  2.7146
  121OSM    C4S12796   7.058   2.192   9.766  0.8451  0.3122 -0.2580
  121OSM    H4S12797   6.990   2.185   9.852  0.0199 -0.4648 -0.9645
  121OSM    C5S12798   7.010   2.250   9.655  0.0613  0.4736  0.3120
  121OSM    H5S12799   7.077   2.277   9.572 -1.0356  2.2086 -0.0285
  121OSM    C6S12800   6.872   2.310   9.660  0.0952  0.0604  0.0032
  121OSM    H6S12801   6.881   2.420   9.671  2.3442 -0.3417  2.6836
  121OSM    H6T12802   6.809   2.250   9.730  0.7605 -1.6806 -0.8614
  121OSM    C7S12803   6.803   2.289   9.521  0.4961 -0.0816  0.2686
  121OSM    H7S12804   6.869   2.316   9.436  0.7725 -0.2637  0.4228
  121OSM    H7T12805   6.721   2.362   9.506  0.0215  0.1314  3.6071
  121OSM    C8S12806   6.772   2.143   9.485 -0.2574  0.5410 -0.1354
  121OSM    H8S12807   6.708   2.092   9.559 -0.6622  1.6578  0.2927
  121OSM    H8T12808   6.859   2.074   9.492 -0.2764  0.6921  1.6001
  121OSM    C9S12809   6.694   2.118   9.352  0.0078 -0.6863  0.0338
  121OSM    H9S12810   6.600   2.175   9.354 -0.2767 -1.1527  0.0706
  121OSM    H9T12811   6.679   2.008   9.360 -0.3891 -0.7832 -1.9095
  121OSM   C10S12812   6.783   2.154   9.231 -0.2633  0.3408  0.6199
  121OSM   H10S12813   6.873   2.089   9.226 -0.7274 -0.2948  0.3978
  121OSM   H10T12814   6.819   2.259   9.230  4.6934 -1.2419  0.1997
  121OSM   C11S12815   6.703   2.115   9.104 -0.6106  0.4588  0.4110
  121OSM   H11S12816   6.601   2.159   9.115  0.4793  2.6483  2.1779
  121OSM   H11T12817   6.698   2.006   9.086  0.0939  0.0398  2.7072
  121OSM   C12S12818   6.772   2.168   8.973 -0.0889 -0.0550 -0.7905
  121OSM   H12S12819   6.876   2.131   8.974  0.0141  0.2338  1.0736
  121OSM   H12T12820   6.782   2.279   8.982  0.3471  0.0044 -1.9589
  121OSM   C13S12821   6.691   2.125   8.852  0.2921  0.4179  1.1071
  121OSM   H13S12822   6.669   2.017   8.866  0.8629  0.0410 -0.7318
  121OSM   H13T12823   6.761   2.144   8.768  0.1559 -2.0348  0.4038
  121OSM   C14S12824   6.566   2.212   8.823 -0.1265  0.1356 -0.5975
  121OSM   H14S12825   6.590   2.320   8.829 -1.9846  0.5148  0.3857
  121OSM   H14T12826   6.493   2.183   8.901  0.1282 -0.2013 -0.4825
  121OSM   C15S12827   6.479   2.174   8.705 -0.7442  0.2873  0.4346
  121OSM   H15S12828   6.376   2.213   8.719 -1.8768 -2.3132 -0.1802
  121OSM   H15T12829   6.462   2.064   8.696  0.5701  0.0549  0.7086
  121OSM   C16S12830   6.530   2.247   8.579 -0.2383 -0.2826 -0.5217
  121OSM   H16S12831   6.631   2.212   8.546  0.5775  1.9934 -0.5589
  121OSM   H16T12832   6.554   2.353   8.603 -2.3407 -1.0261  5.7574
  121OSM   C17S12833   6.435   2.221   8.463  0.2474 -0.0142 -0.1568
  121OSM   H17S12834   6.333   2.260   8.483 -0.1494 -1.0620 -0.1042
  121OSM   H17T12835   6.425   2.112   8.443  0.0171 -0.0607  0.2213
  121OSM   C18S12836   6.485   2.278   8.329  0.2111  0.1904  0.7282
  121OSM   H18S12837   6.581   2.229   8.306 -1.7062 -2.6027 -1.5637
  121OSM   H18T12838   6.487   2.389   8.333 -0.5582  0.2016  0.9215
  121OSM   H18U12839   6.420   2.236   8.249  2.1725 -0.0512 -0.7622
  121OSM    C1F12840   7.012   1.805   9.669  0.5848  0.1063 -1.0297
  121OSM     OF12841   7.022   1.751   9.781 -0.3680 -0.1864 -0.2414
  121OSM    C2F12842   6.922   1.737   9.561  0.2270 -0.4388 -0.5420
  121OSM    H2F12843   6.993   1.681   9.496 -0.7968 -3.4715  0.8189
  121OSM    H2G12844   6.850   1.807   9.515  1.1259  0.2814 -0.8487
  121OSM    C3F12845   6.819   1.632   9.626  0.1219  0.0106  0.0651
  121OSM    H3F12846   6.742   1.674   9.694  0.6546  1.0916  0.0117
  121OSM    H3G12847   6.882   1.563   9.686 -0.1454  0.9540  1.4417
  121OSM    C4F12848   6.762   1.543   9.515  0.1686 -0.3481 -0.1980
  121OSM    H4F12849   6.725   1.450   9.562  0.5908 -0.4396 -0.0449
  121OSM    H4G12850   6.841   1.501   9.448 -0.4123  0.6702 -1.5429
  121OSM    C5F12851   6.640   1.607   9.446  0.5547  0.0883  0.9140
  121OSM    H5F12852   6.632   1.716   9.465  1.7071  0.7079 -1.8676
  121OSM    H5G12853   6.556   1.573   9.510  0.9623 -5.3552 -1.1738
  121OSM    C6F12854   6.641   1.561   9.292  0.0744 -0.3204  0.3385
  121OSM    H6F12855   6.538   1.567   9.248  0.4105 -0.8242 -0.5307
  121OSM    H6G12856   6.676   1.457   9.279  2.8304  0.7472 -1.3577
  121OSM    C7F12857   6.725   1.660   9.213  0.0087 -0.6492 -0.0590
  121OSM    H7F12858   6.831   1.648   9.245  0.3407  0.6097 -0.6805
  121OSM    H7G12859   6.688   1.763   9.233 -0.9316 -0.5690 -2.1198
  121OSM    C8F12860   6.722   1.636   9.062 -0.1033  0.9318  0.3066
  121OSM    H8F12861   6.774   1.716   9.006  0.7048  1.2510  1.5015
  121OSM    H8G12862   6.617   1.638   9.025  0.1037  1.7205 -0.2252
  121OSM    C9F12863   6.794   1.506   9.026  0.1210  0.1580  0.5595
  121OSM    H9F12864   6.751   1.413   9.065 -0.8084  0.6265  0.6724
  121OSM   C10F12865   6.916   1.486   8.970  0.2145  0.0172 -0.5065
  121OSM   H10F12866   6.945   1.384   8.940 -0.5857 -0.1558 -0.7147
  121OSM   C11F12867   7.009   1.591   8.925 -0.0952 -0.2833  0.5879
  121OSM   H11F12868   7.110   1.572   8.968 -0.3281 -0.5490  1.0181
  121OSM   H11G12869   6.973   1.689   8.965  2.7208  0.2562  1.9407
  121OSM   C12F12870   7.019   1.615   8.778  0.0453 -0.4428  0.3344
  121OSM   H12F12871   7.071   1.708   8.748 -2.5804  0.4971 -1.5055
  121OSM   H12G12872   6.919   1.634   8.733 -0.0596  0.2609  0.8466
  121OSM   C13F12873   7.087   1.498   8.706 -0.8738  0.8461  0.0661
  121OSM   H13F12874   7.023   1.408   8.723  1.1471 -0.8362 -1.0202
  121OSM   H13G12875   7.186   1.478   8.752 -1.0972 -1.3787 -0.3702
  121OSM   C14F12876   7.101   1.532   8.561 -0.9682 -0.5610 -0.3556
  121OSM   H14F12877   7.168   1.621   8.556 -1.1437 -0.5052 -2.4860
  121OSM   H14G12878   7.010   1.552   8.501  0.8632  3.7009 -1.9194
  121OSM   C15F12879   7.171   1.424   8.481 -0.2364  0.3708  0.3976
  121OSM   H15F12880   7.097   1.343   8.469  0.0271  0.1482  0.2809
  121OSM   H15G12881   7.258   1.385   8.539 -0.0106  1.7577  1.0295
  121OSM   C16F12882   7.215   1.466   8.337  0.0630  0.5815  0.2097
  121OSM   H16F12883   7.219   1.576   8.322 -0.8257  0.2152 -3.1778
  121OSM   H16G12884   7.128   1.439   8.274  0.1496  0.1583  0.2717
  121OSM   C17F12885   7.360   1.405   8.303  0.3698  0.2388  0.0301
  121OSM   H17F12886   7.435   1.434   8.380  1.9345 -1.4303 -0.8304
  121OSM   H17G12887   7.389   1.445   8.204  1.5853 -1.2948 -0.2538
  121OSM   C18F12888   7.367   1.259   8.299  0.0059  0.0415 -0.4967
  121OSM   H18F12889   7.304   1.212   8.221 -1.6241 -1.4556  1.6851
  121OSM   H18G12890   7.341   1.219   8.399  0.9319 -1.3417 -0.7970
  121OSM   H18H12891   7.471   1.231   8.271 -0.6531 -1.4903 -1.4224
  122OSM      N12892   7.210   7.219  10.268 -0.2537  0.3644  0.1301
  122OSM    C1512893   7.350   7.264  10.289 -0.2369 -0.0359  0.7838
  122OSM   H15A12894   7.373   7.347  10.224  3.5549 -2.2359 -0.8263
  122OSM   H15B12895   7.434   7.200  10.266 -0.6577 -0.3777  0.2025
  122OSM   H15C12896   7.370   7.305  10.387  0.5055 -0.0887  0.6567
  122OSM    C1412897   7.175   7.204  10.128 -0.1327  0.0262 -0.4279
  122OSM   H14A12898   7.192   7.298  10.077 -0.1580 -0.4356 -1.2956
  122OSM   H14B12899   7.075   7.163  10.117  0.8412 -2.7252  0.5144
  122OSM   H14C12900   7.232   7.126  10.081  4.2459  2.2630  0.9635
  122OSM    C1312901   7.197   7.084  10.334  0.2380 -0.9458 -0.0624
  122OSM   H13A12902   7.113   7.026  10.300  0.2952 -0.4102 -1.1797
  122OSM   H13B12903   7.206   7.090  10.441  4.0062  0.6315 -0.3775
  122OSM   H13C12904   7.274   7.021  10.293 -0.4174 -0.0237 -2.8543
  122OSM    C1212905   7.116   7.317  10.336  0.3683 -0.5205  0.1503
  122OSM   H12A12906   7.143   7.415  10.299 -2.0365 -0.1500 -0.7012
  122OSM   H12B12907   7.127   7.320  10.443 -3.2722  0.0679  0.5543
  122OSM    C1112908   6.958   7.310  10.320 -0.0761  0.2941  0.3616
  122OSM   H11A12909   6.915   7.369  10.404  1.0759 -0.8254  1.7685
  122OSM   H11B12910   6.934   7.204  10.343 -0.3076 -0.3301 -2.5621
  122OSM      P12911   6.849   7.482  10.160 -0.0090 -0.1303  0.3445
  122OSM    O1312912   6.799   7.489  10.020  0.2846  0.3970 -1.0454
  122OSM    O1412913   6.746   7.510  10.259 -0.0089 -0.3560 -0.0463
  122OSM    O1112914   6.968   7.585  10.183  0.3971 -0.0769 -0.5498
  122OSM    O1212915   6.910   7.339  10.184  0.2422 -0.0911  0.2366
  122OSM    C1S12916   7.079   7.587  10.091 -0.1474  0.3259 -0.0212
  122OSM    H1S12917   7.105   7.484  10.060 -0.7482 -0.4822  2.1073
  122OSM    H1T12918   7.167   7.628  10.146  0.2810  0.6214 -0.9070
  122OSM     NF12919   7.191   7.652   9.887  0.1259 -0.1566  0.5346
  122OSM    HNF12920   7.253   7.728   9.905 -1.4752  1.2303  0.2756
  122OSM    C2S12921   7.069   7.664   9.958 -0.0079  0.7229 -0.4623
  122OSM    H2S12922   6.990   7.620   9.894 -0.1996 -1.0314  0.9460
  122OSM    C3S12923   7.036   7.807  10.003 -0.4881 -0.6066  1.0530
  122OSM    H3S12924   7.131   7.844  10.048 -0.3588  1.8615 -1.1825
  122OSM     O312925   6.948   7.832  10.109  1.1382  0.0450  0.0016
  122OSM    HO312926   6.941   7.739  10.135  1.2408  0.6277  2.1884
  122OSM    C4S12927   7.007   7.886   9.875 -0.4653  0.5290 -0.4405
  122OSM    H4S12928   7.093   7.910   9.812 -1.5377  2.0232 -1.3741
  122OSM    C5S12929   6.889   7.930   9.820 -0.1229  0.3237  0.0919
  122OSM    H5S12930   6.799   7.907   9.877 -0.0436 -0.4584 -0.0962
  122OSM    C6S12931   6.863   8.001   9.690 -0.5127  0.2962  0.4552
  122OSM    H6S12932   6.850   8.109   9.712 -0.9518  0.1683  0.8437
  122OSM    H6T12933   6.769   7.959   9.649  0.0367  1.1070 -1.6775
  122OSM    C7S12934   6.974   7.986   9.575  0.4645  0.0919 -0.1165
  122OSM    H7S12935   6.987   7.877   9.557  0.0922  0.1743 -0.9053
  122OSM    H7T12936   7.073   8.026   9.607 -0.7932  2.6849  0.6376
  122OSM    C8S12937   6.920   8.043   9.447 -0.1581  0.0548 -0.1852
  122OSM    H8S12938   6.895   8.150   9.462 -0.0457 -0.0834  1.0439
  122OSM    H8T12939   6.824   7.993   9.421  0.1203  0.0417 -1.2282
  122OSM    C9S12940   7.024   8.049   9.333 -0.0049 -0.2221  0.1600
  122OSM    H9S12941   7.120   8.016   9.376 -0.6237 -0.8581  1.0832
  122OSM    H9T12942   7.022   8.148   9.282 -0.8251 -0.0635  0.4825
  122OSM   C10S12943   6.997   7.950   9.210  0.0624 -0.5094  0.1445
  122OSM   H10S12944   6.888   7.933   9.197 -0.0142  0.6284 -0.8088
  122OSM   H10T12945   7.041   7.855   9.248  2.1895  0.5281  0.3324
  122OSM   C11S12946   7.059   8.004   9.072  0.6441  0.0047 -0.1240
  122OSM   H11S12947   7.166   8.029   9.083  0.6984  1.2007 -2.9332
  122OSM   H11T12948   6.995   8.093   9.052  1.9360  1.2336  1.0415
  122OSM   C12S12949   7.042   7.889   8.976  0.7672  0.8542 -0.2213
  122OSM   H12S12950   7.018   7.947   8.884 -0.9926  0.0525 -0.3038
  122OSM   H12T12951   6.953   7.826   8.998  0.3947  1.9186  1.3734
  122OSM   C13S12952   7.180   7.813   8.973 -0.7238 -0.9693  0.9116
  122OSM   H13S12953   7.197   7.757   9.067  0.8887 -2.0388 -0.0024
  122OSM   H13T12954   7.265   7.884   8.962 -1.2924 -0.5967 -1.4978
  122OSM   C14S12955   7.184   7.715   8.858 -0.2851 -0.1461 -0.5092
  122OSM   H14S12956   7.110   7.633   8.849 -0.9847  0.5741 -1.3522
  122OSM   H14T12957   7.281   7.661   8.850  0.1938  0.7368 -0.7516
  122OSM   C15S12958   7.163   7.771   8.714  0.3067 -0.6889  0.0955
  122OSM   H15S12959   7.234   7.852   8.685 -0.6103 -0.6128 -1.9889
  122OSM   H15T12960   7.057   7.800   8.702 -0.4025 -1.6702  3.2369
  122OSM   C16S12961   7.194   7.659   8.607 -0.4371  0.7049 -0.9807
  122OSM   H16S12962   7.124   7.573   8.611  0.3710  0.1122  0.7146
  122OSM   H16T12963   7.296   7.617   8.621 -0.8892 -0.1859 -0.2528
  122OSM   C17S12964   7.191   7.722   8.467 -0.2249  0.0292 -0.7219
  122OSM   H17S12965   7.270   7.800   8.455 -0.9959  0.4552 -3.2954
  122OSM   H17T12966   7.094   7.775   8.455 -0.8806 -0.8237  0.7103
  122OSM   C18S12967   7.204   7.622   8.359  0.1117 -0.3190  0.4401
  122OSM   H18S12968   7.305   7.576   8.372  0.4026  0.1870 -0.0415
  122OSM   H18T12969   7.204   7.662   8.256 -2.2332 -0.1513  0.4798
  122OSM   H18U12970   7.127   7.542   8.359 -1.3721  1.0897  0.1442
  122OSM    C1F12971   7.230   7.543   9.834 -0.4557 -0.0994  0.0722
  122OSM     OF12972   7.164   7.442   9.829 -0.3100  0.2236  0.1996
  122OSM    C2F12973   7.364   7.551   9.768  0.3596 -0.1345 -0.1044
  122OSM    H2F12974   7.433   7.604   9.837  0.3707  0.8490 -0.8525
  122OSM    H2G12975   7.372   7.620   9.681 -0.5679  2.2241  1.6459
  122OSM    C3F12976   7.420   7.401   9.736 -0.3768 -0.6968  0.0995
  122OSM    H3F12977   7.343   7.345   9.678 -0.1553 -0.0240 -0.8617
  122OSM    H3G12978   7.449   7.350   9.830  0.5352  1.0586  0.8038
  122OSM    C4F12979   7.547   7.395   9.649  0.0923  1.1670 -0.4013
  122OSM    H4F12980   7.593   7.295   9.632  2.0834  2.1352 -0.8534
  122OSM    H4G12981   7.635   7.436   9.702  0.5774  0.9677 -1.0530
  122OSM    C5F12982   7.538   7.443   9.505  0.0195  0.0047 -0.4914
  122OSM    H5F12983   7.519   7.552   9.516 -2.7801 -0.4350 -0.6552
  122OSM    H5G12984   7.448   7.406   9.451  0.2455 -1.2275 -0.0307
  122OSM    C6F12985   7.666   7.414   9.422  0.5615 -0.2369  0.8481
  122OSM    H6F12986   7.750   7.439   9.489  1.5822  0.0248 -0.5020
  122OSM    H6G12987   7.659   7.495   9.346  0.2332 -0.7572  0.3217
  122OSM    C7F12988   7.667   7.272   9.367 -0.2556  0.9780  0.6921
  122OSM    H7F12989   7.572   7.264   9.310  0.3585  1.4848 -0.4241
  122OSM    H7G12990   7.654   7.204   9.454 -0.3322 -0.8902 -0.7514
  122OSM    C8F12991   7.780   7.225   9.283 -0.3650  0.4474  0.3262
  122OSM    H8F12992   7.748   7.132   9.232 -1.2549  0.5316  0.7246
  122OSM    H8G12993   7.866   7.209   9.352 -0.2454 -2.3990 -0.4214
  122OSM    C9F12994   7.803   7.331   9.174  0.5087  0.3610  0.1630
  122OSM    H9F12995   7.724   7.407   9.160  1.3272  0.9802 -1.1761
  122OSM   C10F12996   7.907   7.318   9.082 -0.0168  0.2051 -0.2583
  122OSM   H10F12997   7.910   7.381   8.992  0.8797 -0.3919 -0.6514
  122OSM   C11F12998   8.009   7.207   9.077 -0.7309  0.1319  0.5792
  122OSM   H11F12999   7.971   7.131   9.149 -0.0835  0.1259  0.9212
  122OSM   H11G13000   8.111   7.243   9.104 -0.4347  1.6055 -2.2863
  122OSM   C12F13001   8.014   7.142   8.934 -0.1084  0.1404 -0.0823
  122OSM   H12F13002   8.023   7.226   8.861 -1.9756  1.5938  1.3009
  122OSM   H12G13003   7.920   7.086   8.912 -1.1754  0.7626  2.7424
  122OSM   C13F13004   8.145   7.067   8.916 -0.4512 -0.4014 -0.0138
  122OSM   H13F13005   8.155   6.977   8.980 -0.9097 -0.2649  0.2504
  122OSM   H13G13006   8.232   7.131   8.940 -1.3288  0.5738  0.5911
  122OSM   C14F13007   8.160   7.020   8.772 -0.4492 -0.6754 -0.0212
  122OSM   H14F13008   8.163   7.103   8.698 -1.9440 -0.1386  0.4934
  122OSM   H14G13009   8.072   6.955   8.752 -0.5600 -0.9362  1.2644
  122OSM   C15F13010   8.286   6.934   8.756  0.2059 -0.1090 -0.4491
  122OSM   H15F13011   8.267   6.878   8.662 -0.7385 -1.8203  0.7137
  122OSM   H15G13012   8.289   6.852   8.832 -2.1801 -1.7057 -2.0163
  122OSM   C16F13013   8.426   6.998   8.758 -0.3699 -0.4618 -0.1122
  122OSM   H16F13014   8.505   6.921   8.742  0.7085  0.5901  0.0830
  122OSM   H16G13015   8.432   7.036   8.862 -0.4346 -1.8898  0.4214
  122OSM   C17F13016   8.445   7.099   8.653  0.5018 -0.4558  0.1249
  122OSM   H17F13017   8.548   7.134   8.673  0.5384 -0.7992  0.5419
  122OSM   H17G13018   8.381   7.190   8.659  1.5268  0.2245  0.8149
  122OSM   C18F13019   8.452   7.040   8.514  0.3239 -0.0504  0.0809
  122OSM   H18F13020   8.348   7.014   8.483 -0.2754  1.8016  0.4378
  122OSM   H18G13021   8.513   6.948   8.507 -0.7596 -0.8989  1.5616
  122OSM   H18H13022   8.488   7.116   8.442  3.1599 -1.0375  0.4213
  123OSM      N13023   3.675   4.863   5.999  0.6941 -0.4977 -0.1597
  123OSM    C1513024   3.699   4.727   6.061 -0.0046  0.0044 -0.9853
  123OSM   H15A13025   3.803   4.721   6.092 -0.5991  0.4335  1.2003
  123OSM   H15B13026   3.666   4.641   6.005  0.2321 -1.8892  1.7026
  123OSM   H15C13027   3.641   4.718   6.152 -0.3176  1.4400 -1.0275
  123OSM    C1413028   3.724   4.966   6.092 -0.0139  0.4812 -0.2895
  123OSM   H14A13029   3.662   4.963   6.181 -1.0189 -1.7430 -1.0395
  123OSM   H14B13030   3.723   5.067   6.052  1.6852  0.0109 -1.5761
  123OSM   H14C13031   3.829   4.948   6.108 -0.0049 -1.5484 -2.3520
  123OSM    C1313032   3.756   4.869   5.882 -0.0483  0.7678  0.1892
  123OSM   H13A13033   3.766   4.973   5.855 -0.2154  1.4974  2.8243
  123OSM   H13B13034   3.722   4.812   5.796  0.1548 -0.1828  0.7294
  123OSM   H13C13035   3.849   4.821   5.909  0.3022  1.0141 -0.5537
  123OSM    C1213036   3.527   4.879   5.974 -0.7376  0.3870 -0.8152
  123OSM   H12A13037   3.504   4.984   5.962 -0.6087  0.7508  1.8331
  123OSM   H12B13038   3.470   4.851   6.062 -0.8382  0.9276 -0.7068
  123OSM    C1113039   3.472   4.799   5.854 -0.1124  0.3413 -0.3680
  123OSM   H11A13040   3.506   4.847   5.760  1.3469  0.2834  0.1276
  123OSM   H11B13041   3.364   4.821   5.840 -0.5169 -1.0808  0.4226
  123OSM      P13042   3.399   4.567   5.959 -0.2936 -0.2695 -0.0126
  123OSM    O1313043   3.272   4.525   5.896  0.1761  0.2457 -0.1613
  123OSM    O1413044   3.491   4.467   6.011 -0.6908  0.0701  0.6407
  123OSM    O1113045   3.370   4.670   6.076 -0.0815  0.2910 -0.7333
  123OSM    O1213046   3.488   4.657   5.862 -0.3948 -0.1362  0.2286
  123OSM    C1S13047   3.257   4.661   6.162 -0.7354 -0.8162  0.2707
  123OSM    H1S13048   3.173   4.603   6.118 -1.4625 -0.4976  1.2202
  123OSM    H1T13049   3.222   4.765   6.180  4.3650  1.4172 -1.6253
  123OSM     NF13050   3.170   4.559   6.370 -0.1032 -0.1882  0.1661
  123OSM    HNF13051   3.149   4.584   6.465  1.8584  1.0943  0.2964
  123OSM    C2S13052   3.284   4.597   6.297 -1.0866 -0.2609  0.8176
  123OSM    H2S13053   3.327   4.496   6.280 -0.7396 -0.2078  1.3614
  123OSM    C3S13054   3.383   4.694   6.381 -0.5636 -0.3718  0.0780
  123OSM    H3S13055   3.330   4.789   6.398  2.2357  1.3772 -0.6380
  123OSM     O313056   3.498   4.734   6.313  0.3147  0.2055  0.2001
  123OSM    HO313057   3.485   4.707   6.222 -0.8391  2.5589 -0.3634
  123OSM    C4S13058   3.435   4.629   6.512  0.0209 -0.3268  0.4709
  123OSM    H4S13059   3.509   4.548   6.503 -1.0261 -1.3638  1.0222
  123OSM    C5S13060   3.413   4.665   6.630  0.4232 -0.0395  0.1501
  123OSM    H5S13061   3.335   4.740   6.648  1.6471  1.0491  1.0353
  123OSM    C6S13062   3.463   4.605   6.759 -0.2127 -0.4230  0.0659
  123OSM    H6S13063   3.477   4.495   6.758  0.2583 -0.3697  0.7838
  123OSM    H6T13064   3.408   4.620   6.854  2.6506 -1.3460  1.9162
  123OSM    C7S13065   3.604   4.660   6.784  0.0192 -0.2183  0.3499
  123OSM    H7S13066   3.606   4.770   6.775 -2.9891 -0.2049 -0.6649
  123OSM    H7T13067   3.686   4.634   6.714 -0.2132 -0.9732  0.3521
  123OSM    C8S13068   3.647   4.638   6.926 -0.9151 -0.7581 -0.9220
  123OSM    H8S13069   3.644   4.527   6.936 -0.2498 -0.7164 -0.1210
  123OSM    H8T13070   3.568   4.676   6.995 -0.6071 -3.6479  1.1415
  123OSM    C9S13071   3.789   4.681   6.965  0.4041  0.1119  0.0524
  123OSM    H9S13072   3.809   4.773   6.905  2.1104  0.7153  1.5203
  123OSM    H9T13073   3.870   4.613   6.933  0.3603  0.1774 -0.2045
  123OSM   C10S13074   3.811   4.704   7.117 -0.1830 -0.1334  0.6691
  123OSM   H10S13075   3.805   4.605   7.167 -1.5949 -0.5799 -0.3504
  123OSM   H10T13076   3.728   4.763   7.162  0.0217  1.9846 -1.6452
  123OSM   C11S13077   3.938   4.782   7.154  0.1690  0.2223  0.0936
  123OSM   H11S13078   3.941   4.886   7.115  0.8135  0.9664  2.0838
  123OSM   H11T13079   4.030   4.739   7.109  1.0873  2.2405 -0.0099
  123OSM   C12S13080   3.963   4.772   7.311 -0.0562 -0.0083  0.0001
  123OSM   H12S13081   4.052   4.834   7.335  0.7275  0.7610 -4.4467
  123OSM   H12T13082   3.995   4.668   7.333  0.3607 -0.6977 -3.4833
  123OSM   C13S13083   3.832   4.818   7.387 -0.1021 -0.3185 -0.2963
  123OSM   H13S13084   3.747   4.747   7.377  0.8677 -1.6105  0.4778
  123OSM   H13T13085   3.792   4.911   7.341  4.3339  2.8348  1.9193
  123OSM   C14S13086   3.854   4.848   7.534  0.4131 -0.8157 -1.3064
  123OSM   H14S13087   3.911   4.943   7.537 -0.4754 -0.3093  1.7222
  123OSM   H14T13088   3.910   4.767   7.585 -0.4816 -1.5092 -1.4061
  123OSM   C15S13089   3.715   4.853   7.612  1.3549  0.0964  0.1829
  123OSM   H15S13090   3.668   4.755   7.591  2.0372 -0.3773  0.8322
  123OSM   H15T13091   3.644   4.929   7.573 -0.7140 -0.4666  2.7173
  123OSM   C16S13092   3.721   4.875   7.761 -0.4231  0.0317 -0.0996
  123OSM   H16S13093   3.777   4.965   7.795  0.7107 -0.6453 -0.1553
  123OSM   H16T13094   3.765   4.790   7.817 -1.2093 -0.3043  0.0230
  123OSM   C17S13095   3.578   4.881   7.821 -0.7063 -0.3095 -0.3432
  123OSM   H17S13096   3.560   4.771   7.824 -1.6351 -0.1756 -0.8069
  123OSM   H17T13097   3.506   4.931   7.752 -0.1141  1.9815  0.6486
  123OSM   C18S13098   3.564   4.931   7.966  0.3644  0.4701  0.1523
  123OSM   H18S13099   3.586   5.039   7.978  0.9960  0.1241  2.3634
  123OSM   H18T13100   3.641   4.867   8.015 -1.0490 -3.2564 -2.2822
  123OSM   H18U13101   3.462   4.923   8.008  0.1021 -0.6434 -0.6953
  123OSM    C1F13102   3.078   4.479   6.329 -0.0485 -0.3485 -0.1639
  123OSM     OF13103   3.067   4.443   6.213  0.2492  0.2648  0.5601
  123OSM    C2F13104   2.991   4.429   6.436 -0.5023  0.3498  0.6066
  123OSM    H2F13105   2.888   4.430   6.394 -0.7209  0.6188  1.1490
  123OSM    H2G13106   2.997   4.493   6.527 -0.1017  0.7298  0.3115
  123OSM    C3F13107   3.028   4.285   6.471 -0.3068 -0.2849 -0.1063
  123OSM    H3F13108   3.125   4.279   6.525 -0.3996 -3.2621 -0.1801
  123OSM    H3G13109   3.052   4.225   6.380  3.9961 -1.9998  2.0026
  123OSM    C4F13110   2.921   4.227   6.556  0.0956 -0.2290  0.2291
  123OSM    H4F13111   2.957   4.123   6.575 -0.4406 -0.6483 -0.9951
  123OSM    H4G13112   2.828   4.215   6.496 -0.8288 -1.4666  1.8655
  123OSM    C5F13113   2.882   4.295   6.687 -0.3131  0.7442 -0.2772
  123OSM    H5F13114   2.815   4.225   6.741  2.7115 -2.9548 -1.0696
  123OSM    H5G13115   2.834   4.390   6.657 -2.2290 -0.0014  0.3798
  123OSM    C6F13116   2.998   4.328   6.787  0.0761  0.5511  0.0928
  123OSM    H6F13117   3.060   4.404   6.735 -0.9716  0.3986 -1.4376
  123OSM    H6G13118   3.060   4.239   6.814 -0.0331  0.1615 -0.9049
  123OSM    C7F13119   2.966   4.398   6.914  0.2918 -0.1787 -0.1969
  123OSM    H7F13120   2.932   4.333   6.998  0.1234  0.1190 -0.0361
  123OSM    H7G13121   2.878   4.460   6.886 -0.6248 -1.7818 -0.9841
  123OSM    C8F13122   3.075   4.499   6.951  0.6300 -0.2954  0.0663
  123OSM    H8F13123   3.049   4.554   7.043  0.2466  1.7332 -1.2237
  123OSM    H8G13124   3.093   4.567   6.865  1.2653  2.0940  2.0302
  123OSM    C9F13125   3.210   4.433   6.980 -0.2535 -0.1441  0.2246
  123OSM    H9F13126   3.258   4.379   6.897  1.2569  2.1195 -0.4361
  123OSM   C10F13127   3.285   4.461   7.087 -0.3015  0.7535 -0.7284
  123OSM   H10F13128   3.379   4.404   7.092 -2.1501 -2.4347 -0.8087
  123OSM   C11F13129   3.266   4.549   7.212 -0.2792 -0.2173  0.2909
  123OSM   H11F13130   3.230   4.649   7.178 -1.1675 -0.1139  1.4768
  123OSM   H11G13131   3.365   4.574   7.255 -0.5288  0.6508  0.3678
  123OSM   C12F13132   3.181   4.472   7.308  0.3445 -0.9945  0.4265
  123OSM   H12F13133   3.236   4.383   7.344  0.6093 -1.2642 -0.6303
  123OSM   H12G13134   3.089   4.434   7.259 -1.1903  0.3777  2.1192
  123OSM   C13F13135   3.125   4.563   7.422  0.1942  0.1212  0.2451
  123OSM   H13F13136   3.063   4.642   7.375 -0.5897 -0.7420 -0.1927
  123OSM   H13G13137   3.216   4.604   7.471  1.4862 -1.3171 -0.8891
  123OSM   C14F13138   3.033   4.491   7.520  0.2603  0.3662  0.0267
  123OSM   H14F13139   3.099   4.407   7.552 -0.2834  0.3017  0.9811
  123OSM   H14G13140   2.939   4.453   7.475  0.7269  1.8199 -2.2788
  123OSM   C15F13141   3.006   4.580   7.642  0.6517  0.3145 -0.5431
  123OSM   H15F13142   2.939   4.657   7.599 -0.8596 -1.7478 -2.0305
  123OSM   H15G13143   3.089   4.627   7.697  0.0384 -2.2639  2.7550
  123OSM   C16F13144   2.930   4.496   7.748 -0.2894 -0.1452  0.0534
  123OSM   H16F13145   2.997   4.422   7.797  0.5614 -0.9599 -2.2784
  123OSM   H16G13146   2.844   4.440   7.704 -0.3026  1.4110 -1.9499
  123OSM   C17F13147   2.868   4.575   7.861  0.1161  1.0781 -0.8460
  123OSM   H17F13148   2.815   4.664   7.820  0.6293  1.0203 -1.6477
  123OSM   H17G13149   2.948   4.604   7.933  1.6798 -0.0044 -2.1309
  123OSM   C18F13150   2.744   4.509   7.930  0.1581  0.7133  0.3435
  123OSM   H18F13151   2.666   4.480   7.857  0.2571  1.3841 -0.0254
  123OSM   H18G13152   2.688   4.574   8.001 -0.4158 -0.9197  1.4145
  123OSM   H18H13153   2.774   4.417   7.985  1.1868  0.4500 -0.6342
  124OSM      N13154   5.363   2.252   5.354  0.3783  0.1542 -0.4103
  124OSM    C1513155   5.238   2.228   5.431  0.5776  0.1395  0.2519
  124OSM   H15A13156   5.258   2.219   5.537 -0.1066 -0.2925  0.3444
  124OSM   H15B13157   5.192   2.135   5.402  2.4907 -0.7247 -0.1400
  124OSM   H15C13158   5.162   2.304   5.423 -0.2817 -0.3900  2.8394
  124OSM    C1413159   5.455   2.138   5.371  0.3666 -0.1626 -0.0443
  124OSM   H14A13160   5.542   2.141   5.306  1.7901 -0.9507  1.7811
  124OSM   H14B13161   5.402   2.048   5.341  0.3232 -0.0046 -0.4495
  124OSM   H14C13162   5.486   2.137   5.474  1.3005  2.3540 -0.2715
  124OSM    C1313163   5.328   2.255   5.207 -0.8002  0.3044  0.5065
  124OSM   H13A13164   5.277   2.163   5.184  0.4633  0.4389 -3.0986
  124OSM   H13B13165   5.414   2.270   5.144 -0.3396  0.0705  1.0730
  124OSM   H13C13166   5.277   2.349   5.189  0.7323  0.9794 -0.4090
  124OSM    C1213167   5.426   2.392   5.390 -0.2385 -0.0390 -0.3130
  124OSM   H12A13168   5.359   2.470   5.356  1.8443  1.2394 -1.5311
  124OSM   H12B13169   5.519   2.412   5.341 -0.3952 -1.5670 -1.2748
  124OSM    C1113170   5.462   2.408   5.542 -0.3722 -0.2469  0.1718
  124OSM   H11A13171   5.370   2.387   5.601 -0.2276  1.5533  1.0989
  124OSM   H11B13172   5.500   2.512   5.553  1.3930 -0.6227 -1.9318
  124OSM      P13173   5.579   2.238   5.715  0.0390 -0.3564 -0.4940
  124OSM    O1313174   5.489   2.301   5.817 -0.1039  0.2320  0.3725
  124OSM    O1413175   5.549   2.103   5.670  0.3570 -0.4068  0.0763
  124OSM    O1113176   5.727   2.236   5.764 -0.0877  0.4189  0.5585
  124OSM    O1213177   5.575   2.323   5.584  0.2288 -0.4860 -0.2817
  124OSM    C1S13178   5.822   2.339   5.743  0.0624  0.1552  0.2465
  124OSM    H1S13179   5.834   2.384   5.643  1.5135 -1.2306 -0.2274
  124OSM    H1T13180   5.923   2.296   5.757  0.5003  2.0614  3.3954
  124OSM     NF13181   5.887   2.565   5.800 -0.2946  0.1071 -0.0098
  124OSM    HNF13182   5.964   2.582   5.861 -0.0213  1.0937 -0.6103
  124OSM    C2S13183   5.804   2.451   5.841  0.3934 -0.8034 -0.3952
  124OSM    H2S13184   5.697   2.478   5.832  0.4421 -0.6173 -0.4211
  124OSM    C3S13185   5.833   2.395   5.983 -0.2886  0.9509  0.3413
  124OSM    H3S13186   5.942   2.376   5.992 -0.4580  0.1007  0.6525
  124OSM     O313187   5.759   2.280   6.021  0.4884 -0.1000  0.8114
  124OSM    HO313188   5.758   2.230   5.939 -0.8903  0.1768  0.6517
  124OSM    C4S13189   5.807   2.506   6.087 -0.1256  0.2683  0.6358
  124OSM    H4S13190   5.900   2.558   6.112  2.4728 -2.3130 -3.1135
  124OSM    C5S13191   5.695   2.532   6.156 -0.3158  0.1199 -0.3248
  124OSM    H5S13192   5.608   2.469   6.130 -1.6054  0.8201  2.1163
  124OSM    C6S13193   5.683   2.634   6.263  0.0930  0.4294  0.0401
  124OSM    H6S13194   5.585   2.633   6.315  0.4904  1.4978  0.8390
  124OSM    H6T13195   5.692   2.737   6.223 -1.2960  1.2734  1.7992
  124OSM    C7S13196   5.803   2.632   6.370 -0.1885 -0.6557  0.2748
  124OSM    H7S13197   5.894   2.644   6.307  0.4559 -1.4836  1.0339
  124OSM    H7T13198   5.800   2.534   6.423  0.0067 -0.0377  1.4213
  124OSM    C8S13199   5.785   2.749   6.465 -0.5409 -0.4760  0.3135
  124OSM    H8S13200   5.745   2.841   6.417 -0.3780 -1.0854 -1.0177
  124OSM    H8T13201   5.890   2.765   6.495 -0.7933 -0.9216  1.4326
  124OSM    C9S13202   5.708   2.721   6.594  0.9352  0.5549 -0.2941
  124OSM    H9S13203   5.739   2.620   6.628 -1.6353 -0.0111  0.4717
  124OSM    H9T13204   5.599   2.708   6.578  1.0318 -1.1161  0.2917
  124OSM   C10S13205   5.717   2.830   6.702 -0.4942  0.4183  0.6137
  124OSM   H10S13206   5.647   2.915   6.687  1.4064  2.0080  0.4916
  124OSM   H10T13207   5.820   2.873   6.702  0.3417 -1.4243 -2.5104
  124OSM   C11S13208   5.692   2.769   6.844 -0.2533 -0.4009  0.0505
  124OSM   H11S13209   5.712   2.660   6.851  0.2763 -0.2778  0.4668
  124OSM   H11T13210   5.582   2.776   6.859 -0.2444 -1.2936  0.4981
  124OSM   C12S13211   5.759   2.847   6.959 -0.3213  0.2982 -0.2115
  124OSM   H12S13212   5.735   2.956   6.959  3.8664  1.3411  1.3950
  124OSM   H12T13213   5.869   2.846   6.945 -0.1580 -0.9298  1.0953
  124OSM   C13S13214   5.727   2.797   7.097 -0.8169  0.3320 -0.0447
  124OSM   H13S13215   5.786   2.854   7.171  0.1620 -0.4986 -0.1699
  124OSM   H13T13216   5.763   2.692   7.107 -0.2381  0.6401  1.0518
  124OSM   C14S13217   5.578   2.784   7.137  0.5866 -0.2790  0.6067
  124OSM   H14S13218   5.518   2.725   7.065 -0.0807  0.3560  0.6370
  124OSM   H14T13219   5.534   2.886   7.138 -1.6434 -1.1828 -1.2096
  124OSM   C15S13220   5.577   2.732   7.278 -0.3814 -0.1656  0.0266
  124OSM   H15S13221   5.637   2.798   7.343  0.6243 -1.4312  0.3823
  124OSM   H15T13222   5.622   2.631   7.292  0.8637  0.5859  1.5701
  124OSM   C16S13223   5.429   2.713   7.321  0.2088 -0.5173 -0.5507
  124OSM   H16S13224   5.372   2.647   7.251 -2.2495  0.4426  0.4975
  124OSM   H16T13225   5.383   2.813   7.320  0.3431 -0.4606 -1.3798
  124OSM   C17S13226   5.429   2.643   7.455 -0.4385  0.2440 -0.0935
  124OSM   H17S13227   5.508   2.690   7.517 -0.8785  1.3781 -0.3689
  124OSM   H17T13228   5.448   2.535   7.441  1.5289  0.7153 -1.1714
  124OSM   C18S13229   5.284   2.666   7.517  0.7362  0.1128 -0.3787
  124OSM   H18S13230   5.251   2.772   7.510  0.9723  0.0966 -2.2232
  124OSM   H18T13231   5.284   2.650   7.627  1.4605 -0.8136 -0.5092
  124OSM   H18U13232   5.214   2.594   7.469  2.3511 -0.8140 -1.3966
  124OSM    C1F13233   5.849   2.643   5.699  0.2120 -0.4459 -0.5889
  124OSM     OF13234   5.733   2.631   5.650  0.0090  0.0820 -0.7725
  124OSM    C2F13235   5.941   2.759   5.656  1.1108  0.2050 -0.2837
  124OSM    H2F13236   5.872   2.822   5.596 -0.5972 -0.0796  1.3209
  124OSM    H2G13237   6.015   2.721   5.582  1.4278  2.9118 -1.4155
  124OSM    C3F13238   6.017   2.842   5.755 -0.3026 -0.4879  0.0489
  124OSM    H3F13239   6.089   2.909   5.704 -1.5095  2.1199  1.6594
  124OSM    H3G13240   6.075   2.774   5.822  1.8161  2.2901  1.1073
  124OSM    C4F13241   5.921   2.908   5.853  0.4859  0.2003 -1.3243
  124OSM    H4F13242   5.867   2.834   5.916  1.8232  0.8949  0.6855
  124OSM    H4G13243   5.840   2.959   5.795 -0.8241 -0.3862 -0.0578
  124OSM    C5F13244   5.988   3.010   5.948  0.7455  0.0214 -0.2008
  124OSM    H5F13245   6.044   3.081   5.884 -1.5151  2.7268  0.7450
  124OSM    H5G13246   6.047   2.964   6.030  0.2118 -0.8267 -0.2901
  124OSM    C6F13247   5.886   3.107   6.020  0.1483 -0.3790  0.5732
  124OSM    H6F13248   5.835   3.161   5.937  0.3830  1.4952  1.6007
  124OSM    H6G13249   5.958   3.176   6.069  1.7401 -0.8633 -1.0354
  124OSM    C7F13250   5.784   3.040   6.110  0.0174 -0.6857 -0.2312
  124OSM    H7F13251   5.848   2.998   6.190  2.0420  0.4955 -1.1957
  124OSM    H7G13252   5.717   2.962   6.067 -0.7772 -1.1633  1.8407
  124OSM    C8F13253   5.688   3.155   6.173  0.1750 -0.6452 -0.0195
  124OSM    H8F13254   5.748   3.236   6.220 -1.7127  1.4046 -1.0499
  124OSM    H8G13255   5.636   3.101   6.255 -0.9182 -0.3950 -0.5472
  124OSM    C9F13256   5.585   3.200   6.069  0.6467  0.1451  0.8475
  124OSM    H9F13257   5.630   3.246   5.980  0.7691 -0.4334  0.6116
  124OSM   C10F13258   5.449   3.177   6.066 -0.2116  0.0424 -0.3527
  124OSM   H10F13259   5.382   3.230   5.997 -1.0438  1.1620  1.2798
  124OSM   C11F13260   5.372   3.106   6.176 -0.2076 -0.2536  0.2052
  124OSM   H11F13261   5.269   3.148   6.176 -0.0953  0.0407  1.8848
  124OSM   H11G13262   5.415   3.128   6.276  2.0841  0.4953 -0.9131
  124OSM   C12F13263   5.353   2.953   6.148 -0.3567  0.1048 -0.1080
  124OSM   H12F13264   5.455   2.911   6.136  0.0253 -0.1163  3.2934
  124OSM   H12G13265   5.297   2.928   6.056  0.7623 -2.2234 -0.1932
  124OSM   C13F13266   5.279   2.884   6.266 -0.3151  0.2235 -0.0883
  124OSM   H13F13267   5.261   2.778   6.239  3.5635 -0.2893 -0.8993
  124OSM   H13G13268   5.181   2.931   6.288 -1.1357 -2.3070  1.9227
  124OSM   C14F13269   5.348   2.905   6.403 -0.4950 -0.1957  0.2812
  124OSM   H14F13270   5.320   3.001   6.451 -0.7231 -0.2346  0.2302
  124OSM   H14G13271   5.456   2.920   6.385 -0.4789  0.7405  1.1237
  124OSM   C15F13272   5.320   2.801   6.507 -0.0595  0.2726  0.6081
  124OSM   H15F13273   5.381   2.825   6.597 -2.2419  2.0374  1.6670
  124OSM   H15G13274   5.360   2.705   6.469 -3.0412 -0.8483  0.1471
  124OSM   C16F13275   5.166   2.787   6.534  0.5375 -0.4611 -0.1385
  124OSM   H16F13276   5.151   2.697   6.597  1.5109  1.2317  2.5757
  124OSM   H16G13277   5.116   2.769   6.436 -0.1205  1.2120 -0.1344
  124OSM   C17F13278   5.096   2.913   6.604  0.1831  0.1028  0.5243
  124OSM   H17F13279   4.987   2.895   6.616 -0.0336 -1.2811 -2.7494
  124OSM   H17G13280   5.105   2.999   6.535  2.1433  0.6035  1.3769
  124OSM   C18F13281   5.153   2.938   6.741  0.0366  0.7710  0.3017
  124OSM   H18F13282   5.264   2.929   6.740 -0.2192 -3.5601  1.9845
  124OSM   H18G13283   5.114   2.855   6.803 -1.3659 -0.8451 -2.6436
  124OSM   H18H13284   5.111   3.033   6.782 -0.9175  0.7219 -0.5387
  125OSM      N13285   5.440   3.882   5.747 -0.0172 -0.1464  0.3326
  125OSM    C1513286   5.587   3.919   5.717 -0.0526  0.3175 -0.5420
  125OSM   H15A13287   5.619   3.992   5.790 -2.9948  1.4766 -0.3383
  125OSM   H15B13288   5.596   3.964   5.620 -2.3293  1.1860 -0.3872
  125OSM   H15C13289   5.645   3.828   5.718  0.5851  0.6854  2.7893
  125OSM    C1413290   5.363   4.001   5.707 -0.0697  0.7578  0.3592
  125OSM   H14A13291   5.259   3.992   5.736 -0.3996 -1.2546 -1.3557
  125OSM   H14B13292   5.366   4.026   5.603 -4.7520  3.2588  0.6844
  125OSM   H14C13293   5.396   4.087   5.764  0.4344  0.5740  0.3473
  125OSM    C1313294   5.405   3.758   5.669 -0.2083 -0.3715 -0.8627
  125OSM   H13A13295   5.454   3.670   5.710 -0.4887  0.4136  1.1963
  125OSM   H13B13296   5.427   3.763   5.563 -0.2680 -1.5495 -0.9407
  125OSM   H13C13297   5.300   3.740   5.681 -0.4985  1.2292 -0.9061
  125OSM    C1213298   5.424   3.854   5.893 -0.1919  0.5731 -0.4690
  125OSM   H12A13299   5.483   3.771   5.929 -1.3785 -0.3670 -0.6796
  125OSM   H12B13300   5.322   3.824   5.909 -0.1812  0.2685 -0.9624
  125OSM    C1113301   5.452   3.968   5.997  0.4211 -0.2107 -0.0762
  125OSM   H11A13302   5.437   3.928   6.099  1.5564 -0.3013  0.0641
  125OSM   H11B13303   5.369   4.040   5.982  0.8445  0.3464  0.2258
  125OSM      P13304   5.692   3.985   6.069 -0.1679 -0.1622 -0.0108
  125OSM    O1313305   5.701   3.838   6.072 -0.5195 -0.4901 -0.3612
  125OSM    O1413306   5.817   4.053   6.035  0.9743  0.4249  0.2302
  125OSM    O1113307   5.636   4.025   6.215 -0.8739  0.3304 -0.4195
  125OSM    O1213308   5.575   4.037   5.977 -0.1070 -0.1963  0.1511
  125OSM    C1S13309   5.624   4.166   6.242 -0.0683 -0.0459 -0.2917
  125OSM    H1S13310   5.655   4.234   6.161 -2.6053 -1.2377 -2.3478
  125OSM    H1T13311   5.676   4.190   6.337 -0.1261 -0.1601 -0.2298
  125OSM     NF13312   5.453   4.324   6.328 -0.5655 -0.1740 -0.0856
  125OSM    HNF13313   5.408   4.339   6.416  0.6357  0.3348  0.4470
  125OSM    C2S13314   5.469   4.187   6.274  0.4712  0.1035 -0.3764
  125OSM    H2S13315   5.403   4.189   6.184  1.1669  0.0596 -0.8876
  125OSM    C3S13316   5.410   4.081   6.368  0.6915 -0.1100  0.1556
  125OSM    H3S13317   5.403   3.981   6.319 -0.7215  0.4948 -0.9101
  125OSM     O313318   5.270   4.096   6.383  0.4269 -0.2146 -0.0904
  125OSM    HO313319   5.249   4.167   6.322 -2.1766 -0.5173  0.3943
  125OSM    C4S13320   5.481   4.075   6.503 -0.1873  0.4827 -0.0209
  125OSM    H4S13321   5.459   4.152   6.579  0.0442  0.2150  0.3200
  125OSM    C5S13322   5.566   3.977   6.537 -0.2558  0.6070  0.1083
  125OSM    H5S13323   5.580   3.893   6.468 -1.2380  0.7856 -0.3187
  125OSM    C6S13324   5.641   3.969   6.672 -0.1911 -0.8467 -0.3374
  125OSM    H6S13325   5.629   4.065   6.728 -0.2299 -1.5279  0.8428
  125OSM    H6T13326   5.750   3.949   6.664  0.0049  0.2089 -0.4275
  125OSM    C7S13327   5.578   3.857   6.766 -0.6227 -0.1833 -0.2047
  125OSM    H7S13328   5.557   3.770   6.700  1.0074 -3.1951  3.0537
  125OSM    H7T13329   5.484   3.889   6.816 -0.1417 -0.7107  1.0427
  125OSM    C8S13330   5.675   3.816   6.877 -0.3170  0.3995  0.7379
  125OSM    H8S13331   5.769   3.784   6.828 -0.8043  0.5169 -0.2965
  125OSM    H8T13332   5.635   3.730   6.935  0.0160  0.0172  0.3978
  125OSM    C9S13333   5.708   3.938   6.972  0.2804 -0.0837  0.2252
  125OSM    H9S13334   5.758   4.024   6.922  0.6103 -2.3812 -3.6287
  125OSM    H9T13335   5.774   3.905   7.055 -0.6550 -2.5104  0.0453
  125OSM   C10S13336   5.579   3.995   7.039  0.0273 -0.6542 -0.5253
  125OSM   H10S13337   5.530   3.905   7.080 -0.9233  0.6848  1.3506
  125OSM   H10T13338   5.521   4.050   6.962  1.8751 -0.5855 -1.9217
  125OSM   C11S13339   5.609   4.088   7.156  0.0236 -0.3204  0.2765
  125OSM   H11S13340   5.657   4.181   7.118 -1.5531  0.8577  1.1197
  125OSM   H11T13341   5.670   4.034   7.232 -0.0022 -2.8815 -1.4390
  125OSM   C12S13342   5.472   4.116   7.230 -0.5913 -0.6443  0.5446
  125OSM   H12S13343   5.442   4.023   7.282 -1.5938  0.5557  2.1483
  125OSM   H12T13344   5.400   4.125   7.146  1.0453 -0.8145 -0.9174
  125OSM   C13S13345   5.473   4.222   7.339  0.0260 -0.8698 -0.5171
  125OSM   H13S13346   5.370   4.220   7.380  0.5072  0.0396  0.7891
  125OSM   H13T13347   5.501   4.324   7.303  0.2676 -0.7229  0.0914
  125OSM   C14S13348   5.553   4.189   7.469  0.3871  0.8204  0.9683
  125OSM   H14S13349   5.660   4.202   7.443  0.0046  0.1184 -1.0536
  125OSM   H14T13350   5.539   4.082   7.498 -0.3180  0.7681  0.4632
  125OSM   C15S13351   5.506   4.273   7.584 -0.3853  1.0779 -0.2077
  125OSM   H15S13352   5.399   4.254   7.609 -0.6745  0.1638 -2.0786
  125OSM   H15T13353   5.514   4.379   7.552  1.5511  0.5424 -1.6068
  125OSM   C16S13354   5.589   4.242   7.716 -0.3356 -0.1522 -0.5758
  125OSM   H16S13355   5.615   4.134   7.715 -0.1164 -0.1127  0.5875
  125OSM   H16T13356   5.529   4.258   7.807 -0.6501 -1.6925 -0.5057
  125OSM   C17S13357   5.707   4.330   7.719  0.3211  0.5761  0.5697
  125OSM   H17S13358   5.762   4.318   7.623  2.5680  0.4355  1.8320
  125OSM   H17T13359   5.762   4.283   7.805  2.6220 -0.1053 -1.2128
  125OSM   C18S13360   5.672   4.479   7.749  0.2906  0.5650 -0.1524
  125OSM   H18S13361   5.603   4.491   7.836  0.0385  0.1727 -0.2983
  125OSM   H18T13362   5.620   4.528   7.664 -1.1672  3.0806  2.0926
  125OSM   H18U13363   5.769   4.531   7.767  1.5993 -1.2627 -1.7540
  125OSM    C1F13364   5.510   4.435   6.281  0.5168 -0.4650  0.2026
  125OSM     OF13365   5.513   4.452   6.161 -0.3344  0.2808  0.1307
  125OSM    C2F13366   5.558   4.539   6.378 -0.3385 -0.1741 -0.5566
  125OSM    H2F13367   5.532   4.645   6.361 -0.3554 -0.3916 -1.9180
  125OSM    H2G13368   5.669   4.535   6.367 -0.1868  0.3977  0.6313
  125OSM    C3F13369   5.519   4.484   6.519 -0.3988  0.6613  0.1511
  125OSM    H3F13370   5.572   4.387   6.531  0.3981  0.8803 -1.5553
  125OSM    H3G13371   5.411   4.461   6.529 -0.8503  3.2467  1.8046
  125OSM    C4F13372   5.552   4.573   6.639  0.4412 -0.1121 -0.0612
  125OSM    H4F13373   5.487   4.661   6.625  0.7665 -0.0004 -0.9300
  125OSM    H4G13374   5.654   4.615   6.627 -1.1601  3.4706 -1.8198
  125OSM    C5F13375   5.534   4.517   6.784  0.0401  0.5965 -0.2010
  125OSM    H5F13376   5.608   4.435   6.798  1.3036  1.8645  0.6670
  125OSM    H5G13377   5.439   4.470   6.816 -0.2663  0.0410 -1.8481
  125OSM    C6F13378   5.569   4.619   6.885 -0.3358 -0.5585  0.8689
  125OSM    H6F13379   5.515   4.716   6.883 -0.1538 -0.4333  1.7976
  125OSM    H6G13380   5.676   4.643   6.867 -0.8280  0.8010 -0.3177
  125OSM    C7F13381   5.557   4.559   7.027  0.1568 -0.2949 -0.8708
  125OSM    H7F13382   5.593   4.454   7.018 -0.0676 -0.6411  1.9722
  125OSM    H7G13383   5.452   4.546   7.060  0.7039 -0.7571  0.7351
  125OSM    C8F13384   5.624   4.648   7.134 -0.1256  0.1922  0.0956
  125OSM    H8F13385   5.589   4.753   7.129  1.9423  0.8853 -0.2850
  125OSM    H8G13386   5.734   4.654   7.119 -0.0519 -3.4123 -1.1837
  125OSM    C9F13387   5.603   4.586   7.271 -0.1461  0.3914  0.2571
  125OSM    H9F13388   5.676   4.506   7.286  1.2283  1.7106  0.8135
  125OSM   C10F13389   5.510   4.626   7.362 -0.2765  0.5774  0.3450
  125OSM   H10F13390   5.540   4.584   7.460  2.3399 -0.3242 -0.8115
  125OSM   C11F13391   5.404   4.738   7.364  0.1385  0.6139 -0.2099
  125OSM   H11F13392   5.307   4.695   7.332  1.1750 -0.0506 -2.6334
  125OSM   H11G13393   5.434   4.817   7.292 -0.6020  1.1690  0.0857
  125OSM   C12F13394   5.362   4.797   7.500 -0.0784  0.4561 -0.3689
  125OSM   H12F13395   5.284   4.871   7.469  1.4421  2.6477  0.8622
  125OSM   H12G13396   5.445   4.863   7.536  1.2037 -0.6997 -1.1575
  125OSM   C13F13397   5.312   4.697   7.601 -0.3451  0.4568  0.3901
  125OSM   H13F13398   5.381   4.611   7.615  0.4728  1.3023  1.6010
  125OSM   H13G13399   5.213   4.657   7.568  0.2767  0.5475 -1.6814
  125OSM   C14F13400   5.315   4.756   7.744 -1.0245  0.1957  0.5076
  125OSM   H14F13401   5.415   4.801   7.755 -0.3323 -0.7754 -1.5416
  125OSM   H14G13402   5.304   4.685   7.828  0.5670  0.4891  0.9648
  125OSM   C15F13403   5.202   4.856   7.775  0.2021  0.0978  0.1056
  125OSM   H15F13404   5.175   4.919   7.688  2.0486 -0.7378 -1.1119
  125OSM   H15G13405   5.222   4.914   7.868 -0.0595  1.1170 -0.4665
  125OSM   C16F13406   5.076   4.773   7.816 -0.0977  0.6163 -0.2672
  125OSM   H16F13407   5.102   4.716   7.908  2.7278  0.8739 -0.8444
  125OSM   H16G13408   5.045   4.700   7.739  0.0138  0.3371 -0.0466
  125OSM   C17F13409   4.972   4.876   7.847 -0.2970  0.4276 -0.1400
  125OSM   H17F13410   4.946   4.937   7.758  0.2348  0.7219 -0.0975
  125OSM   H17G13411   5.006   4.953   7.919  2.3295 -0.3219 -0.4983
  125OSM   C18F13412   4.851   4.817   7.904  0.0575  0.0284  0.1114
  125OSM   H18F13413   4.778   4.899   7.919  0.2461  0.5295 -1.5753
  125OSM   H18G13414   4.877   4.768   8.000  2.0299 -1.7259 -1.2496
  125OSM   H18H13415   4.806   4.740   7.837 -0.1901 -0.6724  1.0597
  126OSM      N13416   1.997   3.585   5.927 -0.0054 -0.1678 -0.3266
  126OSM    C1513417   1.992   3.571   6.076 -0.2576  0.4042  0.0662
  126OSM   H15A13418   1.969   3.665   6.122 -1.9652  0.2028 -0.3510
  126OSM   H15B13419   2.090   3.539   6.111 -0.0524 -0.0535 -0.8796
  126OSM   H15C13420   1.923   3.496   6.113  1.4860 -1.4750 -0.3583
  126OSM    C1413421   1.862   3.624   5.862  0.0687  0.0885  0.4535
  126OSM   H14A13422   1.781   3.556   5.881 -0.3069  0.6610  0.8938
  126OSM   H14B13423   1.867   3.641   5.755  2.4545  0.0395  0.5154
  126OSM   H14C13424   1.837   3.714   5.916 -1.6013 -0.6137  0.8533
  126OSM    C1313425   2.103   3.678   5.890  0.0186 -0.0235  0.2076
  126OSM   H13A13426   2.097   3.723   5.792  0.0975  2.1301  1.1495
  126OSM   H13B13427   2.203   3.642   5.909 -1.0865 -2.5498  1.4227
  126OSM   H13C13428   2.095   3.759   5.961  0.1041 -0.6503  0.9431
  126OSM    C1213429   2.027   3.445   5.865  0.2555 -0.7433  0.4039
  126OSM   H12A13430   2.124   3.409   5.897 -0.7521 -2.3930  1.7097
  126OSM   H12B13431   2.037   3.459   5.758 -0.5533 -0.3076  0.3838
  126OSM    C1113432   1.920   3.335   5.871  0.2110 -0.4327 -0.1713
  126OSM   H11A13433   1.831   3.361   5.809 -0.2966 -1.8326 -0.0480
  126OSM   H11B13434   1.893   3.329   5.979 -0.3453  1.1129 -0.2132
  126OSM      P13435   1.915   3.077   5.813 -0.0714  0.5519  0.1714
  126OSM    O1313436   1.781   3.086   5.745 -0.4562  0.3007  0.0170
  126OSM    O1413437   2.019   2.983   5.764  0.0266 -0.3630 -0.2823
  126OSM    O1113438   1.885   3.053   5.965  0.3828  0.0899 -0.2266
  126OSM    O1213439   1.978   3.217   5.824 -0.0719 -0.1435  0.3458
  126OSM    C1S13440   1.985   3.020   6.068 -0.6321 -0.3085 -0.5934
  126OSM    H1S13441   2.071   3.086   6.045 -2.1391  0.9536 -2.8992
  126OSM    H1T13442   2.021   2.918   6.045 -2.3393 -0.7822 -1.2982
  126OSM     NF13443   2.039   3.037   6.306 -0.2943 -0.8022  0.1161
  126OSM    HNF13444   2.053   2.943   6.339  0.1862 -0.0207  2.2152
  126OSM    C2S13445   1.931   3.043   6.205 -0.2746  0.4656 -0.6799
  126OSM    H2S13446   1.893   3.147   6.211  0.4684  0.6589  1.0434
  126OSM    C3S13447   1.818   2.939   6.229 -0.2528  0.1455  0.0502
  126OSM    H3S13448   1.859   2.837   6.209  0.4773  0.3934  0.2846
  126OSM     O313449   1.703   2.960   6.150  0.1661  0.5052 -0.0320
  126OSM    HO313450   1.738   2.993   6.067  1.0254  0.2450  0.2279
  126OSM    C4S13451   1.764   2.961   6.370 -0.1431 -0.6491  0.2752
  126OSM    H4S13452   1.711   3.056   6.383  1.0477  0.2772 -1.5466
  126OSM    C5S13453   1.769   2.874   6.465 -0.4112  0.4142  0.2194
  126OSM    H5S13454   1.836   2.787   6.456 -0.9973 -0.0512  0.2889
  126OSM    C6S13455   1.722   2.901   6.609  0.4154  0.3555  0.0915
  126OSM    H6S13456   1.670   2.808   6.640  2.7363 -0.6312  1.1461
  126OSM    H6T13457   1.645   2.982   6.613  0.5839  0.4387  2.9418
  126OSM    C7S13458   1.831   2.929   6.716 -0.3780  0.1944 -0.1560
  126OSM    H7S13459   1.787   2.961   6.813  0.7844 -0.1175  0.4885
  126OSM    H7T13460   1.888   3.019   6.684  2.8431 -1.5327  0.4926
  126OSM    C8S13461   1.941   2.825   6.731  0.7052 -0.5810  0.2148
  126OSM    H8S13462   2.019   2.836   6.652 -0.4633 -1.3568 -1.0696
  126OSM    H8T13463   1.882   2.731   6.733  1.5501 -1.1686 -1.2112
  126OSM    C9S13464   2.015   2.815   6.866 -0.4779  0.5153 -0.8225
  126OSM    H9S13465   1.950   2.782   6.950 -0.6042 -3.0742 -2.2361
  126OSM    H9T13466   2.048   2.918   6.891  0.3427  0.1021 -0.2180
  126OSM   C10S13467   2.138   2.734   6.872  0.8793 -0.1388  0.3038
  126OSM   H10S13468   2.216   2.774   6.803  0.7378  0.1258  0.2940
  126OSM   H10T13469   2.111   2.632   6.838 -2.0766  0.6559  0.0809
  126OSM   C11S13470   2.196   2.725   7.012  0.0707  0.0694  0.0660
  126OSM   H11S13471   2.237   2.826   7.034 -2.7842  0.9818  1.4452
  126OSM   H11T13472   2.282   2.654   7.010 -0.5664 -0.6766 -1.7826
  126OSM   C12S13473   2.107   2.677   7.132  0.7134 -0.5338 -0.1263
  126OSM   H12S13474   2.027   2.748   7.162  2.4603  0.8005  1.4362
  126OSM   H12T13475   2.164   2.675   7.227  2.5361  0.3080 -1.1863
  126OSM   C13S13476   2.053   2.536   7.118 -0.4380  0.0104  0.3677
  126OSM   H13S13477   2.136   2.465   7.099  0.0559  0.1238  1.9941
  126OSM   H13T13478   1.985   2.521   7.032  0.6541  1.4555 -0.7759
  126OSM   C14S13479   1.970   2.487   7.245 -0.0052 -0.6445  0.0339
  126OSM   H14S13480   1.884   2.557   7.248 -0.1176 -0.8065  0.8433
  126OSM   H14T13481   2.025   2.511   7.339 -1.0733  1.9486  0.0183
  126OSM   C15S13482   1.906   2.354   7.249  0.3186  0.3259 -0.4474
  126OSM   H15S13483   1.983   2.275   7.250  0.3296  0.3434 -0.0321
  126OSM   H15T13484   1.855   2.333   7.152  4.1476 -0.9404 -2.2637
  126OSM   C16S13485   1.810   2.333   7.369  0.0728 -0.0614 -0.9195
  126OSM   H16S13486   1.767   2.232   7.357 -2.4427  0.6220  1.7543
  126OSM   H16T13487   1.722   2.397   7.393 -1.1836 -1.5672 -1.4296
  126OSM   C17S13488   1.895   2.334   7.498 -0.4354 -0.2619 -0.0383
  126OSM   H17S13489   1.905   2.436   7.543 -2.4093 -1.2150  2.6590
  126OSM   H17T13490   1.997   2.294   7.481 -0.4056 -0.2534  0.1157
  126OSM   C18S13491   1.839   2.252   7.611  0.3826 -0.3968  0.4552
  126OSM   H18S13492   1.867   2.147   7.587 -1.2007 -0.4188 -1.5614
  126OSM   H18T13493   1.728   2.258   7.623  0.4304  2.3340 -0.1357
  126OSM   H18U13494   1.880   2.265   7.713  0.5026 -1.2033  0.5120
  126OSM    C1F13495   2.121   3.141   6.337  0.7266 -0.8022  0.4396
  126OSM     OF13496   2.084   3.256   6.300 -0.0445 -0.6763 -0.1304
  126OSM    C2F13497   2.253   3.106   6.387 -0.3461 -0.2841 -0.3865
  126OSM    H2F13498   2.337   3.150   6.330 -0.3683  3.0181  2.0166
  126OSM    H2G13499   2.260   2.995   6.393  1.6958 -0.0795  1.4534
  126OSM    C3F13500   2.272   3.183   6.516 -0.2101 -0.1154 -0.0918
  126OSM    H3F13501   2.252   3.289   6.493  1.6806  0.6330  1.5064
  126OSM    H3G13502   2.378   3.183   6.550  0.1947 -0.5047 -1.3316
  126OSM    C4F13503   2.182   3.148   6.632  0.1938  0.2540  0.0639
  126OSM    H4F13504   2.206   3.044   6.664 -0.5081 -0.9483 -3.0958
  126OSM    H4G13505   2.074   3.161   6.607  0.4237 -1.0011 -1.6578
  126OSM    C5F13506   2.206   3.239   6.754 -0.2036  0.0279 -0.0818
  126OSM    H5F13507   2.136   3.322   6.730  2.0276  1.5289 -1.6627
  126OSM    H5G13508   2.311   3.276   6.748  0.8835 -2.9577 -0.6989
  126OSM    C6F13509   2.172   3.175   6.890  0.0837  0.0478  0.1723
  126OSM    H6F13510   2.259   3.107   6.903  0.5541  0.7286  0.6117
  126OSM    H6G13511   2.068   3.135   6.887  0.1610 -0.2521  1.3046
  126OSM    C7F13512   2.183   3.270   7.005 -0.0556  0.1150 -0.5923
  126OSM    H7F13513   2.109   3.351   6.988  0.1085  0.6854  1.2528
  126OSM    H7G13514   2.286   3.312   7.007 -0.5529  1.3832 -0.6160
  126OSM    C8F13515   2.166   3.203   7.142  0.0567 -0.0341 -0.1406
  126OSM    H8F13516   2.235   3.117   7.155  0.7151  0.4119 -0.6434
  126OSM    H8G13517   2.063   3.162   7.150 -0.3314  1.0265  0.3638
  126OSM    C9F13518   2.183   3.313   7.247  0.8001  0.8528  0.3275
  126OSM    H9F13519   2.118   3.400   7.226 -0.6565 -0.5799 -1.2972
  126OSM   C10F13520   2.266   3.315   7.348 -0.2527  0.6658  0.6322
  126OSM   H10F13521   2.263   3.402   7.415 -0.5435  0.2645  1.1374
  126OSM   C11F13522   2.368   3.206   7.387 -0.5732  1.1080 -0.5619
  126OSM   H11F13523   2.341   3.103   7.356  1.1573 -1.2726  5.2285
  126OSM   H11G13524   2.379   3.219   7.496 -2.0350 -0.0701 -0.2556
  126OSM   C12F13525   2.515   3.220   7.332  0.7396 -0.4785  0.0630
  126OSM   H12F13526   2.552   3.318   7.370  3.2091 -1.5033  0.3854
  126OSM   H12G13527   2.507   3.205   7.222 -0.3142 -0.0827  0.0759
  126OSM   C13F13528   2.607   3.117   7.386  0.0384 -0.0866  0.2888
  126OSM   H13F13529   2.550   3.022   7.381  0.8450 -0.6334  1.3135
  126OSM   H13G13530   2.648   3.127   7.489 -1.0619 -1.6669  0.8890
  126OSM   C14F13531   2.736   3.085   7.311 -0.1845 -0.3917  0.4232
  126OSM   H14F13532   2.817   3.160   7.322  0.0726 -0.7799  1.2625
  126OSM   H14G13533   2.712   3.084   7.203  1.0111  1.8676  0.1105
  126OSM   C15F13534   2.805   2.957   7.362 -0.3556  0.0913  0.5618
  126OSM   H15F13535   2.870   2.917   7.282 -0.1222  1.6661 -0.0635
  126OSM   H15G13536   2.722   2.888   7.389 -0.1252 -1.0991 -1.6645
  126OSM   C16F13537   2.888   2.985   7.483 -0.1402 -0.4027 -0.2267
  126OSM   H16F13538   2.824   3.048   7.548 -0.8228  0.4646 -1.7262
  126OSM   H16G13539   2.979   3.038   7.448 -0.1687 -0.3576 -0.2316
  126OSM   C17F13540   2.912   2.860   7.566  0.3486  0.4208 -0.3070
  126OSM   H17F13541   2.974   2.788   7.509 -0.4863 -0.7670  0.2557
  126OSM   H17G13542   2.811   2.815   7.581  1.4040 -1.0111  3.1323
  126OSM   C18F13543   2.984   2.895   7.696  0.0883  0.3042  0.3743
  126OSM   H18F13544   2.936   2.977   7.753  0.8765  0.7361  0.4304
  126OSM   H18G13545   3.076   2.947   7.661 -0.5703  0.6546 -0.8517
  126OSM   H18H13546   3.006   2.805   7.757  0.6640 -0.2406 -0.6140
  127OSM      N13547   3.982   1.635   5.964 -0.1599 -0.6388  0.6702
  127OSM    C1513548   3.963   1.563   6.086  0.8185 -0.2785  0.0906
  127OSM   H15A13549   3.966   1.633   6.167 -1.6464  0.7807 -0.6915
  127OSM   H15B13550   4.027   1.476   6.084 -2.7195 -3.0796  1.4939
  127OSM   H15C13551   3.864   1.521   6.076  1.2405 -1.7383  1.8129
  127OSM    C1413552   3.981   1.534   5.852 -0.5634 -0.1136 -0.1418
  127OSM   H14A13553   4.008   1.582   5.759 -1.8725  1.6143  0.3509
  127OSM   H14B13554   3.880   1.497   5.849 -1.0070  1.1624 -1.4216
  127OSM   H14C13555   4.045   1.451   5.879 -0.3356  0.8644  2.4584
  127OSM    C1313556   3.865   1.722   5.961  0.8818  0.0401 -0.7781
  127OSM   H13A13557   3.780   1.666   5.924  2.0339 -1.3338 -1.3965
  127OSM   H13B13558   3.895   1.799   5.892  1.1829 -2.4324 -3.5408
  127OSM   H13C13559   3.836   1.758   6.058 -0.3605 -1.2871 -0.6256
  127OSM    C1213560   4.114   1.715   5.966  0.1248 -0.9228  0.0452
  127OSM   H12A13561   4.198   1.647   5.968  0.9358  0.0727 -0.1850
  127OSM   H12B13562   4.124   1.760   6.063 -0.6006  0.7030 -0.6259
  127OSM    C1113563   4.143   1.820   5.860 -0.1007  0.8400  0.3403
  127OSM   H11A13564   4.112   1.774   5.764 -1.8083  0.2379  1.1623
  127OSM   H11B13565   4.252   1.838   5.858 -0.0009  0.2343  0.1388
  127OSM      P13566   4.157   2.065   5.958  0.1413  0.2269  0.1783
  127OSM    O1313567   4.220   2.128   5.842 -0.2065 -0.0393 -0.0841
  127OSM    O1413568   4.068   2.149   6.041 -0.2606 -0.0514 -0.5144
  127OSM    O1113569   4.264   2.001   6.042 -0.6125 -0.7600  0.1131
  127OSM    O1213570   4.071   1.942   5.901  0.1828  0.2006 -0.0294
  127OSM    C1S13571   4.219   1.959   6.175  0.6554  0.6059  0.1472
  127OSM    H1S13572   4.118   1.913   6.178  1.4269 -1.1944 -0.7801
  127OSM    H1T13573   4.207   2.047   6.243 -0.4561  1.5911 -1.2864
  127OSM     NF13574   4.274   1.834   6.386  0.0299  0.0537  0.1162
  127OSM    HNF13575   4.300   1.884   6.468  1.5735 -1.0916  0.3657
  127OSM    C2S13576   4.326   1.875   6.254  0.0383  0.4356  0.3838
  127OSM    H2S13577   4.343   1.781   6.198  2.6977  1.4959 -0.6770
  127OSM    C3S13578   4.461   1.958   6.263 -0.2453  0.6062  0.3255
  127OSM    H3S13579   4.447   2.064   6.291 -1.9671  1.2113 -2.5855
  127OSM     O313580   4.520   1.971   6.129 -0.1000 -0.1067 -0.3671
  127OSM    HO313581   4.443   1.970   6.071 -1.6490 -0.7007  1.6626
  127OSM    C4S13582   4.555   1.884   6.353  0.5080 -0.4206 -0.9242
  127OSM    H4S13583   4.630   1.826   6.298 -0.2888  0.5648 -3.1288
  127OSM    C5S13584   4.565   1.908   6.488  0.0062  0.2176 -0.3609
  127OSM    H5S13585   4.497   1.976   6.542  1.6034  1.0554  0.6240
  127OSM    C6S13586   4.655   1.845   6.588  0.2815  0.9512 -0.1661
  127OSM    H6S13587   4.701   1.915   6.662 -1.2573  2.3592 -0.5127
  127OSM    H6T13588   4.734   1.783   6.539 -0.8088 -0.6559  0.0765
  127OSM    C7S13589   4.582   1.726   6.657 -0.5293  0.2761  0.6671
  127OSM    H7S13590   4.516   1.658   6.600  0.4433 -0.9266  0.9572
  127OSM    H7T13591   4.510   1.780   6.723  1.3406  2.9579  0.5647
  127OSM    C8S13592   4.679   1.635   6.728  0.2540  0.3216  0.7365
  127OSM    H8S13593   4.756   1.683   6.793 -1.9586  1.5851  2.4857
  127OSM    H8T13594   4.732   1.592   6.640 -1.7259  1.3107 -0.9689
  127OSM    C9S13595   4.618   1.509   6.788 -0.0125  0.9019  0.4223
  127OSM    H9S13596   4.694   1.428   6.781 -0.6300  0.2047  1.5630
  127OSM    H9T13597   4.529   1.481   6.728  0.6314  1.0763 -0.6391
  127OSM   C10S13598   4.587   1.515   6.941  0.7724  0.2074 -0.2707
  127OSM   H10S13599   4.550   1.618   6.963 -0.0237 -0.2989  0.7550
  127OSM   H10T13600   4.685   1.519   6.993  1.3253 -0.0778 -1.2672
  127OSM   C11S13601   4.494   1.398   6.962  0.1354  0.4702  0.7023
  127OSM   H11S13602   4.544   1.305   6.926  0.2261  0.4679  0.8307
  127OSM   H11T13603   4.398   1.402   6.906  0.2171 -1.4460  0.3693
  127OSM   C12S13604   4.480   1.367   7.117  0.3743 -0.0086  0.2205
  127OSM   H12S13605   4.540   1.445   7.170 -0.0964 -1.5103  3.0357
  127OSM   H12T13606   4.532   1.272   7.143  3.4698  2.1754  2.4572
  127OSM   C13S13607   4.333   1.366   7.163  0.5648  0.7086  0.0244
  127OSM   H13S13608   4.312   1.301   7.250  1.4068  0.0940 -0.2213
  127OSM   H13T13609   4.276   1.323   7.077  3.6442 -0.7804 -1.3823
  127OSM   C14S13610   4.278   1.504   7.179 -0.2446 -1.0238  0.8983
  127OSM   H14S13611   4.323   1.576   7.108 -2.1502 -1.0180 -0.3604
  127OSM   H14T13612   4.305   1.528   7.284 -1.1116  0.4080  0.8105
  127OSM   C15S13613   4.127   1.521   7.151  0.1038  0.1795  0.6656
  127OSM   H15S13614   4.121   1.509   7.041  0.7248  1.2076  0.5172
  127OSM   H15T13615   4.085   1.621   7.176 -0.4155  0.0714  0.2539
  127OSM   C16S13616   4.046   1.423   7.221 -0.7482  0.3444 -0.4332
  127OSM   H16S13617   4.003   1.460   7.317 -2.5826  0.1772 -1.1841
  127OSM   H16T13618   4.096   1.324   7.231  1.7844  1.6039 -0.0694
  127OSM   C17S13619   3.912   1.407   7.131  0.1594 -0.4193  0.5697
  127OSM   H17S13620   3.852   1.327   7.180  0.0977  1.1196  3.1344
  127OSM   H17T13621   3.947   1.375   7.031  0.5607  0.5205  0.4010
  127OSM   C18S13622   3.820   1.533   7.112 -0.1563 -0.8119 -0.1345
  127OSM   H18S13623   3.780   1.565   7.210 -0.1843 -0.9618 -0.0969
  127OSM   H18T13624   3.738   1.512   7.040  0.8438 -1.2040 -1.1966
  127OSM   H18U13625   3.885   1.617   7.080  0.5351 -1.3503 -0.1494
  127OSM    C1F13626   4.171   1.752   6.397  0.4110 -0.4086  0.7952
  127OSM     OF13627   4.095   1.726   6.300  0.0032  0.1328 -0.1483
  127OSM    C2F13628   4.151   1.688   6.533  0.6120 -0.1666  0.5708
  127OSM    H2F13629   4.245   1.633   6.556 -0.4142 -1.2167  2.3596
  127OSM    H2G13630   4.059   1.627   6.539  0.3052  0.2772  0.4192
  127OSM    C3F13631   4.137   1.785   6.650  0.5654 -0.4415  0.3121
  127OSM    H3F13632   4.058   1.862   6.635  0.3304 -1.1393 -2.2149
  127OSM    H3G13633   4.226   1.850   6.662 -0.2384  0.4419  1.7758
  127OSM    C4F13634   4.103   1.713   6.782  0.3690  0.3963  0.5036
  127OSM    H4F13635   4.186   1.645   6.812  0.3415 -0.4927 -1.3603
  127OSM    H4G13636   4.018   1.642   6.771 -1.3358  2.1016  2.1664
  127OSM    C5F13637   4.068   1.801   6.896  0.5714  0.1169 -0.8853
  127OSM    H5F13638   4.065   1.743   6.991 -1.6134 -0.1168 -1.0760
  127OSM    H5G13639   3.965   1.841   6.884 -0.2315 -1.8916 -0.8547
  127OSM    C6F13640   4.172   1.914   6.916  0.5998  0.0090  0.4033
  127OSM    H6F13641   4.143   1.979   7.002 -2.6462 -2.2811  1.1277
  127OSM    H6G13642   4.166   1.984   6.830 -0.4378  1.1604  1.3944
  127OSM    C7F13643   4.318   1.859   6.937 -0.3387 -0.4668 -0.3528
  127OSM    H7F13644   4.353   1.789   6.859  0.4424 -0.1640 -0.2716
  127OSM    H7G13645   4.294   1.808   7.033  3.0462 -3.3580 -0.9401
  127OSM    C8F13646   4.414   1.973   6.948 -0.4350 -0.8950 -0.0288
  127OSM    H8F13647   4.361   2.056   6.998  0.1010 -0.3690 -0.3290
  127OSM    H8G13648   4.450   2.002   6.847  1.8859 -0.7850  0.7989
  127OSM    C9F13649   4.544   1.946   7.023 -0.1378  0.8716  0.4242
  127OSM    H9F13650   4.626   1.920   6.955 -0.2872  0.3048  0.4548
  127OSM   C10F13651   4.574   1.959   7.154 -0.1032  0.0912 -0.0184
  127OSM   H10F13652   4.673   1.931   7.194  0.1643  2.3104  0.9476
  127OSM   C11F13653   4.472   2.000   7.255 -0.8098  0.5503  0.8931
  127OSM   H11F13654   4.418   1.916   7.303 -0.4077 -0.9910 -1.3317
  127OSM   H11G13655   4.386   2.054   7.212 -0.9910 -1.6063 -1.4901
  127OSM   C12F13656   4.526   2.075   7.374  0.5530  0.4378  0.4187
  127OSM   H12F13657   4.450   2.118   7.444  0.0655  5.0646 -2.6987
  127OSM   H12G13658   4.588   2.156   7.330  1.9118 -0.9035 -0.1664
  127OSM   C13F13659   4.609   1.989   7.471  0.0964 -0.2715  0.6967
  127OSM   H13F13660   4.678   1.920   7.418 -1.0686 -0.6188 -0.4038
  127OSM   H13G13661   4.541   1.927   7.533 -1.7217  2.0131  1.0253
  127OSM   C14F13662   4.683   2.080   7.578  0.1665  0.0487 -0.3984
  127OSM   H14F13663   4.744   2.165   7.540 -0.2270 -0.1242 -1.4088
  127OSM   H14G13664   4.751   2.016   7.639 -3.0643 -1.7347  1.4691
  127OSM   C15F13665   4.589   2.149   7.678  0.0602 -0.2458  0.1936
  127OSM   H15F13666   4.489   2.105   7.698  0.0415  0.0345  0.7317
  127OSM   H15G13667   4.559   2.242   7.625  0.5626 -1.1377 -1.7241
  127OSM   C16F13668   4.667   2.177   7.804  0.1790 -0.2076  0.5129
  127OSM   H16F13669   4.732   2.263   7.778 -0.9755  0.0250 -1.7038
  127OSM   H16G13670   4.727   2.091   7.840  1.4751  1.1696  1.7281
  127OSM   C17F13671   4.575   2.220   7.925  0.0166  0.5543 -0.0879
  127OSM   H17F13672   4.482   2.165   7.953  0.9098 -1.4959 -0.9994
  127OSM   H17G13673   4.540   2.319   7.888  3.1242  1.8578  0.2931
  127OSM   C18F13674   4.652   2.244   8.057 -0.4148 -1.0677 -0.3273
  127OSM   H18F13675   4.670   2.154   8.119 -0.2077 -0.7443  0.0852
  127OSM   H18G13676   4.592   2.315   8.118 -0.3274 -0.9532 -0.3754
  127OSM   H18H13677   4.754   2.286   8.043 -0.0612 -1.8664 -0.1856
  128OSM      N13678   4.700   5.650   5.842  0.3802 -0.3725 -0.6519
  128OSM    C1513679   4.819   5.622   5.754  0.4172  0.3637  0.0519
  128OSM   H15A13680   4.894   5.563   5.803  0.3655  0.2042 -0.0567
  128OSM   H15B13681   4.863   5.717   5.731 -1.9532  1.4438 -0.1952
  128OSM   H15C13682   4.791   5.576   5.660  0.3882 -0.8678  0.6550
  128OSM    C1413683   4.749   5.757   5.931 -0.8935 -0.2567  0.2137
  128OSM   H14A13684   4.847   5.728   5.966 -2.0082 -1.9980  1.9420
  128OSM   H14B13685   4.677   5.786   6.006 -1.8836 -0.4841 -0.6430
  128OSM   H14C13686   4.764   5.848   5.874 -1.0703 -0.4452 -0.1332
  128OSM    C1313687   4.582   5.706   5.767 -0.6946  0.3706 -0.6475
  128OSM   H13A13688   4.500   5.731   5.833 -0.6158  0.3996 -0.5609
  128OSM   H13B13689   4.546   5.639   5.690  0.5149 -0.9984 -0.0406
  128OSM   H13C13690   4.595   5.801   5.717  0.8664 -0.3335 -1.6236
  128OSM    C1213691   4.651   5.537   5.926 -0.8189 -0.2252  0.0072
  128OSM   H12A13692   4.611   5.468   5.853 -0.9433 -0.1316 -0.0126
  128OSM   H12B13693   4.570   5.560   5.994 -0.8738  0.5197 -0.3048
  128OSM    C1113694   4.756   5.448   5.996  0.0454  0.3573  0.9703
  128OSM   H11A13695   4.806   5.384   5.921  0.1553  2.3105 -0.6608
  128OSM   H11B13696   4.699   5.385   6.068 -0.4558 -1.0306 -0.6368
  128OSM      P13697   5.003   5.495   6.074  0.4026  0.5330 -0.2962
  128OSM    O1313698   5.025   5.345   6.054  0.3867 -0.3047 -0.1513
  128OSM    O1413699   5.071   5.587   5.983  0.3104  0.6985  0.4979
  128OSM    O1113700   5.044   5.541   6.221 -0.1088  0.1160 -0.0433
  128OSM    O1213701   4.843   5.523   6.072  0.0414 -0.5786 -0.3990
  128OSM    C1S13702   4.971   5.536   6.342  0.1777 -0.4831 -0.0835
  128OSM    H1S13703   4.978   5.433   6.383  0.9336 -0.7627 -0.8988
  128OSM    H1T13704   4.861   5.548   6.333  0.4301  1.9913 -0.2637
  128OSM     NF13705   4.925   5.636   6.574 -0.3822 -0.0927 -0.5788
  128OSM    HNF13706   4.851   5.701   6.590 -1.8451 -2.1045  1.1712
  128OSM    C2S13707   5.013   5.640   6.454  0.3063 -0.6947 -0.0655
  128OSM    H2S13708   5.118   5.612   6.478 -0.2064 -2.2117  0.4269
  128OSM    C3S13709   5.007   5.791   6.396 -0.4598 -0.2295 -0.3185
  128OSM    H3S13710   4.900   5.814   6.379 -0.2406  0.3051 -1.0150
  128OSM     O313711   5.084   5.818   6.279  0.3232 -0.9419  0.0377
  128OSM    HO313712   5.090   5.729   6.243 -1.1353 -0.6827 -0.9327
  128OSM    C4S13713   5.052   5.889   6.498 -0.5611  0.2664  0.1261
  128OSM    H4S13714   5.150   5.862   6.539 -0.2865  1.7557  0.4920
  128OSM    C5S13715   4.993   6.002   6.544  0.3518  0.0089 -0.8090
  128OSM    H5S13716   4.895   6.023   6.499 -0.8158  0.2614  1.7827
  128OSM    C6S13717   5.038   6.098   6.653 -0.2591  0.8229 -0.1287
  128OSM    H6S13718   4.958   6.167   6.688 -0.4537  0.9711 -0.8565
  128OSM    H6T13719   5.111   6.172   6.614  1.2343  0.5342  2.0441
  128OSM    C7S13720   5.111   6.025   6.774  0.1504 -0.5288  0.1598
  128OSM    H7S13721   5.153   6.103   6.841 -2.0081 -0.6003  1.6303
  128OSM    H7T13722   5.200   5.968   6.740  0.4568  1.1059 -1.8897
  128OSM    C8S13723   5.024   5.935   6.865  0.7006 -0.0594  0.8394
  128OSM    H8S13724   4.979   5.856   6.802 -1.3643  0.4697  1.6288
  128OSM    H8T13725   4.949   6.003   6.910  1.6824  0.6623  1.4000
  128OSM    C9S13726   5.103   5.865   6.980  0.4243  0.1145 -0.3614
  128OSM    H9S13727   5.154   5.944   7.039  1.5828 -0.4365 -0.6161
  128OSM    H9T13728   5.182   5.795   6.945  0.9126 -0.1515  1.2307
  128OSM   C10S13729   5.003   5.791   7.081 -0.0950  0.5595 -0.4810
  128OSM   H10S13730   4.954   5.717   7.014  0.1843 -0.1145  0.0603
  128OSM   H10T13731   4.925   5.859   7.120  1.4897  0.7728  2.4506
  128OSM   C11S13732   5.082   5.729   7.196 -0.8750 -0.1913  0.0076
  128OSM   H11S13733   5.125   5.812   7.257 -2.5950 -0.2033  1.2633
  128OSM   H11T13734   5.168   5.678   7.149 -1.1949  0.5282 -1.3961
  128OSM   C12S13735   5.007   5.632   7.292  0.0418  1.3668 -0.4149
  128OSM   H12S13736   5.090   5.578   7.344 -0.4888  0.5044 -0.4545
  128OSM   H12T13737   4.947   5.566   7.226  1.9868 -0.6786 -0.2222
  128OSM   C13S13738   4.926   5.710   7.401 -0.4134 -0.1120  0.0835
  128OSM   H13S13739   4.867   5.777   7.334 -1.7382 -1.4098 -0.0715
  128OSM   H13T13740   4.987   5.779   7.463 -3.1223  0.3722  2.3058
  128OSM   C14S13741   4.841   5.625   7.496  0.0783  0.6972 -0.2430
  128OSM   H14S13742   4.898   5.557   7.563  1.8414  1.6092 -0.7936
  128OSM   H14T13743   4.773   5.562   7.434  1.6747  0.5754 -1.9192
  128OSM   C15S13744   4.757   5.711   7.588  0.1377  0.3173  0.7563
  128OSM   H15S13745   4.679   5.758   7.526 -0.3647  1.1667  2.0085
  128OSM   H15T13746   4.804   5.805   7.623 -0.9121  1.1021  0.0508
  128OSM   C16S13747   4.684   5.630   7.697  0.2954 -1.2410 -0.1511
  128OSM   H16S13748   4.622   5.709   7.745  0.3910  0.1354 -2.2446
  128OSM   H16T13749   4.760   5.592   7.769 -2.1367 -0.2466  3.0458
  128OSM   C17S13750   4.600   5.521   7.643 -0.8443 -0.2007 -0.4929
  128OSM   H17S13751   4.665   5.443   7.598  0.1031 -0.4350  1.2261
  128OSM   H17T13752   4.538   5.567   7.563 -2.8144  0.1274  1.1770
  128OSM   C18S13753   4.506   5.467   7.748 -0.5715  0.3561  0.4045
  128OSM   H18S13754   4.570   5.409   7.817 -0.9297 -0.5358 -0.0069
  128OSM   H18T13755   4.450   5.381   7.705 -1.4713  1.0999  0.0733
  128OSM   H18U13756   4.425   5.532   7.787 -0.2860  0.9545  0.0102
  128OSM    C1F13757   4.937   5.525   6.661  0.9462 -0.0369 -0.5335
  128OSM     OF13758   5.020   5.443   6.658  0.6169 -0.2976  0.1661
  128OSM    C2F13759   4.845   5.532   6.778 -0.2753  0.3814  0.5336
  128OSM    H2F13760   4.758   5.483   6.730 -0.7458  0.2278  1.5250
  128OSM    H2G13761   4.820   5.637   6.807 -0.1913  0.9240 -1.3252
  128OSM    C3F13762   4.894   5.436   6.894 -0.1816  0.0395 -0.7155
  128OSM    H3F13763   4.988   5.478   6.934  1.1566 -0.2896 -3.4219
  128OSM    H3G13764   4.917   5.334   6.857 -1.0191 -0.1522 -0.7271
  128OSM    C4F13765   4.789   5.425   7.011 -0.6949 -0.4376  0.2145
  128OSM    H4F13766   4.693   5.393   6.965 -2.1299  0.7021  2.2757
  128OSM    H4G13767   4.778   5.526   7.057 -1.4119  0.6446 -2.2470
  128OSM    C5F13768   4.828   5.322   7.112 -0.2705  0.0205  0.1795
  128OSM    H5F13769   4.928   5.357   7.147 -1.3396  0.9058  2.4217
  128OSM    H5G13770   4.847   5.224   7.063 -1.6381  0.5796 -1.5083
  128OSM    C6F13771   4.730   5.314   7.223 -0.6941  0.0799 -0.9055
  128OSM    H6F13772   4.689   5.413   7.255  1.9934  1.2922 -1.0457
  128OSM    H6G13773   4.781   5.272   7.312 -0.6416 -0.2950 -1.1151
  128OSM    C7F13774   4.613   5.227   7.191  0.6350  0.3279 -0.2629
  128OSM    H7F13775   4.654   5.124   7.178 -2.9666 -1.0021 -1.8216
  128OSM    H7G13776   4.559   5.263   7.101  1.5130 -1.3113 -1.4732
  128OSM    C8F13777   4.514   5.227   7.309 -0.8790  0.8662 -0.1982
  128OSM    H8F13778   4.506   5.334   7.337 -0.7352  0.6559  0.6582
  128OSM    H8G13779   4.562   5.179   7.397  0.1071  0.3958 -0.9785
  128OSM    C9F13780   4.381   5.169   7.265  0.3460 -0.4195  0.1908
  128OSM    H9F13781   4.342   5.208   7.170  2.2543  2.0044  0.3455
  128OSM   C10F13782   4.294   5.085   7.340  0.3607  0.1807 -0.0826
  128OSM   H10F13783   4.188   5.073   7.310  0.6016 -1.3491 -0.3513
  128OSM   C11F13784   4.318   5.024   7.473  0.7151 -0.1380 -0.1214
  128OSM   H11F13785   4.414   5.051   7.523  0.5508  0.6953 -0.2349
  128OSM   H11G13786   4.312   4.915   7.457 -0.9719  0.3754 -3.4059
  128OSM   C12F13787   4.202   5.055   7.572 -0.8631  0.5805  0.6064
  128OSM   H12F13788   4.199   4.972   7.646  1.3117  1.2341  1.4689
  128OSM   H12G13789   4.103   5.057   7.521 -0.8972 -1.5579  0.5381
  128OSM   C13F13790   4.212   5.187   7.647 -0.1670  0.4612  0.3542
  128OSM   H13F13791   4.190   5.273   7.580 -1.3140  1.4807  2.0280
  128OSM   H13G13792   4.309   5.199   7.701 -0.7929  0.6448  1.4513
  128OSM   C14F13793   4.105   5.219   7.752  0.3904  0.6888  0.5841
  128OSM   H14F13794   4.121   5.146   7.835 -0.5179 -1.6892 -1.2949
  128OSM   H14G13795   4.005   5.192   7.713  1.5672 -2.0430 -0.6637
  128OSM   C15F13796   4.110   5.363   7.802  0.3807 -0.4585  0.7333
  128OSM   H15F13797   4.065   5.433   7.729 -1.3644  0.3999  2.5808
  128OSM   H15G13798   4.217   5.388   7.814  0.8040 -1.0806 -1.5693
  128OSM   C16F13799   4.042   5.377   7.940  0.5868 -0.3860 -0.1689
  128OSM   H16F13800   4.055   5.480   7.978  0.3497 -0.3508 -0.1838
  128OSM   H16G13801   4.095   5.310   8.011  0.3177  0.4751  0.8379
  128OSM   C17F13802   3.890   5.360   7.932 -0.0282 -0.7900 -0.4913
  128OSM   H17F13803   3.858   5.278   7.865  1.0944 -0.9523 -0.8467
  128OSM   H17G13804   3.846   5.450   7.884 -0.0368  0.6895  2.1978
  128OSM   C18F13805   3.822   5.345   8.068  0.2212  0.3723 -0.3228
  128OSM   H18F13806   3.825   5.436   8.131 -1.8306  0.2474 -0.0104
  128OSM   H18G13807   3.860   5.262   8.131  3.3637  2.1372  0.1926
  128OSM   H18H13808   3.715   5.315   8.057  0.0278  0.8433  0.2756
  129OSM      N13809   2.326   1.745   5.885  0.0773 -0.4239  0.2965
  129OSM    C1513810   2.207   1.728   5.976  0.4138 -0.4259  0.6843
  129OSM   H15A13811   2.161   1.822   6.004  1.1908 -0.0386  0.6692
  129OSM   H15B13812   2.248   1.670   6.056 -0.3666  0.4082  1.7003
  129OSM   H15C13813   2.137   1.666   5.922  1.9530 -0.0037 -1.9400
  129OSM    C1413814   2.277   1.791   5.743 -0.1277 -0.2463  0.8199
  129OSM   H14A13815   2.239   1.892   5.740 -1.3412 -0.7190 -0.7933
  129OSM   H14B13816   2.205   1.722   5.700  1.4884 -1.3093 -0.2193
  129OSM   H14C13817   2.350   1.794   5.663 -0.8665 -1.4440  0.0707
  129OSM    C1313818   2.428   1.854   5.916  0.1566  0.0699  0.3761
  129OSM   H13A13819   2.513   1.864   5.850  0.0375 -0.6398  0.1094
  129OSM   H13B13820   2.473   1.836   6.013  0.6616  0.9077  0.2999
  129OSM   H13C13821   2.386   1.951   5.940  0.1566  0.0689  0.3812
  129OSM    C1213822   2.401   1.612   5.875  0.3596  0.5232  0.2151
  129OSM   H12A13823   2.474   1.614   5.795  1.1806  2.6905  0.9771
  129OSM   H12B13824   2.331   1.532   5.857 -0.5907  2.0325 -3.1957
  129OSM    C1113825   2.486   1.571   5.998  0.1477 -0.6164 -0.6438
  129OSM   H11A13826   2.497   1.460   6.005  0.0611 -0.6629 -1.1836
  129OSM   H11B13827   2.434   1.607   6.089 -1.2837 -1.2052 -1.2114
  129OSM      P13828   2.726   1.569   5.913  0.0654  0.4319 -0.2007
  129OSM    O1313829   2.673   1.475   5.815 -0.8581 -0.0896  0.2419
  129OSM    O1413830   2.815   1.679   5.858  1.0832  0.1883 -0.1221
  129OSM    O1113831   2.805   1.485   6.024  0.1525  0.8125  0.1049
  129OSM    O1213832   2.614   1.634   5.995 -0.0318 -0.4333 -0.3737
  129OSM    C1S13833   2.882   1.558   6.113  0.5588  0.1866  0.0158
  129OSM    H1S13834   2.888   1.667   6.092  0.5649  0.2531  0.3605
  129OSM    H1T13835   2.984   1.516   6.100 -0.5519 -2.4765 -0.4113
  129OSM     NF13836   2.907   1.609   6.360 -0.7599 -0.4773 -0.1569
  129OSM    HNF13837   2.973   1.566   6.421 -0.3007 -0.2249 -0.4730
  129OSM    C2S13838   2.837   1.530   6.259 -0.1833  0.3289  0.0663
  129OSM    H2S13839   2.731   1.561   6.266  0.1990  1.3680  1.5890
  129OSM    C3S13840   2.849   1.372   6.286 -0.1125  0.4286 -0.8065
  129OSM    H3S13841   2.949   1.332   6.260 -0.1074  0.9956 -1.6933
  129OSM     O313842   2.750   1.304   6.203  0.2840  0.2513  0.2143
  129OSM    HO313843   2.752   1.377   6.140  0.9071  1.0952  1.2006
  129OSM    C4S13844   2.814   1.349   6.432  0.0069 -0.1287  0.0276
  129OSM    H4S13845   2.705   1.353   6.438  0.0716  1.7964  0.1646
  129OSM    C5S13846   2.896   1.322   6.534  0.5395 -0.2189 -0.5303
  129OSM    H5S13847   3.005   1.320   6.521  0.7715  1.7330  0.9207
  129OSM    C6S13848   2.855   1.303   6.680  0.5887  0.0481 -0.9460
  129OSM    H6S13849   2.932   1.356   6.741  1.6996 -0.5133 -1.8648
  129OSM    H6T13850   2.870   1.195   6.699 -0.5879 -0.1089 -0.8489
  129OSM    C7S13851   2.704   1.343   6.710 -0.4422  0.6206 -0.6435
  129OSM    H7S13852   2.629   1.279   6.658 -1.6987  1.7500 -0.2572
  129OSM    H7T13853   2.681   1.449   6.684  0.5742  0.9394 -0.2897
  129OSM    C8S13854   2.667   1.332   6.858 -0.7237 -1.4713  0.8116
  129OSM    H8S13855   2.749   1.380   6.915 -1.0662  0.9415 -0.6531
  129OSM    H8T13856   2.652   1.228   6.893 -1.7806 -1.3564  0.7374
  129OSM    C9S13857   2.543   1.409   6.888  0.8528 -1.1034  0.0214
  129OSM    H9S13858   2.515   1.375   6.989  2.1689 -1.2272  0.3615
  129OSM    H9T13859   2.459   1.374   6.825  0.2724 -0.9644  0.7154
  129OSM   C10S13860   2.553   1.559   6.881 -0.6986  0.1187 -0.7991
  129OSM   H10S13861   2.454   1.598   6.914 -1.2214 -0.7811 -1.2818
  129OSM   H10T13862   2.569   1.604   6.781  0.1247  2.2664  0.2657
  129OSM   C11S13863   2.653   1.626   6.987  0.8829 -0.1542  0.3235
  129OSM   H11S13864   2.746   1.568   7.005 -0.2189 -1.3442  2.2042
  129OSM   H11T13865   2.605   1.642   7.085  0.9924  0.8547  0.2195
  129OSM   C12S13866   2.693   1.764   6.933  0.5687 -0.5964 -0.0105
  129OSM   H12S13867   2.609   1.822   6.889 -1.2686 -4.0384 -1.2484
  129OSM   H12T13868   2.750   1.744   6.839 -1.2904 -3.7758 -0.5139
  129OSM   C13S13869   2.757   1.848   7.046 -0.2172  0.5568 -0.6222
  129OSM   H13S13870   2.862   1.819   7.063 -0.4542 -0.1130 -0.3027
  129OSM   H13T13871   2.699   1.833   7.139 -0.7644 -0.8898 -1.1928
  129OSM   C14S13872   2.769   1.995   6.995  0.1557 -0.0835 -0.5176
  129OSM   H14S13873   2.669   2.042   6.983  0.4579  0.3624 -1.2742
  129OSM   H14T13874   2.825   1.993   6.900  0.4243  0.2030 -0.3686
  129OSM   C15S13875   2.852   2.079   7.105 -0.1329 -0.2893  0.0394
  129OSM   H15S13876   2.896   2.173   7.066 -0.0627 -0.5521 -0.5241
  129OSM   H15T13877   2.932   2.006   7.130  1.6075  1.7629  0.6105
  129OSM   C16S13878   2.778   2.106   7.244  0.3005 -0.0655  0.1570
  129OSM   H16S13879   2.749   2.004   7.277 -1.4798  0.5015  0.4017
  129OSM   H16T13880   2.689   2.172   7.233  1.2904  1.1238 -0.9696
  129OSM   C17S13881   2.882   2.165   7.344 -0.7965 -0.4065  0.0810
  129OSM   H17S13882   2.904   2.272   7.327  1.7397 -0.6748  1.4235
  129OSM   H17T13883   2.983   2.118   7.343  0.0146  1.3321 -1.7876
  129OSM   C18S13884   2.822   2.163   7.486  0.4647  0.2052 -0.7022
  129OSM   H18S13885   2.905   2.175   7.558 -1.7827  0.1516  1.9827
  129OSM   H18T13886   2.779   2.060   7.489  1.6108 -0.2730 -0.4862
  129OSM   H18U13887   2.749   2.246   7.491  0.6088  0.2083  1.9039
  129OSM    C1F13888   2.892   1.741   6.369 -0.1678  0.8117 -0.3585
  129OSM     OF13889   2.817   1.803   6.300  0.0269 -0.8984  0.2553
  129OSM    C2F13890   2.960   1.819   6.481 -0.0956  0.6716 -0.2573
  129OSM    H2F13891   2.880   1.889   6.513  0.4648  1.9530 -1.5966
  129OSM    H2G13892   3.048   1.877   6.446  0.5051 -0.0941 -0.0315
  129OSM    C3F13893   3.009   1.744   6.597 -0.2927 -0.0621  0.0651
  129OSM    H3F13894   3.095   1.687   6.557 -2.0708 -1.6533 -1.5847
  129OSM    H3G13895   2.945   1.676   6.658  0.5415  0.2374  1.3036
  129OSM    C4F13896   3.057   1.835   6.711 -0.0531  0.8084 -0.1987
  129OSM    H4F13897   2.989   1.922   6.729  0.4694  0.5235  3.6183
  129OSM    H4G13898   3.146   1.884   6.667 -0.5421  2.9230  1.0739
  129OSM    C5F13899   3.090   1.757   6.838  0.8894 -0.2239 -0.8247
  129OSM    H5F13900   3.161   1.680   6.802  0.8030 -1.3392  1.3097
  129OSM    H5G13901   2.996   1.712   6.877  0.7012  0.4396 -0.5041
  129OSM    C6F13902   3.151   1.844   6.938 -0.4703  0.4309  0.6746
  129OSM    H6F13903   3.062   1.902   6.971 -2.8637 -3.5955  1.6576
  129OSM    H6G13904   3.216   1.926   6.899 -1.0997  0.7957  0.3862
  129OSM    C7F13905   3.226   1.780   7.052  0.0836 -0.0038  0.0287
  129OSM    H7F13906   3.318   1.720   7.034  0.4043  1.0582 -2.0406
  129OSM    H7G13907   3.153   1.702   7.085 -0.2299 -0.4478 -1.6596
  129OSM    C8F13908   3.264   1.879   7.163  0.2403 -0.3678  0.0584
  129OSM    H8F13909   3.172   1.938   7.181  0.1728 -0.4305 -0.0827
  129OSM    H8G13910   3.323   1.962   7.119 -0.8832  0.4414  0.0589
  129OSM    C9F13911   3.341   1.819   7.279 -0.0583 -0.4250 -0.1995
  129OSM    H9F13912   3.428   1.768   7.235 -1.3214 -1.9010 -1.0366
  129OSM   C10F13913   3.310   1.821   7.409  0.4657  0.3633  0.1639
  129OSM   H10F13914   3.372   1.766   7.481 -0.3223 -1.7572 -0.7352
  129OSM   C11F13915   3.186   1.885   7.467  0.4170  0.3896 -0.3028
  129OSM   H11F13916   3.147   1.976   7.416 -3.1233 -0.4003  0.8659
  129OSM   H11G13917   3.196   1.900   7.576  0.6739 -0.0536 -0.2655
  129OSM   C12F13918   3.072   1.784   7.458 -0.3586  0.4050 -0.8058
  129OSM   H12F13919   3.035   1.749   7.359  2.3125 -1.6755 -1.1129
  129OSM   H12G13920   2.990   1.849   7.495  0.9406  0.7956  1.4400
  129OSM   C13F13921   3.097   1.662   7.543 -0.5287 -0.2277 -0.5229
  129OSM   H13F13922   3.171   1.682   7.624 -1.8113  0.1234  0.5918
  129OSM   H13G13923   3.151   1.590   7.478 -1.3314 -1.2541 -0.0566
  129OSM   C14F13924   2.969   1.590   7.597 -0.5471  0.9977  0.5169
  129OSM   H14F13925   2.897   1.575   7.514 -0.7348 -0.5943  0.9334
  129OSM   H14G13926   2.926   1.654   7.677 -1.6151  1.6576 -0.5811
  129OSM   C15F13927   3.002   1.451   7.668 -0.2237  0.4225  0.7812
  129OSM   H15F13928   3.112   1.447   7.680  0.0193  2.2924 -0.5088
  129OSM   H15G13929   2.977   1.369   7.598 -0.4871 -1.2307  2.7722
  129OSM   C16F13930   2.921   1.435   7.800  0.4899  0.0851 -0.0072
  129OSM   H16F13931   2.812   1.430   7.780  0.6214 -2.2775 -0.2327
  129OSM   H16G13932   2.935   1.520   7.870  0.6239 -0.4935  0.6756
  129OSM   C17F13933   2.959   1.303   7.864  0.0490  0.1377 -0.0251
  129OSM   H17F13934   3.069   1.288   7.855  0.1045  1.1019 -0.9047
  129OSM   H17G13935   2.909   1.226   7.801  0.7280  1.5806 -2.3863
  129OSM   C18F13936   2.916   1.286   8.009 -0.2389 -0.6315  0.0005
  129OSM   H18F13937   2.952   1.187   8.044  1.5304  0.0767  0.2251
  129OSM   H18G13938   2.805   1.291   8.017 -0.0593  2.4799  1.0869
  129OSM   H18H13939   2.976   1.355   8.072  1.3952 -0.4055 -1.7744
  130OSM      N13940   5.467   4.865   5.872  0.5331  0.3458 -0.0799
  130OSM    C1513941   5.391   4.887   5.748 -0.4172  0.0486  0.6270
  130OSM   H15A13942   5.283   4.882   5.755 -0.4523  0.1095  0.1769
  130OSM   H15B13943   5.418   4.812   5.674 -1.6190  1.3918 -1.2271
  130OSM   H15C13944   5.417   4.982   5.703  1.6544  0.4697  2.6040
  130OSM    C1413945   5.405   4.947   5.985 -0.2271 -0.1428 -0.1069
  130OSM   H14A13946   5.457   4.929   6.079  0.0388 -0.8551 -0.3843
  130OSM   H14B13947   5.299   4.934   5.999 -0.5415  2.1066 -0.2555
  130OSM   H14C13948   5.414   5.053   5.968  0.4294 -0.0938  0.5056
  130OSM    C1313949   5.450   4.724   5.911 -0.5410 -0.3295 -0.6340
  130OSM   H13A13950   5.345   4.714   5.930 -0.5802 -0.6848 -1.0341
  130OSM   H13B13951   5.492   4.708   6.010  0.5616  0.8625 -0.8856
  130OSM   H13C13952   5.489   4.646   5.848  0.5553 -0.6856  0.4533
  130OSM    C1213953   5.613   4.901   5.857 -1.0960  0.4390  0.1024
  130OSM   H12A13954   5.642   4.832   5.779  0.9463 -0.1482  1.3458
  130OSM   H12B13955   5.663   4.868   5.947 -1.6830 -1.9779 -0.4223
  130OSM    C1113956   5.646   5.045   5.831 -0.5365  0.1887  0.1500
  130OSM   H11A13957   5.571   5.073   5.754 -1.5897 -1.5946  0.4882
  130OSM   H11B13958   5.747   5.064   5.789  0.7997  1.1648  3.6002
  130OSM      P13959   5.718   5.099   6.080  0.0578 -0.3453 -0.4116
  130OSM    O1313960   5.667   4.980   6.149 -0.1087  0.1411  0.1044
  130OSM    O1413961   5.862   5.093   6.044 -0.2921 -0.5130  0.0522
  130OSM    O1113962   5.688   5.227   6.169  0.3175 -0.0538  0.5076
  130OSM    O1213963   5.635   5.128   5.948 -0.0428 -0.2446 -0.9200
  130OSM    C1S13964   5.701   5.212   6.311 -0.7264 -0.7864 -0.3318
  130OSM    H1S13965   5.652   5.122   6.353 -2.1066 -0.3792 -1.0586
  130OSM    H1T13966   5.660   5.305   6.357 -3.5795 -2.1287 -0.0487
  130OSM     NF13967   5.852   5.197   6.506  0.8293  0.5783 -0.5269
  130OSM    HNF13968   5.903   5.269   6.553 -1.7357  4.1631 -2.9480
  130OSM    C2S13969   5.850   5.214   6.361  0.0538  0.0177  0.4371
  130OSM    H2S13970   5.910   5.126   6.331  0.4965  0.2111  0.7461
  130OSM    C3S13971   5.907   5.347   6.319  0.2147 -0.1893 -0.1759
  130OSM    H3S13972   5.827   5.424   6.321  0.3444 -0.0634  0.4264
  130OSM     O313973   5.962   5.344   6.187  0.5256  0.2602  0.4454
  130OSM    HO313974   5.921   5.268   6.144 -1.0041  1.9193 -1.1003
  130OSM    C4S13975   6.020   5.388   6.405 -0.4641  0.4328 -0.2277
  130OSM    H4S13976   6.102   5.317   6.424  1.0305  3.1314  4.1192
  130OSM    C5S13977   6.026   5.511   6.462  0.0797 -0.3098 -0.2368
  130OSM    H5S13978   5.940   5.578   6.447  0.5280  0.0601 -1.1961
  130OSM    C6S13979   6.154   5.543   6.533  0.0019  0.9265 -0.4747
  130OSM    H6S13980   6.169   5.652   6.545  2.0139  0.5710  0.5431
  130OSM    H6T13981   6.237   5.507   6.467 -1.3322  0.0468 -1.7055
  130OSM    C7S13982   6.156   5.470   6.671  0.6671  0.3854  0.0045
  130OSM    H7S13983   6.253   5.488   6.723  0.6116  0.5692  0.0444
  130OSM    H7T13984   6.148   5.362   6.647  0.8572  0.0630  1.3581
  130OSM    C8S13985   6.042   5.498   6.770  0.9488  0.3696 -0.0050
  130OSM    H8S13986   5.938   5.492   6.733  0.7433 -0.5306  0.6975
  130OSM    H8T13987   6.045   5.599   6.815  1.2084 -0.1131  1.0885
  130OSM    C9S13988   6.047   5.399   6.891  0.2037  0.1391 -0.0237
  130OSM    H9S13989   6.146   5.402   6.940  1.2605 -0.0731 -2.0928
  130OSM    H9T13990   6.026   5.295   6.857  1.5318 -0.5399  1.1804
  130OSM   C10S13991   5.942   5.431   6.998 -0.0473 -0.4971  1.1400
  130OSM   H10S13992   5.841   5.427   6.953  1.0886  1.7618 -1.8047
  130OSM   H10T13993   5.955   5.534   7.040 -4.5420  1.0312 -0.9460
  130OSM   C11S13994   5.958   5.331   7.121  0.0749 -0.3877 -0.0537
  130OSM   H11S13995   6.006   5.237   7.087  1.4641  0.2803  0.0480
  130OSM   H11T13996   5.859   5.320   7.171 -0.3544  1.5435 -0.4273
  130OSM   C12S13997   6.057   5.376   7.235 -0.1555 -1.0689 -0.0095
  130OSM   H12S13998   6.024   5.479   7.263  0.6811 -0.6068 -0.7115
  130OSM   H12T13999   6.150   5.372   7.174 -1.4684 -0.0152 -2.1351
  130OSM   C13S14000   6.067   5.278   7.356 -0.7273  0.5772 -0.3690
  130OSM   H13S14001   6.094   5.184   7.305  0.3111  0.8274 -0.2824
  130OSM   H13T14002   5.965   5.277   7.401  0.5550  2.2178  2.7246
  130OSM   C14S14003   6.169   5.316   7.467  0.0998  0.0371  0.0613
  130OSM   H14S14004   6.170   5.426   7.484 -2.4238  0.0058  0.7088
  130OSM   H14T14005   6.270   5.282   7.435  0.2186  0.4404  0.0103
  130OSM   C15S14006   6.138   5.229   7.593  0.4056  0.2003  1.1213
  130OSM   H15S14007   6.142   5.119   7.578  3.7250  0.5193 -0.6790
  130OSM   H15T14008   6.037   5.257   7.632 -0.7690 -1.3847 -0.6552
  130OSM   C16S14009   6.245   5.248   7.705 -0.7508 -0.5254  0.0471
  130OSM   H16S14010   6.238   5.353   7.739 -1.2335 -1.0319  1.5399
  130OSM   H16T14011   6.343   5.225   7.659 -0.5174 -0.5442  0.5567
  130OSM   C17S14012   6.223   5.167   7.834 -0.1311 -0.0978  0.0828
  130OSM   H17S14013   6.116   5.146   7.855  0.3884 -2.3605  0.6184
  130OSM   H17T14014   6.269   5.232   7.912  0.6558 -0.2696 -0.2348
  130OSM   C18S14015   6.300   5.034   7.840 -0.0890  0.1388 -0.1629
  130OSM   H18S14016   6.264   4.951   7.775 -1.3613  0.2715  0.3619
  130OSM   H18T14017   6.302   5.002   7.946 -1.2787  0.2987 -0.0897
  130OSM   H18U14018   6.402   5.053   7.800  0.4396 -1.8559  0.1577
  130OSM    C1F14019   5.808   5.089   6.584 -0.0951 -0.0116 -0.8082
  130OSM     OF14020   5.757   4.986   6.536 -0.0008 -0.4089 -0.0643
  130OSM    C2F14021   5.835   5.078   6.727 -0.4987  0.1228  0.0975
  130OSM    H2F14022   5.854   5.179   6.770 -0.7362 -0.3136  1.2613
  130OSM    H2G14023   5.927   5.018   6.745 -0.2267  1.0488  1.8995
  130OSM    C3F14024   5.718   5.006   6.796  0.1194 -0.7310 -0.2564
  130OSM    H3F14025   5.737   4.897   6.798  0.5960 -0.6397  0.1799
  130OSM    H3G14026   5.624   5.028   6.742 -0.9669  0.5968  2.0912
  130OSM    C4F14027   5.688   5.055   6.949  0.0851  0.5875 -0.6423
  130OSM    H4F14028   5.583   5.024   6.971 -0.2991  1.9431 -0.5193
  130OSM    H4G14029   5.691   5.165   6.964 -1.7233  0.6025 -0.2618
  130OSM    C5F14030   5.782   4.993   7.056  0.4908  0.3324  0.7203
  130OSM    H5F14031   5.878   5.048   7.061  1.3265 -1.0416  0.1262
  130OSM    H5G14032   5.803   4.888   7.025 -0.0901 -0.0932  1.7441
  130OSM    C6F14033   5.733   5.018   7.194 -0.2900 -0.7878  0.4789
  130OSM    H6F14034   5.629   4.980   7.202 -0.8034 -0.2266 -2.6583
  130OSM    H6G14035   5.734   5.127   7.215 -0.8789 -0.8712  0.9658
  130OSM    C7F14036   5.810   4.946   7.301  0.1378 -0.0861 -0.1597
  130OSM    H7F14037   5.918   4.970   7.295  0.5505 -1.4209  1.6893
  130OSM    H7G14038   5.802   4.835   7.299  3.3267 -0.3502  0.0500
  130OSM    C8F14039   5.758   4.983   7.443  0.0220  0.1807  0.0290
  130OSM    H8F14040   5.663   4.925   7.438  0.6767 -0.9281  0.2925
  130OSM    H8G14041   5.743   5.092   7.430 -1.1703 -0.0447 -0.5715
  130OSM    C9F14042   5.820   4.929   7.562 -0.6676 -0.5095 -0.1939
  130OSM    H9F14043   5.860   4.832   7.529 -0.2564 -0.2324 -0.5171
  130OSM   C10F14044   5.836   4.972   7.689  0.2348 -0.4917  0.1587
  130OSM   H10F14045   5.889   4.907   7.760  1.5839 -1.5879 -1.7997
  130OSM   C11F14046   5.782   5.102   7.755  0.0407 -0.8699  0.3305
  130OSM   H11F14047   5.688   5.141   7.710 -0.3788 -1.2050  0.8993
  130OSM   H11G14048   5.860   5.182   7.756 -0.0350 -0.7378 -1.7874
  130OSM   C12F14049   5.745   5.078   7.899 -0.1295 -0.0571 -0.6794
  130OSM   H12F14050   5.735   5.180   7.941  3.7733  0.3327 -0.5345
  130OSM   H12G14051   5.832   5.034   7.952 -1.4383 -0.7725  0.9338
  130OSM   C13F14052   5.613   5.003   7.924 -0.4006 -0.1110 -0.1807
  130OSM   H13F14053   5.624   4.903   7.877 -1.3497 -0.7302  0.8742
  130OSM   H13G14054   5.524   5.054   7.882 -1.1255 -0.5283  0.8262
  130OSM   C14F14055   5.596   4.972   8.074  0.0993 -0.3227  0.2011
  130OSM   H14F14056   5.572   5.068   8.124  2.1326  0.3722 -0.0683
  130OSM   H14G14057   5.699   4.956   8.114  1.4833  0.1809 -2.9849
  130OSM   C15F14058   5.508   4.844   8.107  0.4554 -0.5172  1.2081
  130OSM   H15F14059   5.411   4.859   8.054  0.7682 -0.5941  0.6083
  130OSM   H15G14060   5.499   4.837   8.217  2.3182  0.1330  1.4155
  130OSM   C16F14061   5.570   4.718   8.053 -0.3948 -0.1679  0.4230
  130OSM   H16F14062   5.675   4.715   8.089  0.2244 -0.2251 -1.3195
  130OSM   H16G14063   5.566   4.722   7.942 -0.3800  0.7534  0.4469
  130OSM   C17F14064   5.504   4.584   8.093  0.2279  0.2223  0.2228
  130OSM   H17F14065   5.574   4.506   8.056  0.0457  0.1658 -0.0062
  130OSM   H17G14066   5.400   4.575   8.053  1.6545 -3.5464 -3.0112
  130OSM   C18F14067   5.482   4.566   8.245  0.0296 -0.2267  0.3681
  130OSM   H18F14068   5.400   4.634   8.277 -0.3977 -0.8511  0.6075
  130OSM   H18G14069   5.582   4.593   8.286 -0.4215  1.4046  0.4493
  130OSM   H18H14070   5.453   4.462   8.269 -1.3892 -0.1319 -0.8735
  131OSM      N14071   2.958   1.096   5.919  0.3066 -0.4354  1.2998
  131OSM    C1514072   2.823   1.031   5.890  0.3083 -0.5940 -0.0836
  131OSM   H15A14073   2.739   1.085   5.930  0.0530 -0.4953 -0.7436
  131OSM   H15B14074   2.819   0.932   5.932  1.3695 -0.9331 -0.7432
  131OSM   H15C14075   2.804   1.028   5.784  1.2893 -5.0463 -0.2484
  131OSM    C1414076   2.985   1.093   6.062 -0.7367 -0.1349 -0.5946
  131OSM   H14A14077   3.037   1.002   6.090 -0.0190 -1.0933 -4.6047
  131OSM   H14B14078   2.900   1.110   6.125  0.9114 -0.4670  1.7983
  131OSM   H14C14079   3.062   1.165   6.085  1.6659 -2.1825 -1.8577
  131OSM    C1314080   3.061   1.005   5.851  0.4325 -0.1815  0.6703
  131OSM   H13A14081   3.037   0.996   5.746  1.6434 -1.7996  0.5089
  131OSM   H13B14082   3.083   0.909   5.896 -0.1221 -0.0963  1.1373
  131OSM   H13C14083   3.160   1.043   5.870  2.2036 -5.1030  1.8888
  131OSM    C1214084   2.966   1.238   5.867 -0.4343  0.5929 -0.2131
  131OSM   H12A14085   2.875   1.283   5.904 -1.3141  0.0834 -1.7045
  131OSM   H12B14086   2.958   1.230   5.759 -1.4482 -2.0126  0.0136
  131OSM    C1114087   3.086   1.325   5.915  1.0842 -0.1299 -0.1793
  131OSM   H11A14088   3.099   1.344   6.023  0.9054  1.4216 -0.4149
  131OSM   H11B14089   3.070   1.429   5.879  1.5075 -0.1089 -0.3099
  131OSM      P14090   3.341   1.281   5.913  0.1268 -0.1762  0.1681
  131OSM    O1314091   3.440   1.201   5.834 -0.4500 -0.0485 -0.2152
  131OSM    O1414092   3.368   1.429   5.923  0.0473  0.1462  0.3943
  131OSM    O1114093   3.332   1.216   6.054 -0.3989  0.0612  0.0220
  131OSM    O1214094   3.201   1.266   5.850 -0.3053 -0.1934  0.3641
  131OSM    C1S14095   3.451   1.202   6.146 -0.3712 -0.1548  0.9239
  131OSM    H1S14096   3.538   1.235   6.087 -0.8659 -0.5475 -0.0282
  131OSM    H1T14097   3.475   1.097   6.174  1.5459 -0.7176 -2.5590
  131OSM     NF14098   3.552   1.281   6.343 -0.6182  0.3813  0.0275
  131OSM    HNF14099   3.556   1.215   6.418  1.4795  1.3560  0.8129
  131OSM    C2S14100   3.432   1.293   6.268  0.3831 -0.5027 -0.6836
  131OSM    H2S14101   3.411   1.394   6.227 -0.2183 -1.4579 -2.8065
  131OSM    C3S14102   3.301   1.244   6.342 -0.8810  0.7653  0.1143
  131OSM    H3S14103   3.319   1.136   6.363 -1.3771  0.6720  0.0651
  131OSM     O314104   3.180   1.266   6.275  0.3867 -0.0120 -0.8502
  131OSM    HO314105   3.203   1.294   6.186 -1.4279  0.1821 -1.2743
  131OSM    C4S14106   3.286   1.323   6.461  0.1908 -0.0340 -0.2230
  131OSM    H4S14107   3.279   1.432   6.446 -0.9247 -0.4279 -2.8308
  131OSM    C5S14108   3.291   1.271   6.587  0.0266 -0.4186  0.3188
  131OSM    H5S14109   3.310   1.163   6.597 -1.1649 -0.5798  0.8957
  131OSM    C6S14110   3.276   1.360   6.710  0.4815 -0.1515 -0.4354
  131OSM    H6S14111   3.174   1.333   6.746 -0.2302  0.3495 -2.0423
  131OSM    H6T14112   3.277   1.468   6.685 -1.0345  0.2980  1.3348
  131OSM    C7S14113   3.376   1.341   6.821  0.5105 -0.5785  0.3096
  131OSM    H7S14114   3.484   1.344   6.794  0.6016 -2.0961  0.4478
  131OSM    H7T14115   3.367   1.235   6.855  1.1679 -1.3238 -1.7408
  131OSM    C8S14116   3.339   1.430   6.940  0.1600 -0.5682 -0.6141
  131OSM    H8S14117   3.228   1.434   6.954  0.2264 -0.8830  0.0167
  131OSM    H8T14118   3.373   1.535   6.925 -3.0585  1.2730  3.6353
  131OSM    C9S14119   3.416   1.370   7.069  0.1011  0.1888 -0.4269
  131OSM    H9S14120   3.526   1.360   7.052 -0.0010 -2.2614  0.1564
  131OSM    H9T14121   3.364   1.274   7.091 -1.0245  0.8766 -0.0550
  131OSM   C10S14122   3.378   1.454   7.184  0.1737  0.1211 -0.1132
  131OSM   H10S14123   3.275   1.424   7.215 -0.4966  0.6500 -1.7627
  131OSM   H10T14124   3.378   1.564   7.167  0.1778  0.5026  2.1304
  131OSM   C11S14125   3.458   1.418   7.313 -0.1519 -0.5548 -0.0206
  131OSM   H11S14126   3.413   1.492   7.383  0.9738  1.0491 -0.9632
  131OSM   H11T14127   3.567   1.430   7.293 -0.1166 -2.9759 -1.5397
  131OSM   C12S14128   3.446   1.267   7.342 -0.0222  0.0188  0.0386
  131OSM   H12S14129   3.512   1.213   7.271  0.1627 -0.5579  0.6436
  131OSM   H12T14130   3.342   1.236   7.320 -0.3261  0.6432  0.5766
  131OSM   C13S14131   3.489   1.210   7.484  0.0361  0.5688 -0.0043
  131OSM   H13S14132   3.482   1.101   7.465  0.2151  0.6480 -0.5312
  131OSM   H13T14133   3.413   1.240   7.559 -0.1583 -2.0878  0.8898
  131OSM   C14S14134   3.637   1.242   7.525 -0.4169 -0.5873  0.4230
  131OSM   H14S14135   3.698   1.243   7.432  0.6826  1.6240  1.1239
  131OSM   H14T14136   3.667   1.165   7.599  4.4755  0.6359 -0.1050
  131OSM   C15S14137   3.655   1.383   7.591 -0.0096 -0.3317  0.2221
  131OSM   H15S14138   3.587   1.375   7.678 -1.6916  0.7105 -0.9577
  131OSM   H15T14139   3.597   1.450   7.523 -0.1979 -0.0359  0.6722
  131OSM   C16S14140   3.799   1.424   7.597 -0.2982 -0.2013 -0.2384
  131OSM   H16S14141   3.865   1.378   7.521  0.7475  1.6454 -0.4814
  131OSM   H16T14142   3.843   1.387   7.692 -1.4700 -0.5715  0.1699
  131OSM   C17S14143   3.825   1.576   7.576  0.6318  0.0303  0.4607
  131OSM   H17S14144   3.757   1.610   7.494 -1.0992  2.0819  2.6741
  131OSM   H17T14145   3.931   1.597   7.548  0.6119 -1.0003 -0.3976
  131OSM   C18S14146   3.795   1.656   7.704 -0.7168 -0.3433  0.2696
  131OSM   H18S14147   3.845   1.609   7.792  2.3276  1.2646 -0.5385
  131OSM   H18T14148   3.689   1.652   7.740 -0.9361 -0.5902 -0.4146
  131OSM   H18U14149   3.838   1.758   7.694  0.3427 -0.8161 -0.0684
  131OSM    C1F14150   3.663   1.352   6.321 -0.0175  0.0490  0.5718
  131OSM     OF14151   3.646   1.452   6.249 -0.3390 -0.0307 -0.0680
  131OSM    C2F14152   3.794   1.310   6.380  0.3474 -0.4818 -0.1789
  131OSM    H2F14153   3.870   1.390   6.368 -0.8478  0.8460  0.7321
  131OSM    H2G14154   3.837   1.227   6.321  0.4877 -1.0216  0.6671
  131OSM    C3F14155   3.780   1.266   6.532  0.4075  0.2647  0.2572
  131OSM    H3F14156   3.884   1.260   6.572  0.3447  1.0306  0.5399
  131OSM    H3G14157   3.730   1.167   6.531 -1.5435  1.2394  0.1543
  131OSM    C4F14158   3.703   1.369   6.625 -0.0403 -0.6918 -0.1179
  131OSM    H4F14159   3.700   1.323   6.726 -0.1905  0.2996  0.3348
  131OSM    H4G14160   3.598   1.379   6.591  0.7196 -0.1544 -2.4261
  131OSM    C5F14161   3.760   1.508   6.632  0.8777 -0.6024 -0.3400
  131OSM    H5F14162   3.737   1.555   6.534  1.2903 -0.8490 -0.5603
  131OSM    H5G14163   3.869   1.509   6.653  0.9805  1.7671 -0.8355
  131OSM    C6F14164   3.695   1.592   6.741 -0.4028  0.3494 -0.3410
  131OSM    H6F14165   3.741   1.558   6.836  0.8693  0.7180 -0.8091
  131OSM    H6G14166   3.591   1.555   6.747  0.1792 -1.0413  1.5673
  131OSM    C7F14167   3.687   1.743   6.728  0.3540  0.0667  0.3466
  131OSM    H7F14168   3.637   1.768   6.632  2.5464  1.4285 -0.5019
  131OSM    H7G14169   3.791   1.783   6.725  0.0054  0.9376 -1.0263
  131OSM    C8F14170   3.622   1.814   6.847 -0.1290 -0.5537 -0.1242
  131OSM    H8F14171   3.692   1.806   6.933 -0.1037  0.6171 -0.0282
  131OSM    H8G14172   3.536   1.747   6.868 -2.7875  2.7974  0.2463
  131OSM    C9F14173   3.573   1.955   6.814  0.3330 -1.4644 -0.1650
  131OSM    H9F14174   3.542   1.957   6.708  0.4537  1.1742 -0.1770
  131OSM   C10F14175   3.577   2.071   6.887 -0.2281  0.0930  0.0788
  131OSM   H10F14176   3.525   2.161   6.851 -1.2530 -0.7008 -0.4720
  131OSM   C11F14177   3.622   2.093   7.029  0.2579 -0.3105  0.8375
  131OSM   H11F14178   3.629   1.995   7.081  1.5472 -1.0489 -0.7020
  131OSM   H11G14179   3.550   2.155   7.087  0.3517  1.5117 -0.9672
  131OSM   C12F14180   3.764   2.158   7.054  0.2787 -0.2181  0.5701
  131OSM   H12F14181   3.753   2.268   7.045  1.8514  0.0550  1.8416
  131OSM   H12G14182   3.835   2.112   6.983 -0.5034  1.9407 -1.6516
  131OSM   C13F14183   3.806   2.137   7.198  0.1917 -0.0138 -0.2524
  131OSM   H13F14184   3.732   2.180   7.269 -1.1420 -0.4428 -1.3578
  131OSM   H13G14185   3.908   2.181   7.210  0.0646  0.3303 -0.4484
  131OSM   C14F14186   3.832   1.981   7.241  0.1813  0.0408 -0.4111
  131OSM   H14F14187   3.841   1.927   7.144  1.4686  0.7071 -0.6775
  131OSM   H14G14188   3.753   1.956   7.315 -1.1936  1.9445 -1.1872
  131OSM   C15F14189   3.963   1.961   7.317  0.4052 -0.2439 -0.4636
  131OSM   H15F14190   3.974   2.044   7.390 -0.6285  0.2031 -0.8110
  131OSM   H15G14191   4.041   1.967   7.239  0.8870  2.4686  0.1984
  131OSM   C16F14192   3.978   1.830   7.399 -0.5051 -0.3577  0.5040
  131OSM   H16F14193   3.945   1.744   7.336  0.8238  0.0073 -0.7089
  131OSM   H16G14194   3.910   1.835   7.486  2.2423 -2.4966  2.8668
  131OSM   C17F14195   4.122   1.813   7.455  0.0246 -0.0739  0.6485
  131OSM   H17F14196   4.189   1.771   7.377 -0.0601 -3.3138  2.2374
  131OSM   H17G14197   4.112   1.746   7.543 -0.8186 -1.6451 -0.6272
  131OSM   C18F14198   4.183   1.945   7.501  0.3861  0.7158  0.2062
  131OSM   H18F14199   4.277   1.914   7.552  0.2034  0.3203  0.2950
  131OSM   H18G14200   4.113   1.990   7.575 -0.2870 -0.3480  0.2159
  131OSM   H18H14201   4.216   2.019   7.424 -1.3944 -0.7992 -2.0480
  132OSM      N14202   5.206   1.329   5.993 -0.0383 -0.6015 -0.2099
  132OSM    C1514203   5.262   1.329   5.857 -0.3899 -0.4297 -0.8426
  132OSM   H15A14204   5.223   1.418   5.809 -4.0055 -0.4790  1.8002
  132OSM   H15B14205   5.238   1.237   5.805  2.3068 -1.3413 -0.5210
  132OSM   H15C14206   5.368   1.349   5.862 -0.6335  0.7614 -0.2989
  132OSM    C1414207   5.287   1.249   6.084 -0.2638  1.0189 -0.3955
  132OSM   H14A14208   5.392   1.275   6.090  0.3297 -1.5246  1.4400
  132OSM   H14B14209   5.285   1.145   6.054  0.6095  0.6103  0.9180
  132OSM   H14C14210   5.254   1.260   6.186  1.2258  3.4295 -0.1275
  132OSM    C1314211   5.214   1.475   6.046  0.0446  0.7174 -0.2580
  132OSM   H13A14212   5.199   1.469   6.153 -0.7010  1.7710 -0.2916
  132OSM   H13B14213   5.133   1.534   6.005 -1.1462 -0.1711  0.7731
  132OSM   H13C14214   5.311   1.520   6.032 -0.6734  2.6763  0.8476
  132OSM    C1214215   5.057   1.287   5.992 -0.8739 -0.2197  0.4375
  132OSM   H12A14216   5.008   1.314   6.084 -0.6453 -0.8071  0.7355
  132OSM   H12B14217   5.042   1.181   6.007  0.9293 -0.1578  3.1159
  132OSM    C1114218   4.971   1.340   5.875  0.3801 -0.4238  0.5683
  132OSM   H11A14219   4.865   1.307   5.888 -0.5845  0.8870 -3.1890
  132OSM   H11B14220   5.001   1.298   5.777  0.8535 -0.0451  0.5501
  132OSM      P14221   4.864   1.571   5.953 -0.3640  0.4170 -0.5393
  132OSM    O1314222   4.864   1.705   5.899 -0.1159 -0.3210 -1.1753
  132OSM    O1414223   4.733   1.497   5.953 -0.2209  0.1715  0.1456
  132OSM    O1114224   4.936   1.558   6.094  0.4743 -0.6788 -0.0769
  132OSM    O1214225   4.968   1.485   5.874 -0.6226  0.4889  0.2001
  132OSM    C1S14226   4.861   1.520   6.209 -0.1957  0.3914  0.1585
  132OSM    H1S14227   4.807   1.425   6.189 -1.8080  1.0771  1.1904
  132OSM    H1T14228   4.784   1.593   6.243  0.0354  0.8146 -0.2186
  132OSM     NF14229   4.886   1.420   6.439 -0.1795 -0.7519 -0.3236
  132OSM    HNF14230   4.843   1.484   6.502  2.4353  0.7008  0.0596
  132OSM    C2S14231   4.958   1.491   6.330  0.2280 -0.3851 -0.1234
  132OSM    H2S14232   5.033   1.418   6.293 -1.6025 -2.1901 -0.3500
  132OSM    C3S14233   5.015   1.630   6.375 -0.1405 -0.0265  0.0098
  132OSM    H3S14234   4.928   1.696   6.395 -1.4175 -1.5678 -0.3315
  132OSM     O314235   5.103   1.689   6.282  0.0310 -0.2150  0.2159
  132OSM    HO314236   5.074   1.652   6.198 -0.8530 -1.8720  1.2417
  132OSM    C4S14237   5.085   1.619   6.504  0.3084 -0.1689 -0.0212
  132OSM    H4S14238   5.169   1.548   6.498 -0.0196 -0.4970 -0.8055
  132OSM    C5S14239   5.049   1.682   6.618  0.1887  0.6880 -0.4294
  132OSM    H5S14240   4.961   1.747   6.608  0.9534  1.6828 -0.8499
  132OSM    C6S14241   5.122   1.668   6.751  0.0737 -0.1271 -0.3042
  132OSM    H6S14242   5.169   1.767   6.774 -1.9040  0.9802 -0.9480
  132OSM    H6T14243   5.203   1.592   6.747  2.8046  2.6782 -1.0783
  132OSM    C7S14244   5.028   1.618   6.865  0.1530 -0.0548 -0.6164
  132OSM    H7S14245   4.967   1.533   6.828 -1.9832  1.2237 -0.1410
  132OSM    H7T14246   4.955   1.701   6.877 -2.4946 -2.7822  3.5042
  132OSM    C8S14247   5.082   1.582   7.003 -0.1998  0.0825 -1.8251
  132OSM    H8S14248   5.154   1.497   6.997 -2.1145 -1.7816  0.3618
  132OSM    H8T14249   5.000   1.549   7.070 -0.8367 -2.4903 -3.8051
  132OSM    C9S14250   5.167   1.701   7.067 -0.1040 -0.2872 -0.3033
  132OSM    H9S14251   5.102   1.789   7.087 -0.3289 -0.6911  0.7811
  132OSM    H9T14252   5.243   1.731   6.992 -1.5266  2.0374 -0.8715
  132OSM   C10S14253   5.226   1.644   7.195  0.0824  0.8874 -0.2314
  132OSM   H10S14254   5.296   1.564   7.161  0.3693  0.3978  1.4826
  132OSM   H10T14255   5.138   1.601   7.246  1.3187 -2.6278 -0.9311
  132OSM   C11S14256   5.308   1.738   7.283  0.0452 -0.1162 -0.1745
  132OSM   H11S14257   5.279   1.845   7.279  0.2409  0.0071  1.5005
  132OSM   H11T14258   5.415   1.739   7.254  0.2441 -1.9970  0.4509
  132OSM   C12S14259   5.313   1.684   7.430 -0.2436  0.3085 -0.6282
  132OSM   H12S14260   5.212   1.694   7.475  0.4541 -2.1938  1.6207
  132OSM   H12T14261   5.392   1.743   7.481  0.1362 -0.4461 -0.3294
  132OSM   C13S14262   5.350   1.536   7.429  0.6130 -0.7008  0.3698
  132OSM   H13S14263   5.450   1.533   7.381  0.5745  1.2525  0.0939
  132OSM   H13T14264   5.277   1.477   7.369  1.1756  1.9862 -3.1622
  132OSM   C14S14265   5.365   1.465   7.559  0.2122 -0.8582 -0.2572
  132OSM   H14S14266   5.454   1.513   7.605 -1.0721  0.4753  0.8868
  132OSM   H14T14267   5.385   1.358   7.537 -0.9072 -0.8447 -1.3928
  132OSM   C15S14268   5.237   1.475   7.652 -0.1159  0.2840  0.1943
  132OSM   H15S14269   5.152   1.445   7.588 -0.0196 -1.1464  0.7203
  132OSM   H15T14270   5.227   1.581   7.684  0.1311  0.3620  0.0160
  132OSM   C16S14271   5.248   1.420   7.793  0.4653  0.3312  0.7606
  132OSM   H16S14272   5.337   1.460   7.846 -0.2362  3.8335 -0.5979
  132OSM   H16T14273   5.268   1.311   7.789  2.4694  0.7444 -1.8587
  132OSM   C17S14274   5.121   1.442   7.874 -0.1753 -0.1268  0.1189
  132OSM   H17S14275   5.109   1.553   7.875 -1.6001 -0.2703  2.3412
  132OSM   H17T14276   5.141   1.415   7.980  2.6389 -0.2841 -0.4195
  132OSM   C18S14277   4.988   1.380   7.827  0.0185 -0.4795 -0.2311
  132OSM   H18S14278   4.998   1.271   7.807 -1.0792  0.0975 -4.4893
  132OSM   H18T14279   4.956   1.419   7.728 -1.1140 -2.7864 -0.8169
  132OSM   H18U14280   4.917   1.399   7.910  0.5909 -0.0485  0.1625
  132OSM    C1F14281   4.853   1.289   6.421  0.4801 -0.3875 -0.1556
  132OSM     OF14282   4.876   1.235   6.314 -0.5413 -0.2646 -0.4675
  132OSM    C2F14283   4.786   1.217   6.535  0.6204  0.0081 -0.2316
  132OSM    H2F14284   4.688   1.265   6.556  0.9581  0.0598  1.2337
  132OSM    H2G14285   4.853   1.208   6.623 -0.2821  1.5282  0.6111
  132OSM    C3F14286   4.740   1.076   6.483 -0.6584  0.4100 -0.2213
  132OSM    H3F14287   4.830   1.011   6.476 -2.7756 -2.6044 -0.4953
  132OSM    H3G14288   4.691   1.087   6.383  2.6591  1.3426 -1.8192
  132OSM    C4F14289   4.640   1.018   6.581 -0.3825 -0.6541 -0.2221
  132OSM    H4F14290   4.579   0.944   6.525  0.0034 -1.2115  0.0865
  132OSM    H4G14291   4.571   1.102   6.603 -0.1722 -0.3815 -0.6027
  132OSM    C5F14292   4.704   0.958   6.712  0.1617 -0.7608 -0.4006
  132OSM    H5F14293   4.772   1.031   6.762 -0.1214 -1.7293  1.4185
  132OSM    H5G14294   4.773   0.877   6.679  1.3920  0.2928 -0.5086
  132OSM    C6F14295   4.605   0.908   6.814  0.1394  0.2490 -0.3200
  132OSM    H6F14296   4.662   0.846   6.887  2.4251  1.7288 -0.8016
  132OSM    H6G14297   4.544   0.837   6.754 -2.2908  2.4153 -0.5236
  132OSM    C7F14298   4.537   1.014   6.897  0.1483  0.0454  0.5400
  132OSM    H7F14299   4.485   1.084   6.829  0.5912  0.5985  0.7680
  132OSM    H7G14300   4.624   1.071   6.937  1.0177  0.0086 -1.2693
  132OSM    C8F14301   4.438   0.971   7.005  0.4148 -0.5650  0.6070
  132OSM    H8F14302   4.350   0.925   6.955 -1.0604  1.9329  0.8325
  132OSM    H8G14303   4.403   1.069   7.044  0.4029 -0.4297  0.2601
  132OSM    C9F14304   4.503   0.880   7.100  0.3433  0.5632  0.1934
  132OSM    H9F14305   4.522   0.778   7.063 -0.0973  0.9253 -1.0801
  132OSM   C10F14306   4.533   0.899   7.226 -0.8714 -0.2256 -0.2865
  132OSM   H10F14307   4.559   0.801   7.269 -0.5489 -0.7523 -1.6731
  132OSM   C11F14308   4.513   1.023   7.309  0.5643 -0.2941 -0.3364
  132OSM   H11F14309   4.475   1.109   7.249 -1.2374 -2.0249 -1.7622
  132OSM   H11G14310   4.614   1.056   7.342  1.6839 -4.0884  0.2631
  132OSM   C12F14311   4.413   1.009   7.425  0.4545  0.4133  0.1968
  132OSM   H12F14312   4.451   0.924   7.486 -1.9153 -3.9010 -4.0201
  132OSM   H12G14313   4.313   0.976   7.390  0.7835 -1.3860  0.9210
  132OSM   C13F14314   4.401   1.138   7.511 -0.4823 -0.1359 -0.5871
  132OSM   H13F14315   4.358   1.221   7.452  0.2509  0.8027  0.1969
  132OSM   H13G14316   4.503   1.170   7.540 -0.6002  1.1886 -1.5933
  132OSM   C14F14317   4.319   1.133   7.645  0.0344  0.3941  0.6037
  132OSM   H14F14318   4.348   1.039   7.699  0.9835 -0.6556 -1.6580
  132OSM   H14G14319   4.209   1.128   7.636  0.1258 -0.2136 -0.2172
  132OSM   C15F14320   4.354   1.245   7.740  0.5155 -0.1144 -0.4190
  132OSM   H15F14321   4.449   1.301   7.725  0.0826  0.0181 -2.7236
  132OSM   H15G14322   4.383   1.190   7.833  0.5350 -0.8325 -0.8428
  132OSM   C16F14323   4.242   1.342   7.772  0.2210 -0.0519  0.7078
  132OSM   H16F14324   4.266   1.402   7.862  0.6310 -0.4723  0.8804
  132OSM   H16G14325   4.152   1.284   7.798 -0.5634  0.8431  0.0486
  132OSM   C17F14326   4.209   1.443   7.657  0.0182 -0.0367  0.0637
  132OSM   H17F14327   4.131   1.511   7.696  0.5402  1.1234 -0.8972
  132OSM   H17G14328   4.171   1.384   7.570  1.3772 -1.3083  0.3096
  132OSM   C18F14329   4.322   1.528   7.601  0.1502  0.0847 -0.4234
  132OSM   H18F14330   4.402   1.465   7.556  0.8518  0.1183  0.7569
  132OSM   H18G14331   4.369   1.592   7.679  0.3913 -0.1416 -0.3802
  132OSM   H18H14332   4.275   1.598   7.529 -1.6914  0.1735  0.8399
  133OSM      N14333   5.182   2.037   5.856  0.0921 -0.6582  0.4300
  133OSM    C1514334   5.055   1.975   5.820  0.5887 -0.4922  0.4307
  133OSM   H15A14335   4.980   2.016   5.886  0.1075  0.7322 -0.8620
  133OSM   H15B14336   5.056   1.867   5.829  2.6565 -0.4296  1.3851
  133OSM   H15C14337   5.030   1.997   5.718  0.6142  1.0921  0.7550
  133OSM    C1414338   5.286   2.006   5.749 -0.7267  0.7836 -0.2905
  133OSM   H14A14339   5.377   2.065   5.744 -0.1155 -0.1613 -0.4032
  133OSM   H14B14340   5.239   2.009   5.653 -0.9435  1.5750 -0.1658
  133OSM   H14C14341   5.310   1.901   5.756 -0.4151  0.9092  0.6827
  133OSM    C1314342   5.182   2.185   5.860 -0.7441  0.4781 -0.1911
  133OSM   H13A14343   5.279   2.230   5.870 -0.0922 -0.4969 -1.8276
  133OSM   H13B14344   5.127   2.218   5.947  2.9133  2.5401  1.4673
  133OSM   H13C14345   5.149   2.242   5.775 -1.5421  1.2775  0.6362
  133OSM    C1214346   5.224   1.983   5.998 -0.5225  0.6571 -0.4046
  133OSM   H12A14347   5.164   2.041   6.066 -0.0187 -0.1061  0.7120
  133OSM   H12B14348   5.323   2.015   6.026 -0.5500  0.4467 -0.0639
  133OSM    C1114349   5.221   1.830   6.020  0.8869  0.6076  0.1867
  133OSM   H11A14350   5.116   1.796   6.029  1.1467 -0.0619  0.7158
  133OSM   H11B14351   5.267   1.818   6.121 -1.5587  2.0094  1.5168
  133OSM      P14352   5.454   1.753   5.935  0.0733 -0.1924 -0.4297
  133OSM    O1314353   5.479   1.666   6.058 -0.0667  0.6206 -0.2811
  133OSM    O1414354   5.515   1.707   5.808  0.4575 -0.0540 -0.1111
  133OSM    O1114355   5.493   1.898   5.970 -0.5747 -0.4082  0.3438
  133OSM    O1214356   5.288   1.756   5.919  0.0156  0.0046 -0.0874
  133OSM    C1S14357   5.635   1.920   6.011  0.0211  0.3652 -0.0453
  133OSM    H1S14358   5.692   1.986   5.942  2.2045 -1.1473  0.2890
  133OSM    H1T14359   5.694   1.827   5.996 -0.4926 -0.2643  1.7150
  133OSM     NF14360   5.674   1.868   6.253 -0.3610  0.2288 -0.1891
  133OSM    HNF14361   5.607   1.795   6.261  0.5268 -0.6286 -0.4237
  133OSM    C2S14362   5.648   1.981   6.157  0.1299  0.4691  0.8343
  133OSM    H2S14363   5.731   2.055   6.157 -0.8356  1.6348 -2.5806
  133OSM    C3S14364   5.518   2.053   6.188  0.2714 -0.2716 -0.1984
  133OSM    H3S14365   5.444   1.971   6.174  1.7998 -1.9813  1.5069
  133OSM     O314366   5.468   2.154   6.096  0.0875 -0.2050  0.6833
  133OSM    HO314367   5.516   2.138   6.014 -0.8564 -0.9966  0.2769
  133OSM    C4S14368   5.523   2.115   6.329  0.6870  0.0841  0.4982
  133OSM    H4S14369   5.452   2.076   6.404  0.4966  0.2775  0.4180
  133OSM    C5S14370   5.591   2.228   6.363  0.0034  0.3065 -0.3089
  133OSM    H5S14371   5.639   2.292   6.288 -1.7892 -1.1728 -2.8332
  133OSM    C6S14372   5.591   2.286   6.503  0.2771 -0.1756 -0.0523
  133OSM    H6S14373   5.513   2.365   6.494  0.5953 -0.0409 -1.7314
  133OSM    H6T14374   5.685   2.341   6.522 -1.2346  2.1267  0.9321
  133OSM    C7S14375   5.562   2.215   6.629 -0.1461 -0.1497 -0.7303
  133OSM    H7S14376   5.460   2.170   6.630  0.2115 -0.9379  1.5137
  133OSM    H7T14377   5.554   2.285   6.715 -2.4563 -0.0309 -1.0187
  133OSM    C8S14378   5.658   2.099   6.674 -0.3243  0.1912  0.3383
  133OSM    H8S14379   5.755   2.128   6.628  0.0466  1.6765  1.9901
  133OSM    H8T14380   5.613   2.001   6.650 -2.1093  0.9514  0.5395
  133OSM    C9S14381   5.681   2.085   6.825 -0.9708 -0.0374 -0.3876
  133OSM    H9S14382   5.727   2.178   6.866  3.4989 -2.4807  0.4302
  133OSM    H9T14383   5.749   1.999   6.842 -0.9946 -0.1623 -0.9471
  133OSM   C10S14384   5.553   2.058   6.903  0.0465 -0.2597 -0.4116
  133OSM   H10S14385   5.491   1.980   6.854  1.3937 -1.0012 -0.9606
  133OSM   H10T14386   5.488   2.148   6.895 -0.5323 -0.5954  0.4559
  133OSM   C11S14387   5.561   2.033   7.057  0.2837  0.0397  0.2962
  133OSM   H11S14388   5.633   1.952   7.080  1.2168  0.9385  0.5488
  133OSM   H11T14389   5.464   1.999   7.100 -0.5673  1.0131 -0.8341
  133OSM   C12S14390   5.609   2.166   7.126 -0.0811  0.3407  0.6035
  133OSM   H12S14391   5.558   2.258   7.092 -0.6153 -1.2525 -3.2047
  133OSM   H12T14392   5.716   2.178   7.100  0.2146  0.6998  1.9775
  133OSM   C13S14393   5.602   2.165   7.279  0.4891  0.2322  0.2951
  133OSM   H13S14394   5.671   2.089   7.322 -2.0240 -1.3820  1.6202
  133OSM   H13T14395   5.500   2.144   7.318  0.7234 -0.6140  0.4682
  133OSM   C14S14396   5.644   2.301   7.331  0.2730 -0.7435 -0.1792
  133OSM   H14S14397   5.578   2.381   7.293 -1.8739 -2.4507 -0.1560
  133OSM   H14T14398   5.748   2.318   7.297  1.0221 -0.8069  2.0351
  133OSM   C15S14399   5.665   2.295   7.480  0.2202 -0.1730 -0.3263
  133OSM   H15S14400   5.720   2.200   7.498 -0.1803  0.1114  2.6403
  133OSM   H15T14401   5.565   2.280   7.526  0.2670 -0.2281 -0.2439
  133OSM   C16S14402   5.740   2.405   7.551  0.3512 -0.6116  0.5282
  133OSM   H16S14403   5.718   2.509   7.519  1.0505 -1.1086 -1.6619
  133OSM   H16T14404   5.850   2.402   7.543  0.3397  1.2339 -0.4932
  133OSM   C17S14405   5.722   2.403   7.703  0.0427  0.1898  0.6058
  133OSM   H17S14406   5.772   2.315   7.748  1.5986  0.6140 -0.2298
  133OSM   H17T14407   5.615   2.378   7.716 -0.8916  1.6297 -3.6726
  133OSM   C18S14408   5.776   2.521   7.771  0.0521  0.7458  0.1418
  133OSM   H18S14409   5.718   2.545   7.863  1.0525  1.5878  0.5616
  133OSM   H18T14410   5.770   2.612   7.708 -0.3149 -0.1463 -1.1261
  133OSM   H18U14411   5.885   2.512   7.790  0.3353  0.3452 -1.5814
  133OSM    C1F14412   5.802   1.835   6.282 -0.1778 -0.1191 -1.3341
  133OSM     OF14413   5.895   1.889   6.219  0.0065  0.0062 -0.2604
  133OSM    C2F14414   5.821   1.729   6.387 -0.5049  0.3815  0.2211
  133OSM    H2F14415   5.823   1.627   6.344 -0.0900 -0.2707  1.7399
  133OSM    H2G14416   5.731   1.728   6.452 -0.5434  1.0750  0.1839
  133OSM    C3F14417   5.943   1.759   6.482  0.5424 -0.4488 -0.5073
  133OSM    H3F14418   5.929   1.856   6.535  1.9067 -1.2122  1.3220
  133OSM    H3G14419   6.034   1.774   6.421  1.4108  3.4216  1.5541
  133OSM    C4F14420   5.957   1.667   6.600  0.0787 -0.1652  0.7799
  133OSM    H4F14421   5.979   1.561   6.575  0.7310  0.4191 -1.2512
  133OSM    H4G14422   5.863   1.669   6.658 -1.4747 -1.1329 -1.6126
  133OSM    C5F14423   6.067   1.727   6.688 -0.2117  0.2321  0.0139
  133OSM    H5F14424   6.019   1.822   6.722  2.0200  1.3940  0.0378
  133OSM    H5G14425   6.163   1.758   6.640 -0.8385 -1.1133 -2.2006
  133OSM    C6F14426   6.107   1.638   6.803 -0.7319 -0.4951 -0.3101
  133OSM    H6F14427   6.192   1.682   6.859 -0.5370  0.9705 -1.7281
  133OSM    H6G14428   6.141   1.549   6.745 -0.8121 -0.7194 -0.0133
  133OSM    C7F14429   5.993   1.596   6.897  0.2469  0.8007  0.4422
  133OSM    H7F14430   6.029   1.517   6.966  0.3575  1.3087  0.9672
  133OSM    H7G14431   5.918   1.547   6.832 -1.3041  1.0682  2.0056
  133OSM    C8F14432   5.934   1.700   6.992 -0.3314 -0.2365  0.1222
  133OSM    H8F14433   5.841   1.668   7.042  0.5725 -0.7061  1.5237
  133OSM    H8G14434   5.910   1.792   6.934  0.1926 -1.3369 -1.9082
  133OSM    C9F14435   6.036   1.758   7.087 -0.8137  0.6228  0.1731
  133OSM    H9F14436   6.117   1.809   7.032 -0.4499  1.5606  1.5482
  133OSM   C10F14437   6.032   1.762   7.219  0.0819 -0.6096  0.1599
  133OSM   H10F14438   6.105   1.824   7.274 -2.2932  2.0597  0.3885
  133OSM   C11F14439   5.926   1.703   7.307 -0.2656 -0.3903 -0.5690
  133OSM   H11F14440   5.968   1.621   7.369 -1.4492 -0.3192  0.3489
  133OSM   H11G14441   5.843   1.654   7.251  0.2802 -0.8267 -0.9956
  133OSM   C12F14442   5.858   1.813   7.386 -0.3295 -0.1531  0.5006
  133OSM   H12F14443   5.796   1.881   7.324  0.8906 -2.4964 -3.4347
  133OSM   H12G14444   5.938   1.873   7.435  0.1555 -1.0235  0.7964
  133OSM   C13F14445   5.761   1.755   7.492 -0.0514  0.3542  0.4102
  133OSM   H13F14446   5.823   1.698   7.564 -2.1057 -1.2805  0.9334
  133OSM   H13G14447   5.689   1.686   7.444 -0.9976  2.1921 -0.8929
  133OSM   C14F14448   5.677   1.865   7.552  0.6103 -0.6441  0.7827
  133OSM   H14F14449   5.590   1.886   7.486  1.5955 -0.6318 -0.5551
  133OSM   H14G14450   5.734   1.955   7.583  0.3870 -0.0147 -0.5810
  133OSM   C15F14451   5.621   1.802   7.678  0.1511  0.4784  0.0922
  133OSM   H15F14452   5.711   1.769   7.735 -0.2013 -2.6420 -1.0642
  133OSM   H15G14453   5.567   1.712   7.643 -0.1073 -0.7933  3.5428
  133OSM   C16F14454   5.534   1.894   7.763  0.6933 -0.7258 -0.4332
  133OSM   H16F14455   5.435   1.897   7.714  0.0093  0.1136  0.9602
  133OSM   H16G14456   5.571   1.998   7.766 -1.1087  0.0914 -4.2551
  133OSM   C17F14457   5.507   1.851   7.910  0.2013  0.0969  0.8939
  133OSM   H17F14458   5.435   1.927   7.948 -0.8205 -0.7951  0.7498
  133OSM   H17G14459   5.596   1.840   7.977 -0.2516 -0.5863  1.3869
  133OSM   C18F14460   5.421   1.723   7.928  0.1499 -0.7422  0.9813
  133OSM   H18F14461   5.422   1.686   8.033  0.3991 -1.7849  0.6182
  133OSM   H18G14462   5.447   1.651   7.848 -0.4396  2.6043 -2.3343
  133OSM   H18H14463   5.316   1.745   7.898  0.7790  0.7891 -0.1344
  134OSM      N14464   6.392   5.299   6.140  0.9660  0.3902  0.1300
  134OSM    C1514465   6.405   5.446   6.111  0.3403  0.6857  0.0320
  134OSM   H15A14466   6.496   5.466   6.056 -1.5942 -0.6516 -3.8607
  134OSM   H15B14467   6.386   5.504   6.201  0.0105 -0.9462  1.0376
  134OSM   H15C14468   6.327   5.468   6.040  0.5476  0.5929 -0.2269
  134OSM    C1414469   6.508   5.267   6.225  0.6607 -0.1257 -0.6018
  134OSM   H14A14470   6.514   5.163   6.255 -0.7156  0.6274  2.5335
  134OSM   H14B14471   6.494   5.323   6.316  0.6423 -1.5236  0.2696
  134OSM   H14C14472   6.603   5.308   6.195  0.3693  1.0285  0.0172
  134OSM    C1314473   6.256   5.282   6.215  0.5326  0.1341  0.3281
  134OSM   H13A14474   6.252   5.329   6.312  0.8376 -0.2639  0.5350
  134OSM   H13B14475   6.243   5.175   6.213 -0.1189  0.2197 -1.8331
  134OSM   H13C14476   6.181   5.327   6.151  3.5573  2.4965 -1.7131
  134OSM    C1214477   6.399   5.225   6.004 -0.5127  0.3881  0.1382
  134OSM   H12A14478   6.500   5.234   5.966 -0.8067 -0.1847 -0.8168
  134OSM   H12B14479   6.334   5.275   5.932 -0.7483 -2.2434 -1.5472
  134OSM    C1114480   6.382   5.069   5.993  0.4092 -0.6889  0.0743
  134OSM   H11A14481   6.483   5.031   6.022 -0.9217 -2.9816  1.8800
  134OSM   H11B14482   6.371   5.042   5.886 -0.0687 -0.2433  0.0114
  134OSM      P14483   6.276   4.853   6.088 -0.6371 -0.0876  0.0702
  134OSM    O1314484   6.256   4.801   5.953 -0.5799  0.9549 -0.1678
  134OSM    O1414485   6.394   4.818   6.164 -0.6598  0.1917 -0.2705
  134OSM    O1114486   6.133   4.819   6.165 -0.0849  0.1543  0.7732
  134OSM    O1214487   6.280   5.011   6.076  0.0454  0.1881 -0.2551
  134OSM    C1S14488   6.068   4.920   6.245  0.3073  0.5564 -0.5403
  134OSM    H1S14489   5.959   4.924   6.222 -0.1254  0.4081  1.4021
  134OSM    H1T14490   6.112   5.021   6.234  0.7423  0.3454 -0.7741
  134OSM     NF14491   6.195   4.898   6.458 -0.5594 -0.0730 -0.2508
  134OSM    HNF14492   6.264   4.827   6.474  0.7017  0.9272 -1.1387
  134OSM    C2S14493   6.065   4.869   6.398 -0.0055  0.2305 -0.3906
  134OSM    H2S14494   5.990   4.932   6.451  0.5922  0.2911  0.3935
  134OSM    C3S14495   6.024   4.716   6.412 -0.2869  1.0324 -0.2419
  134OSM    H3S14496   6.079   4.655   6.337 -3.1376 -1.5745 -0.3381
  134OSM     O314497   5.883   4.694   6.389  0.3220  0.4697 -0.0806
  134OSM    HO314498   5.845   4.780   6.372  1.4975  0.9573 -0.3035
  134OSM    C4S14499   6.057   4.672   6.550 -0.5604 -0.3569 -0.2733
  134OSM    H4S14500   6.137   4.598   6.565 -1.2331 -1.2746 -1.1622
  134OSM    C5S14501   5.981   4.698   6.664 -0.5481  0.2269  0.3940
  134OSM    H5S14502   5.876   4.731   6.654 -1.2558 -1.9095  0.5174
  134OSM    C6S14503   6.009   4.656   6.808 -0.2803  0.0973 -0.0463
  134OSM    H6S14504   6.059   4.556   6.809  0.6541  0.5174  4.9642
  134OSM    H6T14505   5.914   4.628   6.859  0.1106 -0.7753  0.2062
  134OSM    C7S14506   6.086   4.761   6.889  0.3966  0.1716  0.0007
  134OSM    H7S14507   6.024   4.853   6.881 -1.0506 -0.9220 -1.8785
  134OSM    H7T14508   6.186   4.783   6.845  1.4192  0.5467  2.4664
  134OSM    C8S14509   6.108   4.717   7.037  0.0475 -0.1736 -0.4047
  134OSM    H8S14510   6.166   4.622   7.035 -1.1470 -0.9024 -0.9125
  134OSM    H8T14511   6.009   4.682   7.073  0.8155 -0.9554  1.0251
  134OSM    C9S14512   6.183   4.825   7.124 -0.0648  0.0572  0.8797
  134OSM    H9S14513   6.110   4.908   7.109  0.1550 -0.1654 -1.6443
  134OSM    H9T14514   6.270   4.859   7.063 -1.4233  3.2617  0.5947
  134OSM   C10S14515   6.214   4.790   7.272  0.5610  0.6243 -0.3026
  134OSM   H10S14516   6.121   4.757   7.324  1.1461 -1.0243 -0.2644
  134OSM   H10T14517   6.235   4.884   7.327  2.1057 -0.4488  1.0040
  134OSM   C11S14518   6.331   4.696   7.282  0.0132 -0.9353 -0.5417
  134OSM   H11S14519   6.414   4.735   7.219 -0.6702  0.8460 -0.3792
  134OSM   H11T14520   6.294   4.603   7.235 -0.1755 -0.2664 -1.7471
  134OSM   C12S14521   6.383   4.683   7.422 -0.0871  0.1488 -0.6349
  134OSM   H12S14522   6.307   4.622   7.476 -1.5043  0.5356 -2.1780
  134OSM   H12T14523   6.391   4.781   7.474  0.5328 -0.0251 -0.3863
  134OSM   C13S14524   6.516   4.598   7.420  0.5733 -0.0867  0.2833
  134OSM   H13S14525   6.576   4.641   7.337  1.4104  0.9093  1.3675
  134OSM   H13T14526   6.500   4.491   7.398  1.4463 -0.7231  2.6337
  134OSM   C14S14527   6.592   4.602   7.556  0.5884  0.2938  0.1895
  134OSM   H14S14528   6.526   4.565   7.637 -1.6443  1.9184 -0.8373
  134OSM   H14T14529   6.634   4.703   7.573 -1.0192  1.4377 -2.3031
  134OSM   C15S14530   6.705   4.496   7.573  0.7583 -0.2383  0.1016
  134OSM   H15S14531   6.791   4.516   7.505  0.5896 -0.9040 -0.3117
  134OSM   H15T14532   6.657   4.401   7.543 -0.5936 -0.1664  1.9827
  134OSM   C16S14533   6.759   4.467   7.715  0.3520 -0.2317  0.0035
  134OSM   H16S14534   6.674   4.424   7.772 -0.3526 -1.7182 -2.1206
  134OSM   H16T14535   6.813   4.549   7.767 -0.6953 -1.1547  2.6040
  134OSM   C17S14536   6.866   4.351   7.712 -0.9225  0.7966 -0.2913
  134OSM   H17S14537   6.952   4.384   7.649 -0.9965  0.0294 -0.8038
  134OSM   H17T14538   6.818   4.258   7.676  0.3195 -0.9259  2.4076
  134OSM   C18S14539   6.925   4.318   7.851 -0.4402  0.1914 -0.2024
  134OSM   H18S14540   6.844   4.313   7.927 -0.1571  1.5406  0.2012
  134OSM   H18T14541   6.996   4.396   7.887 -2.8028  3.5004 -2.4589
  134OSM   H18U14542   6.977   4.220   7.848 -0.5874  0.0877  0.5654
  134OSM    C1F14543   6.228   5.020   6.476  0.5294  0.8358 -0.8958
  134OSM     OF14544   6.143   5.105   6.467 -0.3428  0.9643 -0.1710
  134OSM    C2F14545   6.378   5.055   6.505 -0.2437 -0.2659  0.7155
  134OSM    H2F14546   6.422   5.087   6.408  0.5966  0.4349  1.3198
  134OSM    H2G14547   6.429   4.962   6.537  2.2404  1.5502  2.2172
  134OSM    C3F14548   6.400   5.170   6.609 -0.1326 -0.1803 -0.2936
  134OSM    H3F14549   6.350   5.265   6.582  1.0219  0.2979 -0.7556
  134OSM    H3G14550   6.509   5.183   6.622 -0.4523  1.6793  0.7196
  134OSM    C4F14551   6.347   5.132   6.741 -0.4168  0.0625  0.4152
  134OSM    H4F14552   6.370   5.026   6.761 -1.8035 -0.1153  1.0836
  134OSM    H4G14553   6.238   5.119   6.729 -0.3405  0.7768 -1.1100
  134OSM    C5F14554   6.384   5.232   6.852  0.6722  0.2209  0.0460
  134OSM    H5F14555   6.343   5.335   6.859  1.8672  0.6347  1.5696
  134OSM    H5G14556   6.491   5.260   6.859  0.3892  1.2245  0.4069
  134OSM    C6F14557   6.357   5.177   6.994  0.2120  0.6005 -0.9040
  134OSM    H6F14558   6.385   5.069   6.992  0.5563  0.5899  1.8245
  134OSM    H6G14559   6.248   5.179   7.018  0.5333  0.4453  0.6034
  134OSM    C7F14560   6.448   5.240   7.104  0.0923 -0.2103 -0.3507
  134OSM    H7F14561   6.419   5.344   7.128  1.7475  0.3503 -0.6513
  134OSM    H7G14562   6.555   5.239   7.073  0.8424 -0.0810  2.1747
  134OSM    C8F14563   6.441   5.161   7.238  0.1924  0.2045  0.2884
  134OSM    H8F14564   6.464   5.056   7.209  2.1547  1.0354 -1.3139
  134OSM    H8G14565   6.332   5.159   7.262 -0.0282  0.9180 -0.6384
  134OSM    C9F14566   6.532   5.211   7.345 -0.8286  0.1405  0.8894
  134OSM    H9F14567   6.518   5.316   7.378  1.7877  0.7324  0.2682
  134OSM   C10F14568   6.629   5.141   7.410 -0.7286 -0.1097 -0.5546
  134OSM   H10F14569   6.680   5.191   7.493  3.6808 -3.6384 -0.9589
  134OSM   C11F14570   6.672   4.998   7.393  0.1977  0.8111 -0.1510
  134OSM   H11F14571   6.588   4.928   7.379  1.4288 -1.2536  2.2260
  134OSM   H11G14572   6.713   4.955   7.487 -1.7661  2.3310  1.4352
  134OSM   C12F14573   6.771   4.987   7.273  0.1533  0.4897  0.6291
  134OSM   H12F14574   6.869   5.028   7.306  0.5071 -0.6488  1.0138
  134OSM   H12G14575   6.730   5.033   7.180 -0.4764  1.0875  1.1974
  134OSM   C13F14576   6.780   4.834   7.238  0.1848  0.0056  0.0426
  134OSM   H13F14577   6.675   4.798   7.230 -0.5167  1.7733  0.7747
  134OSM   H13G14578   6.828   4.788   7.326  2.3217 -0.7672 -1.4827
  134OSM   C14F14579   6.855   4.813   7.108 -0.0833 -0.4060  0.2095
  134OSM   H14F14580   6.878   4.705   7.097  1.0442  0.0222 -2.0241
  134OSM   H14G14581   6.953   4.865   7.117  0.6109 -1.6516  0.0428
  134OSM   C15F14582   6.779   4.850   6.982  0.2365 -0.3754  1.0077
  134OSM   H15F14583   6.852   4.848   6.898 -1.4435 -1.5272 -0.4780
  134OSM   H15G14584   6.734   4.952   6.983 -1.4571 -0.9458 -3.5575
  134OSM   C16F14585   6.687   4.738   6.938  0.0680 -0.1612  0.4934
  134OSM   H16F14586   6.607   4.725   7.014  0.7178  1.5932  1.5013
  134OSM   H16G14587   6.748   4.646   6.931 -0.9950 -0.6912 -2.6725
  134OSM   C17F14588   6.610   4.763   6.810  0.5123 -0.6765  0.0865
  134OSM   H17F14589   6.675   4.749   6.720 -0.4196 -1.4418 -0.4779
  134OSM   H17G14590   6.576   4.868   6.822 -0.6455 -1.1045  0.5973
  134OSM   C18F14591   6.494   4.666   6.791  0.6256  0.0803 -0.4107
  134OSM   H18F14592   6.530   4.561   6.781 -1.4416 -0.5381 -1.5843
  134OSM   H18G14593   6.438   4.692   6.699  0.3456  0.8316 -0.0344
  134OSM   H18H14594   6.417   4.674   6.870  1.3328 -1.5213  0.4615
  135OSM      N14595   5.815   5.463   5.837  0.9012  0.2227  0.0055
  135OSM    C1514596   5.690   5.480   5.929  0.4034  0.4592  0.1032
  135OSM   H15A14597   5.696   5.419   6.018  0.1346  1.7004  0.9899
  135OSM   H15B14598   5.600   5.452   5.876 -1.5665  1.4274  2.8312
  135OSM   H15C14599   5.686   5.583   5.963  0.3454  0.3879  0.3155
  135OSM    C1414600   5.809   5.322   5.779 -0.2524  0.3849 -0.2757
  135OSM   H14A14601   5.711   5.292   5.745  0.0482  2.4838 -3.1730
  135OSM   H14B14602   5.827   5.244   5.851 -3.0047 -0.9209 -0.9496
  135OSM   H14C14603   5.878   5.307   5.697 -0.4127 -4.9513  0.3566
  135OSM    C1314604   5.800   5.557   5.724 -0.0699  0.2019 -0.5559
  135OSM   H13A14605   5.812   5.658   5.760 -1.7488  0.5347 -0.8878
  135OSM   H13B14606   5.706   5.548   5.671 -0.0525  1.8062 -0.8957
  135OSM   H13C14607   5.879   5.539   5.653 -0.2260 -0.3748 -0.5857
  135OSM    C1214608   5.938   5.483   5.908 -0.0906 -0.2433  0.1422
  135OSM   H12A14609   6.011   5.490   5.829  1.0946 -2.7937  0.9340
  135OSM   H12B14610   5.964   5.402   5.975  2.2815  0.1085 -0.3193
  135OSM    C1114611   5.957   5.615   5.993  0.4699  0.6834  0.1508
  135OSM   H11A14612   6.043   5.594   6.060 -0.4127  0.5789  1.2580
  135OSM   H11B14613   5.874   5.633   6.064 -0.4187  0.3563 -0.7926
  135OSM      P14614   5.964   5.870   5.957 -0.6169  0.5766  0.3577
  135OSM    O1314615   6.002   5.967   5.846 -0.2046 -0.4159 -0.0626
  135OSM    O1414616   5.827   5.894   6.008  0.5873 -0.1470 -0.0035
  135OSM    O1114617   6.079   5.878   6.060 -0.1620 -0.6014  0.7567
  135OSM    O1214618   5.972   5.722   5.902 -1.1629 -0.3595  0.1702
  135OSM    C1S14619   6.050   5.929   6.191  0.4727  0.0540  0.8336
  135OSM    H1S14620   6.043   5.848   6.268  0.1890  0.3969  1.1674
  135OSM    H1T14621   5.957   5.989   6.199 -0.7698 -0.9727 -4.2696
  135OSM     NF14622   6.132   6.054   6.384  0.3045  0.1434  0.1438
  135OSM    HNF14623   6.104   6.147   6.409 -1.6661 -0.0352 -1.2912
  135OSM    C2S14624   6.169   6.011   6.252  0.4360  0.5018  0.0279
  135OSM    H2S14625   6.256   5.943   6.239  0.6120  0.9334 -1.1722
  135OSM    C3S14626   6.174   6.132   6.157 -0.2082  0.2163  0.2064
  135OSM    H3S14627   6.069   6.165   6.145 -0.3526 -0.7908 -1.3723
  135OSM     O314628   6.228   6.096   6.029 -0.2555 -0.4115  0.2490
  135OSM    HO314629   6.256   6.004   6.032  1.0673 -0.0231  0.1306
  135OSM    C4S14630   6.262   6.242   6.218  0.7665  0.2200  0.1787
  135OSM    H4S14631   6.215   6.340   6.236  0.2820 -0.0406  0.3523
  135OSM    C5S14632   6.391   6.234   6.259  0.8251  0.8371 -0.1592
  135OSM    H5S14633   6.446   6.139   6.247 -0.5224  0.1593 -1.0676
  135OSM    C6S14634   6.478   6.338   6.329 -0.1802 -0.4109 -0.2911
  135OSM    H6S14635   6.414   6.414   6.379 -2.2718 -1.1859 -1.7215
  135OSM    H6T14636   6.542   6.401   6.263  1.7412 -0.2212  1.6856
  135OSM    C7S14637   6.570   6.280   6.438  0.2864 -0.3032  0.0125
  135OSM    H7S14638   6.635   6.366   6.465 -1.9628  0.6702  2.5286
  135OSM    H7T14639   6.635   6.197   6.404  0.0591 -0.9486  1.1337
  135OSM    C8S14640   6.488   6.224   6.556  0.8506  1.4082  0.2915
  135OSM    H8S14641   6.436   6.130   6.529 -0.0469  1.4810  1.6871
  135OSM    H8T14642   6.416   6.300   6.593 -1.1385 -0.6665  0.7787
  135OSM    C9S14643   6.581   6.177   6.665 -0.6189 -0.5965 -0.4503
  135OSM    H9S14644   6.528   6.190   6.762  0.6787  2.4164 -0.0803
  135OSM    H9T14645   6.672   6.241   6.675  0.0189 -0.8124 -4.4100
  135OSM   C10S14646   6.626   6.031   6.648  0.1579 -0.3296  0.2732
  135OSM   H10S14647   6.712   6.023   6.578  0.7644 -1.8193  1.1598
  135OSM   H10T14648   6.543   5.972   6.603 -0.0247  0.6183 -0.6651
  135OSM   C11S14649   6.662   5.951   6.778 -0.5401  0.2572 -0.0808
  135OSM   H11S14650   6.745   6.016   6.814  0.0685  0.0356 -1.0617
  135OSM   H11T14651   6.696   5.849   6.750 -1.8758 -0.0647 -0.5606
  135OSM   C12S14652   6.551   5.938   6.883 -0.2324  0.1117 -0.4108
  135OSM   H12S14653   6.455   5.913   6.833 -1.1117  2.3103  0.1130
  135OSM   H12T14654   6.530   6.034   6.936 -1.8381 -0.8834  0.7990
  135OSM   C13S14655   6.575   5.819   6.976  0.4029 -0.0257  0.1575
  135OSM   H13S14656   6.681   5.820   7.010  0.4682  2.6215 -0.0080
  135OSM   H13T14657   6.563   5.722   6.924  0.3408  0.8292 -1.4585
  135OSM   C14S14658   6.481   5.820   7.099  0.0751 -0.2278 -0.7330
  135OSM   H14S14659   6.375   5.840   7.071  0.1277  1.8612  0.4174
  135OSM   H14T14660   6.500   5.910   7.162 -2.4750 -0.9384  1.1510
  135OSM   C15S14661   6.501   5.705   7.189 -1.1441  0.3502 -0.0074
  135OSM   H15S14662   6.610   5.687   7.205 -1.7885 -2.7006  1.1958
  135OSM   H15T14663   6.457   5.615   7.141 -0.4640  0.4650 -0.8588
  135OSM   C16S14664   6.436   5.719   7.327  0.0218 -0.0097 -0.0316
  135OSM   H16S14665   6.327   5.709   7.307  0.4233  0.9768 -2.9878
  135OSM   H16T14666   6.461   5.817   7.371 -1.6582  0.8106 -0.8401
  135OSM   C17S14667   6.479   5.600   7.423  0.9272  0.2333  0.3391
  135OSM   H17S14668   6.590   5.612   7.432  0.7333  1.2618  1.5298
  135OSM   H17T14669   6.446   5.512   7.365 -2.4934  1.3570  0.4819
  135OSM   C18S14670   6.416   5.605   7.560 -0.2395  0.0428 -0.0600
  135OSM   H18S14671   6.461   5.536   7.634 -0.0233 -1.6302 -1.6955
  135OSM   H18T14672   6.307   5.596   7.542 -0.6435  3.3111  0.5354
  135OSM   H18U14673   6.428   5.706   7.603 -1.6795  0.6053 -0.9283
  135OSM    C1F14674   6.159   5.970   6.486  0.6594  0.5136  0.0993
  135OSM     OF14675   6.227   5.871   6.478  0.7936 -0.4381 -1.0656
  135OSM    C2F14676   6.108   6.011   6.615  0.0886  0.5777 -0.4230
  135OSM    H2F14677   6.043   6.099   6.602  0.6803  1.4949  2.5797
  135OSM    H2G14678   6.185   6.050   6.685  1.7411 -0.1375 -1.8045
  135OSM    C3F14679   6.025   5.903   6.684  0.5913 -0.3807 -0.0697
  135OSM    H3F14680   6.089   5.817   6.713  0.7723 -0.1623  0.1662
  135OSM    H3G14681   5.945   5.875   6.612  0.9132 -1.9187  0.1413
  135OSM    C4F14682   5.967   5.955   6.818 -0.5610  0.8416  0.7353
  135OSM    H4F14683   5.903   5.873   6.857 -0.8342  1.2359  1.1113
  135OSM    H4G14684   5.899   6.042   6.807 -2.4816 -0.8289 -1.4426
  135OSM    C5F14685   6.084   5.983   6.922 -0.0823 -0.2060  1.0629
  135OSM    H5F14686   6.126   6.084   6.907  1.0049 -0.9814 -1.3657
  135OSM    H5G14687   6.170   5.915   6.905  0.6799  1.2342 -0.8446
  135OSM    C6F14688   6.052   5.955   7.067  0.3879 -0.4562 -0.6229
  135OSM    H6F14689   5.953   5.992   7.102  1.3224  0.4475  1.2089
  135OSM    H6G14690   6.124   6.016   7.127  0.3628 -1.2927  0.2702
  135OSM    C7F14691   6.056   5.811   7.118  0.0686 -0.0154  0.1496
  135OSM    H7F14692   6.153   5.765   7.086  0.1642 -0.7138  1.3923
  135OSM    H7G14693   5.984   5.744   7.066  0.5350 -1.8055  1.7371
  135OSM    C8F14694   6.045   5.791   7.264 -0.5054 -0.0167 -0.8078
  135OSM    H8F14695   6.121   5.846   7.324  1.5389 -1.1650 -2.2704
  135OSM    H8G14696   6.066   5.685   7.288  0.9122  0.7438  1.4840
  135OSM    C9F14697   5.909   5.812   7.319  0.2565 -0.6930 -0.1424
  135OSM    H9F14698   5.834   5.839   7.243  3.8034  0.1045 -3.4961
  135OSM   C10F14699   5.874   5.805   7.450 -0.1176 -0.6074 -0.2472
  135OSM   H10F14700   5.776   5.842   7.483 -0.7102 -1.2448 -1.2852
  135OSM   C11F14701   5.965   5.775   7.568 -0.1407  0.5273 -0.3548
  135OSM   H11F14702   5.966   5.863   7.635  0.7121  0.3257 -0.0923
  135OSM   H11G14703   6.071   5.744   7.553 -0.6669 -0.7371 -1.6172
  135OSM   C12F14704   5.929   5.663   7.669 -0.3524 -0.1475 -0.0566
  135OSM   H12F14705   5.935   5.565   7.616  0.5623 -0.1848  0.0986
  135OSM   H12G14706   5.826   5.680   7.706 -1.5026 -0.6871 -2.8738
  135OSM   C13F14707   6.030   5.638   7.784 -0.5774 -1.3514  0.1577
  135OSM   H13F14708   6.047   5.735   7.836 -0.0327 -1.7795  0.7793
  135OSM   H13G14709   6.119   5.597   7.732 -0.5992 -0.1440 -0.8673
  135OSM   C14F14710   5.989   5.536   7.883 -0.3655 -0.2437  0.0111
  135OSM   H14F14711   6.076   5.478   7.920  0.5620  0.6650 -0.7018
  135OSM   H14G14712   5.924   5.463   7.829  1.8321 -2.0898 -0.1787
  135OSM   C15F14713   5.914   5.611   7.992 -0.4163 -0.5572 -0.1424
  135OSM   H15F14714   5.830   5.671   7.950 -0.5810  0.0741  1.0502
  135OSM   H15G14715   5.981   5.675   8.053 -1.0537 -1.0729  1.1122
  135OSM   C16F14716   5.856   5.502   8.083  0.1317  0.7642  0.0579
  135OSM   H16F14717   5.930   5.438   8.136 -0.5650  0.8871  1.1865
  135OSM   H16G14718   5.797   5.429   8.024  1.2927 -0.4420  0.3443
  135OSM   C17F14719   5.763   5.555   8.191  0.8010  0.0053 -0.5217
  135OSM   H17F14720   5.665   5.582   8.147  0.3055 -2.6024 -1.1184
  135OSM   H17G14721   5.809   5.634   8.254  0.5838  0.2547 -0.6783
  135OSM   C18F14722   5.736   5.437   8.290 -0.1077 -0.2522  0.1404
  135OSM   H18F14723   5.693   5.351   8.235  0.4583  0.2125 -1.0540
  135OSM   H18G14724   5.661   5.454   8.371  0.2230  1.7112  0.0663
  135OSM   H18H14725   5.832   5.413   8.341 -1.0879  0.3760  2.3677
  136OSM      N14726   4.226   6.633   5.400  0.2577  0.2697 -0.6321
  136OSM    C1514727   4.216   6.594   5.259 -0.2888  0.1370  0.6570
  136OSM   H15A14728   4.289   6.635   5.191  0.0604  1.8745  2.0670
  136OSM   H15B14729   4.119   6.600   5.211 -0.4709 -1.0773  0.8442
  136OSM   H15C14730   4.231   6.487   5.262 -0.7154  0.1338  3.4030
  136OSM    C1414731   4.364   6.602   5.451  0.5412  0.0002 -0.6870
  136OSM   H14A14732   4.393   6.499   5.439  2.4587  0.3175  0.9873
  136OSM   H14B14733   4.375   6.617   5.557  0.0196 -0.3434 -0.5857
  136OSM   H14C14734   4.432   6.674   5.409  2.0510 -0.6239  0.6310
  136OSM    C1314735   4.185   6.773   5.430 -0.8943 -0.4009  0.3109
  136OSM   H13A14736   4.213   6.802   5.530  1.5057  0.1941 -0.5062
  136OSM   H13B14737   4.081   6.792   5.407 -0.6578  0.1877 -0.2720
  136OSM   H13C14738   4.233   6.836   5.357 -1.2054 -0.1637  0.3085
  136OSM    C1214739   4.125   6.547   5.480  0.7435 -0.0081  0.2588
  136OSM   H12A14740   4.132   6.442   5.460 -1.1690 -0.1747  0.3794
  136OSM   H12B14741   4.024   6.571   5.450  0.8397  0.8314  0.5678
  136OSM    C1114742   4.133   6.565   5.632 -0.2148 -0.4580 -0.1607
  136OSM   H11A14743   4.216   6.506   5.676  0.5592 -0.2424 -1.2990
  136OSM   H11B14744   4.044   6.509   5.667 -2.9702  2.7234 -1.7750
  136OSM      P14745   4.196   6.734   5.821 -0.1575  0.2019  0.0620
  136OSM    O1314746   4.342   6.739   5.805  0.6807 -0.5876  0.2213
  136OSM    O1414747   4.135   6.861   5.867 -0.0789  0.3921 -0.3234
  136OSM    O1114748   4.158   6.611   5.915  0.5013 -0.1128  0.3252
  136OSM    O1214749   4.128   6.701   5.679 -0.6497  0.0194 -0.0265
  136OSM    C1S14750   4.019   6.587   5.943  0.3232  0.5764 -0.5768
  136OSM    H1S14751   3.987   6.504   5.876  1.0744  0.0975 -0.3443
  136OSM    H1T14752   3.957   6.678   5.931  0.4156  0.4267 -2.2541
  136OSM     NF14753   4.031   6.655   6.185 -0.2663  0.0599  0.1687
  136OSM    HNF14754   4.113   6.647   6.241 -1.5718  0.0828  2.1201
  136OSM    C2S14755   4.004   6.536   6.093 -0.0960  0.0949  0.3868
  136OSM    H2S14756   3.899   6.501   6.097  0.9318 -3.7077 -2.9091
  136OSM    C3S14757   4.092   6.417   6.112  0.7175 -0.7249  0.9256
  136OSM    H3S14758   4.198   6.441   6.090  1.2787 -1.8480  2.3061
  136OSM     O314759   4.050   6.322   6.015  0.2667  0.1860 -0.1050
  136OSM    HO314760   3.973   6.363   5.975  0.1055  1.5593  1.5579
  136OSM    C4S14761   4.078   6.358   6.253 -0.0388 -0.0429 -0.3978
  136OSM    H4S14762   3.973   6.332   6.273  0.2764 -0.0450  1.2450
  136OSM    C5S14763   4.184   6.346   6.340 -0.2468 -0.4831 -0.1823
  136OSM    H5S14764   4.276   6.397   6.308 -1.5183  2.0012  0.0328
  136OSM    C6S14765   4.169   6.293   6.479  0.0124 -0.3552  0.9889
  136OSM    H6S14766   4.253   6.224   6.503  1.0953  0.8646  0.8294
  136OSM    H6T14767   4.079   6.229   6.489  1.0123 -1.5644  2.4816
  136OSM    C7S14768   4.159   6.405   6.582 -0.4280  0.0465  0.4294
  136OSM    H7S14769   4.103   6.499   6.562  0.8804  0.5010 -1.1746
  136OSM    H7T14770   4.263   6.443   6.591 -0.9231  0.9536  2.5679
  136OSM    C8S14771   4.120   6.355   6.723  0.7300 -0.4840 -0.2014
  136OSM    H8S14772   4.187   6.274   6.758  0.1938 -0.6489  0.4571
  136OSM    H8T14773   4.016   6.318   6.716  1.0607 -1.0591 -2.4784
  136OSM    C9S14774   4.134   6.456   6.833 -0.6772 -0.1627  0.4899
  136OSM    H9S14775   4.108   6.393   6.921 -0.5974 -2.2533 -0.9447
  136OSM    H9T14776   4.070   6.547   6.837  2.5732  2.1342  2.3574
  136OSM   C10S14777   4.288   6.492   6.843  0.9084  0.2221  0.1246
  136OSM   H10S14778   4.311   6.575   6.773  1.0347  0.3699  0.3415
  136OSM   H10T14779   4.356   6.408   6.818 -1.0705 -1.1111 -0.9248
  136OSM   C11S14780   4.342   6.532   6.991  0.3651 -0.4276 -0.4125
  136OSM   H11S14781   4.322   6.447   7.060  2.2005 -0.0604  0.5923
  136OSM   H11T14782   4.280   6.612   7.037  0.2350 -0.3273 -0.7635
  136OSM   C12S14783   4.490   6.562   6.985  0.4774 -0.2901  0.5209
  136OSM   H12S14784   4.508   6.634   6.902  0.4046  0.0325  0.7851
  136OSM   H12T14785   4.558   6.480   6.954  0.3232 -0.0101 -0.5818
  136OSM   C13S14786   4.538   6.630   7.117 -0.4762 -0.2446 -0.2260
  136OSM   H13S14787   4.463   6.700   7.158  0.8111  0.3085  1.2430
  136OSM   H13T14788   4.620   6.702   7.094 -1.8373  0.3121 -3.6540
  136OSM   C14S14789   4.588   6.531   7.221 -0.3739  0.4647  0.2741
  136OSM   H14S14790   4.669   6.467   7.179 -0.8200  0.4724 -0.5957
  136OSM   H14T14791   4.504   6.461   7.239  2.3105 -2.7971  0.8793
  136OSM   C15S14792   4.616   6.596   7.362  0.4819  0.2322  0.2264
  136OSM   H15S14793   4.528   6.640   7.413 -0.2528 -1.8740  0.8410
  136OSM   H15T14794   4.679   6.684   7.336  0.9656  0.1363  1.0529
  136OSM   C16S14795   4.696   6.511   7.457  0.5552 -0.5276 -0.2231
  136OSM   H16S14796   4.801   6.502   7.420  1.4225 -2.1109  2.4344
  136OSM   H16T14797   4.652   6.409   7.463  0.1050 -0.4754 -2.1930
  136OSM   C17S14798   4.702   6.569   7.602  0.6704  0.4498  0.1536
  136OSM   H17S14799   4.744   6.484   7.660  1.4154 -1.4192 -3.0105
  136OSM   H17T14800   4.601   6.583   7.647  0.6887  0.7518  0.0993
  136OSM   C18S14801   4.790   6.701   7.624 -0.0257  0.3362 -0.2904
  136OSM   H18S14802   4.794   6.733   7.730 -1.0488  0.1596 -0.1912
  136OSM   H18T14803   4.742   6.786   7.572  0.4787  0.9757  0.2884
  136OSM   H18U14804   4.892   6.695   7.579 -0.4002  1.3559 -1.2925
  136OSM    C1F14805   3.954   6.760   6.206 -0.0577  0.0713 -0.0279
  136OSM     OF14806   3.854   6.786   6.140  0.0910 -0.1469  0.4357
  136OSM    C2F14807   3.990   6.842   6.333  0.5658  0.1597 -0.3989
  136OSM    H2F14808   4.004   6.949   6.308 -2.6642  0.8832  0.6203
  136OSM    H2G14809   4.086   6.797   6.366 -0.6203 -1.6849  0.6346
  136OSM    C3F14810   3.876   6.840   6.438  0.7866 -0.1016  0.0324
  136OSM    H3F14811   3.847   6.739   6.473 -0.3065  0.1593 -0.1152
  136OSM    H3G14812   3.787   6.883   6.388 -0.1473 -1.6368  0.3593
  136OSM    C4F14813   3.904   6.916   6.572 -1.0934  0.8484 -0.5039
  136OSM    H4F14814   3.944   7.015   6.542  0.4088  0.8839  1.5429
  136OSM    H4G14815   3.991   6.864   6.617 -0.7148  2.6545  0.9089
  136OSM    C5F14816   3.796   6.922   6.682 -0.2510 -0.7648 -0.1898
  136OSM    H5F14817   3.750   6.822   6.699  0.2860 -0.8046  1.0948
  136OSM    H5G14818   3.712   6.986   6.649 -0.4759 -0.1307  1.5353
  136OSM    C6F14819   3.840   6.982   6.812 -0.0533 -0.4586  0.1374
  136OSM    H6F14820   3.870   7.089   6.807  1.3676 -0.7485  1.9892
  136OSM    H6G14821   3.928   6.922   6.845  1.2774  0.8639 -0.9308
  136OSM    C7F14822   3.724   6.963   6.914 -0.0968 -0.1371 -0.1191
  136OSM    H7F14823   3.706   6.854   6.923  0.4978 -0.1876  0.5515
  136OSM    H7G14824   3.630   7.004   6.872  0.1227 -1.1021 -1.5453
  136OSM    C8F14825   3.750   7.032   7.045 -0.1063  0.4328  0.2076
  136OSM    H8F14826   3.654   7.042   7.099  0.6368 -2.2814  2.1327
  136OSM    H8G14827   3.787   7.136   7.033 -2.0125  0.9798 -1.2390
  136OSM    C9F14828   3.841   6.946   7.124  0.3762 -0.2176 -0.6626
  136OSM    H9F14829   3.946   6.967   7.097  0.1290  0.0079 -1.4535
  136OSM   C10F14830   3.816   6.851   7.219  0.0790 -0.0341 -0.7190
  136OSM   H10F14831   3.899   6.798   7.269  0.2451  1.1834  0.3293
  136OSM   C11F14832   3.678   6.807   7.263  0.0912  0.3051  0.4841
  136OSM   H11F14833   3.623   6.763   7.177 -2.2375  0.9843  1.5848
  136OSM   H11G14834   3.619   6.896   7.295 -0.5921  0.4507 -1.1584
  136OSM   C12F14835   3.684   6.691   7.369 -0.4919  0.2343  0.1689
  136OSM   H12F14836   3.734   6.728   7.462  1.0218 -0.1760 -0.4587
  136OSM   H12G14837   3.744   6.604   7.334  1.3810  1.4689  0.2255
  136OSM   C13F14838   3.551   6.628   7.405  0.2889  0.7732 -0.5320
  136OSM   H13F14839   3.516   6.567   7.319  1.9713  1.0346 -1.4231
  136OSM   H13G14840   3.470   6.704   7.401 -0.7316 -0.1832  1.2825
  136OSM   C14F14841   3.550   6.548   7.541  0.0632 -0.3334  0.2290
  136OSM   H14F14842   3.642   6.487   7.552 -0.0613 -0.4942  0.3681
  136OSM   H14G14843   3.453   6.496   7.558  1.4992 -2.7643  1.2700
  136OSM   C15F14844   3.564   6.648   7.661  0.3881 -0.0483 -0.3387
  136OSM   H15F14845   3.663   6.698   7.650  0.2598  0.8083  2.0375
  136OSM   H15G14846   3.562   6.582   7.751  3.4660 -1.1469 -1.0072
  136OSM   C16F14847   3.445   6.751   7.672 -0.2455 -0.2919 -0.2279
  136OSM   H16F14848   3.361   6.698   7.622 -1.2986  0.1970  0.9942
  136OSM   H16G14849   3.468   6.841   7.612 -0.0327  0.6302  1.2237
  136OSM   C17F14850   3.416   6.808   7.807  0.2587  0.3057  0.4694
  136OSM   H17F14851   3.368   6.906   7.787 -4.6317 -2.0780 -0.1737
  136OSM   H17G14852   3.511   6.829   7.859  0.9609  0.5961 -0.8972
  136OSM   C18F14853   3.329   6.712   7.889 -0.3771 -0.1235 -0.0554
  136OSM   H18F14854   3.236   6.691   7.834 -0.9849  0.4900  0.7150
  136OSM   H18G14855   3.300   6.736   7.994  0.8965 -0.1539  0.3170
  136OSM   H18H14856   3.391   6.620   7.883  1.7259  1.0938  1.9054
  137OSM      N14857   0.756   4.896   5.959 -0.0191  0.1089 -0.3604
  137OSM    C1514858   0.745   4.754   6.000  0.0645  0.0664 -0.7031
  137OSM   H15A14859   0.786   4.689   5.924  0.8422  0.6244 -0.7658
  137OSM   H15B14860   0.640   4.731   6.005  0.4901 -1.7399  0.7386
  137OSM   H15C14861   0.797   4.744   6.095  0.5297  0.0862 -0.9510
  137OSM    C1414862   0.710   4.983   6.075 -0.2735 -0.0076  0.0223
  137OSM   H14A14863   0.682   5.084   6.048 -2.4802 -0.0198  2.0914
  137OSM   H14B14864   0.777   4.975   6.159 -2.3448 -1.2892  1.5868
  137OSM   H14C14865   0.617   4.938   6.105  0.6413 -0.7091  1.8767
  137OSM    C1314866   0.903   4.937   5.934  0.2226  0.1320  0.6297
  137OSM   H13A14867   0.962   4.913   6.021  0.4342  1.8480  0.9842
  137OSM   H13B14868   0.922   5.037   5.897 -1.3124 -0.9277 -3.2907
  137OSM   H13C14869   0.942   4.879   5.852  2.1876  2.7858 -0.3795
  137OSM    C1214870   0.662   4.925   5.846 -0.0875  0.5086 -0.0085
  137OSM   H12A14871   0.693   4.851   5.774 -0.5798 -0.3613  0.6656
  137OSM   H12B14872   0.682   5.028   5.818 -0.4354  0.5433 -0.1297
  137OSM    C1114873   0.510   4.909   5.868  0.1791  0.1557 -0.0677
  137OSM   H11A14874   0.462   4.916   5.769 -2.0870 -1.2501  0.8944
  137OSM   H11B14875   0.473   4.994   5.930  0.3550  0.9298 -1.0153
  137OSM      P14876   0.356   4.762   6.010  0.3981 -0.0876 -0.0437
  137OSM    O1314877   0.386   4.816   6.146  0.4094 -0.0023 -0.3139
  137OSM    O1414878   0.237   4.818   5.942 -0.8636  0.3801  0.5637
  137OSM    O1114879   0.336   4.600   6.026  0.3497 -0.0821 -0.2514
  137OSM    O1214880   0.476   4.784   5.915  0.4882  0.6554 -0.0420
  137OSM    C1S14881   0.454   4.508   6.038 -0.2411 -0.0488  0.0412
  137OSM    H1S14882   0.545   4.568   6.021  1.1019 -2.1444 -0.3849
  137OSM    H1T14883   0.442   4.431   5.959 -1.5949  0.4516 -0.2661
  137OSM     NF14884   0.577   4.365   6.184 -0.2733 -0.5033  0.1969
  137OSM    HNF14885   0.571   4.266   6.169 -1.5350 -0.2066 -1.4316
  137OSM    C2S14886   0.465   4.449   6.178 -0.4531 -0.1786 -0.5132
  137OSM    H2S14887   0.468   4.532   6.252 -2.3553 -1.2318  0.7728
  137OSM    C3S14888   0.329   4.371   6.225 -0.1136 -0.2230 -0.0738
  137OSM    H3S14889   0.299   4.301   6.144 -1.0224 -0.3990  0.4092
  137OSM     O314890   0.217   4.463   6.245 -0.1206 -0.0351 -0.1047
  137OSM    HO314891   0.250   4.543   6.204  2.3200 -1.4036 -0.8843
  137OSM    C4S14892   0.362   4.315   6.354  0.1874  0.0667  0.0794
  137OSM    H4S14893   0.376   4.393   6.430 -0.7570  0.7436 -0.4387
  137OSM    C5S14894   0.360   4.183   6.386  0.2053 -0.4841  0.3173
  137OSM    H5S14895   0.340   4.108   6.307 -2.2620 -1.3144  1.6751
  137OSM    C6S14896   0.403   4.125   6.516 -0.2976  0.4391 -0.3024
  137OSM    H6S14897   0.509   4.091   6.519 -0.0484  1.2933  0.7726
  137OSM    H6T14898   0.346   4.031   6.534  1.7629 -0.6172  0.9186
  137OSM    C7S14899   0.382   4.198   6.643  0.9115  0.0041  0.1395
  137OSM    H7S14900   0.272   4.187   6.658  0.8283 -0.4737 -0.7775
  137OSM    H7T14901   0.397   4.308   6.647 -0.7156  0.2745 -0.7846
  137OSM    C8S14902   0.462   4.144   6.765 -0.9673  0.6669 -0.3287
  137OSM    H8S14903   0.570   4.128   6.742 -1.6375 -1.9084 -1.9180
  137OSM    H8T14904   0.418   4.044   6.786 -1.3836  0.4936 -1.9843
  137OSM    C9S14905   0.427   4.220   6.898 -0.1494  0.5933  0.0456
  137OSM    H9S14906   0.317   4.231   6.911 -0.3343  0.2984 -1.1857
  137OSM    H9T14907   0.467   4.324   6.896 -0.4667  0.7642  1.6898
  137OSM   C10S14908   0.498   4.151   7.020  0.4063  0.2221 -0.1727
  137OSM   H10S14909   0.597   4.113   6.988  0.8715  3.8501 -3.4837
  137OSM   H10T14910   0.423   4.073   7.046 -1.2033  1.6024 -0.5799
  137OSM   C11S14911   0.515   4.234   7.149 -0.1446 -0.1733  0.2553
  137OSM   H11S14912   0.412   4.240   7.192 -1.1061 -0.0644 -2.0019
  137OSM   H11T14913   0.553   4.336   7.129 -0.3639  0.3260  2.3262
  137OSM   C12S14914   0.598   4.168   7.252  0.2622  0.0256 -0.0350
  137OSM   H12S14915   0.554   4.067   7.267 -2.8438  1.4442  1.0066
  137OSM   H12T14916   0.587   4.231   7.343  1.5002 -2.9970  2.2716
  137OSM   C13S14917   0.746   4.171   7.216  0.7543 -0.4151 -0.8535
  137OSM   H13S14918   0.770   4.277   7.193 -1.9354  1.0255  2.5484
  137OSM   H13T14919   0.756   4.103   7.128  0.9615 -0.7072 -0.6060
  137OSM   C14S14920   0.820   4.107   7.336 -0.2426 -0.3433 -0.4332
  137OSM   H14S14921   0.765   4.014   7.361 -0.1149  0.1847  1.9458
  137OSM   H14T14922   0.801   4.161   7.431  0.9352 -1.8751  0.6987
  137OSM   C15S14923   0.972   4.081   7.321 -0.2435  0.0048  0.3123
  137OSM   H15S14924   1.022   4.180   7.311  0.3259 -0.3446 -0.3181
  137OSM   H15T14925   1.002   4.011   7.241 -0.0150  0.2559  0.1777
  137OSM   C16S14926   1.029   4.028   7.449 -0.7446  0.5543  0.2551
  137OSM   H16S14927   0.983   3.945   7.508 -0.3208 -0.3506 -0.6683
  137OSM   H16T14928   1.018   4.115   7.517  0.6988  1.5799 -0.7928
  137OSM   C17S14929   1.174   3.981   7.451 -0.4403  0.0051 -0.2650
  137OSM   H17S14930   1.253   4.047   7.410 -1.2237  0.9559 -0.2597
  137OSM   H17T14931   1.178   3.900   7.374 -1.0605 -0.0800 -0.2090
  137OSM   C18S14932   1.205   3.915   7.584  0.2886 -0.0127  0.0684
  137OSM   H18S14933   1.314   3.897   7.592  0.6730  3.1730  2.7059
  137OSM   H18T14934   1.153   3.816   7.589  2.3546 -1.2353 -1.7198
  137OSM   H18U14935   1.165   3.976   7.668 -1.5328 -2.3951  0.9967
  137OSM    C1F14936   0.700   4.407   6.203  0.4677  1.3127  0.5881
  137OSM     OF14937   0.725   4.531   6.211  0.0351  0.0387  0.3094
  137OSM    C2F14938   0.818   4.315   6.199  0.3349  0.4104  0.3015
  137OSM    H2F14939   0.911   4.367   6.168  0.3720  0.8509  1.1162
  137OSM    H2G14940   0.794   4.243   6.118  1.7631  0.2400  0.0089
  137OSM    C3F14941   0.839   4.227   6.324 -0.7565  0.1303 -0.4151
  137OSM    H3F14942   0.936   4.178   6.303 -1.2037  0.0537 -2.4133
  137OSM    H3G14943   0.757   4.152   6.328  0.2700 -1.0309 -0.8754
  137OSM    C4F14944   0.850   4.303   6.451 -0.2086  0.3680 -0.0168
  137OSM    H4F14945   0.752   4.353   6.469 -1.8873 -2.3343 -1.2696
  137OSM    H4G14946   0.930   4.380   6.445  0.7947 -0.8338 -2.9308
  137OSM    C5F14947   0.883   4.214   6.576  0.1582 -0.1099  0.5570
  137OSM    H5F14948   0.975   4.159   6.544 -0.2689  0.2513 -1.3312
  137OSM    H5G14949   0.809   4.135   6.600  0.2508 -0.5208 -0.4992
  137OSM    C6F14950   0.913   4.299   6.699 -0.2590  0.1954  0.1780
  137OSM    H6F14951   0.848   4.389   6.689 -0.9372 -0.3731 -0.6104
  137OSM    H6G14952   1.018   4.333   6.702  0.0753 -0.7374 -0.6203
  137OSM    C7F14953   0.872   4.236   6.837 -0.4566  0.6393  0.2179
  137OSM    H7F14954   0.901   4.129   6.834 -0.0206  0.7820 -1.3605
  137OSM    H7G14955   0.763   4.229   6.854 -0.0242  0.1043  3.0918
  137OSM    C8F14956   0.937   4.309   6.963  0.5579  0.1131  1.0921
  137OSM    H8F14957   1.035   4.341   6.922 -0.5548  0.4204 -1.4491
  137OSM    H8G14958   0.962   4.242   7.047 -0.3278  1.3405  2.3491
  137OSM    C9F14959   0.874   4.439   7.002 -0.0161  0.1766 -0.0796
  137OSM    H9F14960   0.788   4.466   6.939 -1.2153  0.3776  1.6216
  137OSM   C10F14961   0.913   4.522   7.097  0.0116  0.1855 -1.0004
  137OSM   H10F14962   0.859   4.618   7.103 -0.1897  0.0888 -1.2288
  137OSM   C11F14963   1.030   4.491   7.185  0.0628  0.6123  0.8511
  137OSM   H11F14964   1.114   4.484   7.113 -0.8838  0.1058 -0.2124
  137OSM   H11G14965   1.014   4.396   7.239  1.0771 -0.5582 -0.8849
  137OSM   C12F14966   1.060   4.597   7.287  0.2149  0.4437 -0.2119
  137OSM   H12F14967   1.074   4.699   7.245 -0.8826  1.4160  1.7250
  137OSM   H12G14968   1.141   4.552   7.350  0.3878 -0.8417 -1.3327
  137OSM   C13F14969   0.942   4.615   7.380  0.1494 -0.0555  0.0752
  137OSM   H13F14970   0.863   4.670   7.323  0.5111 -2.5088 -2.9651
  137OSM   H13G14971   0.970   4.675   7.469 -0.2408  0.5989 -0.2312
  137OSM   C14F14972   0.898   4.484   7.446 -0.6712 -1.0972  0.4134
  137OSM   H14F14973   0.987   4.426   7.480  0.6812  0.3581 -0.6293
  137OSM   H14G14974   0.837   4.435   7.366  1.4546 -2.4046 -0.4413
  137OSM   C15F14975   0.822   4.519   7.575 -0.1748 -0.5574 -0.6646
  137OSM   H15F14976   0.762   4.606   7.541 -0.8486  0.2138  2.4087
  137OSM   H15G14977   0.886   4.548   7.661  0.5184 -2.4970 -0.4967
  137OSM   C16F14978   0.723   4.408   7.617 -0.2704 -0.0372  0.5876
  137OSM   H16F14979   0.772   4.320   7.663  0.3705 -1.0013 -1.8889
  137OSM   H16G14980   0.689   4.358   7.524  1.3369  1.0192 -0.6188
  137OSM   C17F14981   0.597   4.457   7.693  0.2512 -0.0373  0.0769
  137OSM   H17F14982   0.540   4.369   7.730  0.3014  0.4699  1.3674
  137OSM   H17G14983   0.550   4.508   7.606  1.3262 -0.6700 -0.8986
  137OSM   C18F14984   0.610   4.557   7.806 -0.7160 -0.0834  0.0605
  137OSM   H18F14985   0.654   4.514   7.899  0.4077  0.9149 -0.0075
  137OSM   H18G14986   0.509   4.603   7.817  0.2550  3.1764 -3.7391
  137OSM   H18H14987   0.679   4.632   7.764  0.8346 -1.3826  0.2648
  138OSM      N14988   1.615   5.663   5.543 -0.0524  0.0507  0.7411
  138OSM    C1514989   1.751   5.605   5.573 -0.3610 -0.1464  0.5375
  138OSM   H15A14990   1.804   5.566   5.487 -1.6351 -1.9891  0.5549
  138OSM   H15B14991   1.740   5.527   5.647  0.3640 -2.2519 -1.4922
  138OSM   H15C14992   1.809   5.678   5.629 -3.5533  2.7607  0.2105
  138OSM    C1414993   1.626   5.796   5.470 -0.0730  0.5480 -0.3019
  138OSM   H14A14994   1.534   5.844   5.441  0.5732  1.1299 -1.4240
  138OSM   H14B14995   1.679   5.789   5.376 -0.3314 -0.1227 -0.4047
  138OSM   H14C14996   1.688   5.862   5.529 -0.0950 -1.4765  2.0632
  138OSM    C1314997   1.545   5.573   5.444 -0.3396 -0.0555  0.3459
  138OSM   H13A14998   1.443   5.604   5.459 -0.7898 -0.1776 -2.2267
  138OSM   H13B14999   1.556   5.473   5.482 -1.7788 -0.6729 -0.8201
  138OSM   H13C15000   1.586   5.594   5.346 -2.3401 -1.4873 -0.8178
  138OSM    C1215001   1.542   5.674   5.670  0.8007  0.4683  0.1018
  138OSM   H12A15002   1.463   5.748   5.671 -0.4075 -0.8157  1.6101
  138OSM   H12B15003   1.612   5.709   5.745  1.6246 -3.9439  1.5204
  138OSM    C1115004   1.484   5.535   5.727 -0.9894 -0.6630  0.3113
  138OSM   H11A15005   1.425   5.479   5.651  0.8925 -0.5264 -1.3140
  138OSM   H11B15006   1.413   5.559   5.808  0.0900  1.0187  0.7755
  138OSM      P15007   1.665   5.495   5.899  0.2095  0.2403  0.0891
  138OSM    O1315008   1.758   5.386   5.936  0.2361 -0.4866  0.8690
  138OSM    O1415009   1.732   5.622   5.892 -0.0882 -0.6550 -0.0866
  138OSM    O1115010   1.551   5.501   6.006 -0.3620  0.5340  0.0248
  138OSM    O1215011   1.600   5.451   5.765  0.0391  0.2681 -0.2950
  138OSM    C1S15012   1.543   5.433   6.134  0.3277  0.1274  0.4661
  138OSM    H1S15013   1.632   5.371   6.156  0.2354  0.6166  2.2873
  138OSM    H1T15014   1.458   5.362   6.128  0.5584 -0.0438 -1.1612
  138OSM     NF15015   1.582   5.468   6.373 -0.1302  0.5449 -0.6923
  138OSM    HNF15016   1.517   5.429   6.439 -1.9917  1.9769 -1.6189
  138OSM    C2S15017   1.534   5.530   6.250 -0.4036 -0.1049  0.1490
  138OSM    H2S15018   1.604   5.613   6.227  0.8947 -1.4931 -1.0249
  138OSM    C3S15019   1.388   5.584   6.259 -0.8237  0.9648 -0.0652
  138OSM    H3S15020   1.325   5.498   6.289  2.3641 -0.6114  2.3738
  138OSM     O315021   1.350   5.638   6.133 -0.1042  0.3692 -0.1310
  138OSM    HO315022   1.408   5.588   6.076 -0.9153 -3.3559  2.1771
  138OSM    C4S15023   1.378   5.700   6.362  0.6424  0.3292  0.2429
  138OSM    H4S15024   1.437   5.787   6.332 -0.2852  1.8347  2.6246
  138OSM    C5S15025   1.304   5.698   6.477  1.2289 -0.1479  0.0549
  138OSM    H5S15026   1.253   5.604   6.505  1.6044 -0.0148  1.2288
  138OSM    C6S15027   1.299   5.815   6.577  0.4016  0.0945  0.1272
  138OSM    H6S15028   1.205   5.866   6.606  0.5013  0.5376 -0.3200
  138OSM    H6T15029   1.371   5.888   6.534  1.3176 -1.1283 -0.4467
  138OSM    C7S15030   1.377   5.788   6.710  1.3365 -0.3252  0.1576
  138OSM    H7S15031   1.403   5.885   6.755 -1.6668  0.9781 -0.7369
  138OSM    H7T15032   1.470   5.737   6.679  1.0618 -1.6893  1.5421
  138OSM    C8S15033   1.299   5.695   6.816  0.0309 -0.0997  0.4800
  138OSM    H8S15034   1.288   5.594   6.771 -1.1388  0.3022 -0.1552
  138OSM    H8T15035   1.201   5.745   6.831  0.0858  0.2335 -0.2476
  138OSM    C9S15036   1.380   5.680   6.946  0.3084 -0.2585 -0.5754
  138OSM    H9S15037   1.423   5.774   6.986  0.3466 -0.9671  1.0928
  138OSM    H9T15038   1.463   5.610   6.924 -0.4397 -1.6845  1.0424
  138OSM   C10S15039   1.291   5.630   7.059  0.0751  0.4446  0.3310
  138OSM   H10S15040   1.284   5.519   7.056 -2.2264  0.5723  0.2679
  138OSM   H10T15041   1.189   5.665   7.033  0.8876  1.9355 -0.9647
  138OSM   C11S15042   1.307   5.701   7.196  0.6543  0.0454 -0.1455
  138OSM   H11S15043   1.247   5.650   7.274 -0.4410  1.2938 -0.1405
  138OSM   H11T15044   1.257   5.798   7.173  1.8488 -0.1155 -3.7112
  138OSM   C12S15045   1.454   5.714   7.245  0.4813 -0.3057 -0.3272
  138OSM   H12S15046   1.514   5.758   7.162 -1.7863  0.2034 -1.7533
  138OSM   H12T15047   1.493   5.611   7.255 -1.0405 -0.6598  2.3965
  138OSM   C13S15048   1.483   5.800   7.373  0.5328  0.4478 -0.4999
  138OSM   H13S15049   1.457   5.741   7.463  0.1842  0.9792 -0.2454
  138OSM   H13T15050   1.424   5.894   7.380  0.3768  0.2941  0.3545
  138OSM   C14S15051   1.629   5.850   7.399 -0.4091 -0.6914  0.3226
  138OSM   H14S15052   1.632   5.954   7.361  0.3153 -0.8837 -0.1634
  138OSM   H14T15053   1.688   5.785   7.331  1.6791 -1.1190  2.5033
  138OSM   C15S15054   1.683   5.841   7.535  0.3794 -0.0750 -0.2574
  138OSM   H15S15055   1.793   5.845   7.540  0.4894 -2.0909 -0.7330
  138OSM   H15T15056   1.665   5.737   7.569 -1.3540  0.3881  0.3344
  138OSM   C16S15057   1.619   5.934   7.633 -0.5544 -0.2611 -0.5609
  138OSM   H16S15058   1.510   5.920   7.614 -0.2686  1.1024 -3.5349
  138OSM   H16T15059   1.648   6.039   7.612 -0.4782  0.6670  3.7380
  138OSM   C17S15060   1.651   5.917   7.783 -0.8833 -0.3220  0.3010
  138OSM   H17S15061   1.589   5.987   7.843  2.9825  2.3447  1.3724
  138OSM   H17T15062   1.757   5.951   7.788 -0.4233 -1.6980  0.2997
  138OSM   C18S15063   1.638   5.781   7.839 -0.0517 -0.4393 -0.0199
  138OSM   H18S15064   1.534   5.744   7.849 -0.4560  0.6509 -0.1102
  138OSM   H18T15065   1.664   5.777   7.946  0.4208 -0.6658 -0.1413
  138OSM   H18U15066   1.696   5.703   7.784 -2.1143 -1.4351 -0.8238
  138OSM    C1F15067   1.719   5.460   6.392  0.1159  0.3449  0.3476
  138OSM     OF15068   1.797   5.515   6.317  0.7549  0.2259  0.3019
  138OSM    C2F15069   1.764   5.393   6.512 -0.0241  0.3008  0.6207
  138OSM    H2F15070   1.873   5.373   6.498 -0.3941 -1.8036  0.5206
  138OSM    H2G15071   1.702   5.301   6.516 -0.7295  0.8396  3.4563
  138OSM    C3F15072   1.735   5.479   6.636  0.4047  0.3572 -0.2499
  138OSM    H3F15073   1.627   5.507   6.631  0.3866  0.0783 -1.5704
  138OSM    H3G15074   1.799   5.570   6.637  1.5823 -0.4389  2.6440
  138OSM    C4F15075   1.779   5.415   6.766 -0.0977  0.8099  0.0036
  138OSM    H4F15076   1.888   5.403   6.787  0.2459  1.6852 -1.2496
  138OSM    H4G15077   1.736   5.313   6.779 -1.6732  1.4501 -0.1557
  138OSM    C5F15078   1.707   5.489   6.884  0.4431 -0.2423 -0.4450
  138OSM    H5F15079   1.601   5.457   6.876 -0.0650  1.6314 -1.4341
  138OSM    H5G15080   1.718   5.599   6.870  1.9900 -0.4021 -0.6225
  138OSM    C6F15081   1.769   5.448   7.014 -0.0140 -0.4006 -0.0608
  138OSM    H6F15082   1.878   5.463   6.998 -0.2774  0.9820 -0.6390
  138OSM    H6G15083   1.742   5.343   7.038  0.1370  0.2954  3.4228
  138OSM    C7F15084   1.736   5.529   7.134 -0.5986  0.1616  0.9287
  138OSM    H7F15085   1.631   5.514   7.165 -0.8666  0.5582  0.2174
  138OSM    H7G15086   1.732   5.635   7.103  0.8273  0.3388  1.2978
  138OSM    C8F15087   1.833   5.521   7.251  1.0675  0.1629 -0.6535
  138OSM    H8F15088   1.820   5.603   7.325  0.4247  0.3459 -0.9625
  138OSM    H8G15089   1.924   5.527   7.187  0.3354  1.1344 -1.6237
  138OSM    C9F15090   1.821   5.384   7.309 -0.3155  0.3632 -0.1201
  138OSM    H9F15091   1.875   5.307   7.253  0.1792  0.3326  0.3941
  138OSM   C10F15092   1.754   5.349   7.423 -0.4484 -0.0861  0.0593
  138OSM   H10F15093   1.744   5.243   7.449 -1.7161 -0.1600 -0.7082
  138OSM   C11F15094   1.679   5.430   7.522 -0.3417  0.2702  0.5476
  138OSM   H11F15095   1.684   5.534   7.482 -0.5173  0.0418 -0.0603
  138OSM   H11G15096   1.729   5.432   7.622 -0.1427  1.9847  0.4349
  138OSM   C12F15097   1.529   5.387   7.539 -0.0192 -0.9735 -0.6448
  138OSM   H12F15098   1.506   5.279   7.550 -1.4474 -0.5931  0.3264
  138OSM   H12G15099   1.470   5.426   7.453 -0.1326  0.3432  0.0149
  138OSM   C13F15100   1.463   5.461   7.661 -0.2113 -0.3813  0.7773
  138OSM   H13F15101   1.474   5.570   7.640 -2.8027 -0.1962  0.2074
  138OSM   H13G15102   1.509   5.426   7.756  1.1760  2.4207  1.2059
  138OSM   C14F15103   1.308   5.452   7.670  0.2896  0.1924 -0.3777
  138OSM   H14F15104   1.275   5.351   7.637 -0.2460 -0.4535  2.0147
  138OSM   H14G15105   1.265   5.514   7.588 -0.8530 -0.7319 -0.4916
  138OSM   C15F15106   1.253   5.474   7.811  0.2104 -1.2863  0.4485
  138OSM   H15F15107   1.295   5.571   7.845  2.1178 -0.8427 -2.9305
  138OSM   H15G15108   1.285   5.386   7.871 -0.2561 -1.5196  0.3540
  138OSM   C16F15109   1.096   5.478   7.811 -0.0723  0.5129 -0.0309
  138OSM   H16F15110   1.063   5.482   7.917  0.8513  1.6045  0.2201
  138OSM   H16G15111   1.057   5.392   7.753 -2.1666  1.2200  0.2723
  138OSM   C17F15112   1.031   5.600   7.748  0.0161 -0.2691  0.4263
  138OSM   H17F15113   1.043   5.595   7.638 -0.7433 -2.7474  0.4312
  138OSM   H17G15114   1.085   5.692   7.781 -1.1308  0.5804 -0.0456
  138OSM   C18F15115   0.877   5.611   7.776  0.8283 -0.4633 -0.2531
  138OSM   H18F15116   0.820   5.534   7.720  1.0598  0.1399 -1.3402
  138OSM   H18G15117   0.834   5.711   7.750 -1.0950 -1.1739  0.1358
  138OSM   H18H15118   0.861   5.608   7.886  1.0905 -1.9174 -0.2470
  139OSM      N15119   5.481   6.382   5.981 -0.3726  0.3584 -0.3130
  139OSM    C1515120   5.600   6.383   6.075  0.2574 -0.3836 -0.8806
  139OSM   H15A15121   5.646   6.479   6.089 -1.4807  0.1087  1.8846
  139OSM   H15B15122   5.670   6.309   6.039  1.0215 -0.3696  0.5641
  139OSM   H15C15123   5.571   6.363   6.177  1.2699 -0.0096 -0.5210
  139OSM    C1415124   5.522   6.430   5.845  0.3243 -0.4176  0.4159
  139OSM   H14A15125   5.611   6.379   5.810 -0.1002 -1.3454  0.6879
  139OSM   H14B15126   5.540   6.537   5.849  0.7116 -0.4166 -0.9933
  139OSM   H14C15127   5.438   6.402   5.783 -0.4006  0.9241  0.7683
  139OSM    C1315128   5.440   6.236   5.978 -0.0569  0.3140  0.1704
  139OSM   H13A15129   5.363   6.212   6.050 -1.6925 -1.1894 -2.0065
  139OSM   H13B15130   5.520   6.165   5.983  0.0350  0.4286  0.3474
  139OSM   H13C15131   5.397   6.217   5.881 -1.1519  1.1870  0.4692
  139OSM    C1215132   5.366   6.470   6.035  0.1748 -0.8656  0.4619
  139OSM   H12A15133   5.330   6.427   6.128  0.5833 -1.6405  0.2682
  139OSM   H12B15134   5.283   6.469   5.965 -0.0323  1.2232  0.6614
  139OSM    C1115135   5.387   6.626   6.053 -0.0230  0.1848 -0.1512
  139OSM   H11A15136   5.468   6.629   6.128  0.1040 -0.4944 -0.2586
  139OSM   H11B15137   5.299   6.677   6.099 -0.8220 -1.4015  0.1018
  139OSM      P15138   5.485   6.825   5.916 -0.1389  0.1509  0.4319
  139OSM    O1315139   5.637   6.810   5.900  0.3558  0.2410 -0.9600
  139OSM    O1415140   5.411   6.888   5.804  0.3493  0.7390  0.2549
  139OSM    O1115141   5.445   6.901   6.044 -0.4050 -0.0030  0.3830
  139OSM    O1215142   5.424   6.684   5.928 -0.1274  0.5556 -0.1852
  139OSM    C1S15143   5.558   6.950   6.127 -0.1859  0.2362  0.2759
  139OSM    H1S15144   5.620   7.012   6.059  0.5987 -2.8197 -1.8965
  139OSM    H1T15145   5.618   6.863   6.161 -1.5784 -0.5845  0.6853
  139OSM     NF15146   5.617   7.076   6.344  0.1020  0.4270 -0.1960
  139OSM    HNF15147   5.614   7.041   6.437 -1.1121  1.3730  0.1406
  139OSM    C2S15148   5.508   7.030   6.251  0.0344 -0.4718 -0.4210
  139OSM    H2S15149   5.454   7.117   6.208 -1.9930 -1.1575  0.6769
  139OSM    C3S15150   5.402   6.938   6.328  0.4010  0.5244 -0.2429
  139OSM    H3S15151   5.447   6.838   6.347 -2.2825 -0.3378  1.9610
  139OSM     O315152   5.287   6.930   6.248 -0.2728  0.2053  0.1093
  139OSM    HO315153   5.319   6.948   6.159 -1.2327  0.4611 -0.1982
  139OSM    C4S15154   5.353   6.997   6.459  0.2633 -0.5524 -0.2520
  139OSM    H4S15155   5.305   7.095   6.445  0.5059 -0.4399 -0.3007
  139OSM    C5S15156   5.368   6.939   6.582 -0.2868  0.4713 -0.3563
  139OSM    H5S15157   5.423   6.843   6.590 -0.3249  0.5630  1.3510
  139OSM    C6S15158   5.321   7.003   6.712  0.6255 -0.0137  0.9812
  139OSM    H6S15159   5.244   6.932   6.749  1.0207 -0.4451  0.9814
  139OSM    H6T15160   5.270   7.101   6.697  1.7923  0.2852 -1.1275
  139OSM    C7S15161   5.427   7.045   6.813  0.0258  0.0978 -0.4059
  139OSM    H7S15162   5.369   7.101   6.889 -0.7343 -0.1262 -0.8134
  139OSM    H7T15163   5.491   7.122   6.765  0.6098  0.6126  1.1828
  139OSM    C8S15164   5.514   6.934   6.860  1.1271  0.6496  0.6725
  139OSM    H8S15165   5.524   6.842   6.799 -0.8396  0.2756  0.8838
  139OSM    H8T15166   5.460   6.891   6.947  0.8697  1.0526  0.7129
  139OSM    C9S15167   5.650   6.977   6.899 -0.0418 -0.2714  0.6715
  139OSM    H9S15168   5.647   7.075   6.951 -1.2109  0.4196 -0.6782
  139OSM    H9T15169   5.709   7.002   6.809  0.7906  0.7572  1.4878
  139OSM   C10S15170   5.730   6.880   6.982  0.2302  0.0701 -0.4533
  139OSM   H10S15171   5.825   6.936   6.996 -0.0956  0.6604 -0.5617
  139OSM   H10T15172   5.761   6.787   6.930 -2.4649 -2.0195  1.5149
  139OSM   C11S15173   5.655   6.844   7.111  0.2950 -0.6517  0.1934
  139OSM   H11S15174   5.581   6.763   7.090 -2.0281  0.3485  3.9484
  139OSM   H11T15175   5.612   6.939   7.149 -0.9300 -1.0991 -0.0472
  139OSM   C12S15176   5.751   6.806   7.225  0.6789  0.1056  0.1387
  139OSM   H12S15177   5.818   6.891   7.249 -0.9995  1.0984  1.4243
  139OSM   H12T15178   5.829   6.739   7.184  0.0186 -0.9236  0.5465
  139OSM   C13S15179   5.676   6.723   7.338  0.5596  0.0921  0.0977
  139OSM   H13S15180   5.626   6.633   7.297  0.8841 -1.0001  2.0163
  139OSM   H13T15181   5.597   6.784   7.388  1.0658 -1.1319  2.4755
  139OSM   C14S15182   5.778   6.663   7.440 -0.1464 -0.5873  0.0984
  139OSM   H14S15183   5.821   6.755   7.485 -1.7370  0.5031 -0.5590
  139OSM   H14T15184   5.859   6.623   7.376  0.6802  0.6986  0.3111
  139OSM   C15S15185   5.720   6.561   7.531  0.4653 -0.4135 -0.0724
  139OSM   H15S15186   5.680   6.477   7.470 -3.5434  1.4617 -0.1681
  139OSM   H15T15187   5.636   6.606   7.588 -0.9667 -2.2741 -0.6513
  139OSM   C16S15188   5.833   6.509   7.621 -0.6474 -0.2027  0.3902
  139OSM   H16S15189   5.880   6.597   7.669 -0.7642  0.3844 -0.5442
  139OSM   H16T15190   5.900   6.451   7.554 -1.6111  1.1525 -1.8016
  139OSM   C17S15191   5.783   6.415   7.727 -0.6511 -0.2083 -0.4839
  139OSM   H17S15192   5.756   6.321   7.674  2.5416 -1.5318  0.1544
  139OSM   H17T15193   5.698   6.472   7.772 -1.4674 -0.3517 -1.8195
  139OSM   C18S15194   5.880   6.379   7.846  0.6264  0.1276 -0.2821
  139OSM   H18S15195   5.959   6.313   7.804 -0.1359 -0.3401 -0.9790
  139OSM   H18T15196   5.820   6.327   7.923 -1.0965 -0.1364 -1.7859
  139OSM   H18U15197   5.920   6.473   7.890 -1.1517  1.0866 -0.6570
  139OSM    C1F15198   5.716   7.160   6.304  0.2240 -0.2042 -0.5866
  139OSM     OF15199   5.729   7.206   6.189  0.1811 -0.1937 -0.1246
  139OSM    C2F15200   5.804   7.207   6.415  0.8147  0.2038 -0.4708
  139OSM    H2F15201   5.909   7.198   6.380  1.1253 -1.0934  0.7334
  139OSM    H2G15202   5.796   7.147   6.508 -0.3000  2.2999  0.8287
  139OSM    C3F15203   5.784   7.352   6.450  0.1196 -0.0873  0.1296
  139OSM    H3F15204   5.689   7.369   6.504  0.6206  1.0160  0.7018
  139OSM    H3G15205   5.773   7.394   6.348  0.7438 -0.1245  0.0452
  139OSM    C4F15206   5.903   7.405   6.533 -0.5002 -0.3415 -0.1807
  139OSM    H4F15207   5.913   7.515   6.522  1.4941 -0.3350  1.2406
  139OSM    H4G15208   5.987   7.352   6.483 -0.5962 -1.2836  0.6350
  139OSM    C5F15209   5.904   7.365   6.685  0.5514 -0.2564  0.1834
  139OSM    H5F15210   5.978   7.426   6.741 -0.7179 -0.1607  1.8145
  139OSM    H5G15211   5.921   7.257   6.704  0.4433 -0.0653  1.3918
  139OSM    C6F15212   5.766   7.404   6.739  0.1489 -0.1184  0.1459
  139OSM    H6F15213   5.694   7.330   6.698  0.6298 -0.3623 -0.2657
  139OSM    H6G15214   5.739   7.503   6.698  1.1375  0.2342  0.3280
  139OSM    C7F15215   5.781   7.394   6.898  0.0052 -0.4903 -0.3598
  139OSM    H7F15216   5.847   7.474   6.935  1.1171 -1.8303  0.6066
  139OSM    H7G15217   5.837   7.302   6.926  0.2887 -0.3013 -0.3038
  139OSM    C8F15218   5.645   7.397   6.974  0.6338 -0.4118  0.1049
  139OSM    H8F15219   5.571   7.323   6.936  3.3300 -1.3022 -3.7159
  139OSM    H8G15220   5.590   7.491   6.952 -0.2652 -0.7234  0.9491
  139OSM    C9F15221   5.667   7.406   7.124  0.2349  0.6828  0.2346
  139OSM    H9F15222   5.748   7.472   7.158  0.3037  0.9004 -0.3397
  139OSM   C10F15223   5.598   7.331   7.214  0.6956  0.0363 -0.2517
  139OSM   H10F15224   5.618   7.345   7.322  1.5950  0.0610 -0.4136
  139OSM   C11F15225   5.492   7.239   7.177 -0.0467  0.3539 -0.0771
  139OSM   H11F15226   5.523   7.139   7.141  0.2261  0.3038  0.2870
  139OSM   H11G15227   5.431   7.282   7.096 -0.7194  1.1274  0.8285
  139OSM   C12F15228   5.395   7.207   7.297 -1.1123 -0.3461 -0.8953
  139OSM   H12F15229   5.298   7.162   7.268 -1.5909  0.9459 -1.2867
  139OSM   H12G15230   5.371   7.303   7.346  2.9732 -0.0378  0.7594
  139OSM   C13F15231   5.465   7.116   7.410 -0.4514  0.0244  0.3667
  139OSM   H13F15232   5.573   7.136   7.424 -0.3949 -1.5139  2.3954
  139OSM   H13G15233   5.468   7.013   7.369  0.1781  0.8031 -1.5804
  139OSM   C14F15234   5.386   7.124   7.537 -0.2710 -0.4258  0.3804
  139OSM   H14F15235   5.284   7.100   7.501  0.8306 -4.4777 -0.2067
  139OSM   H14G15236   5.388   7.227   7.580 -1.4927 -0.9899  1.8098
  139OSM   C15F15237   5.434   7.014   7.635  0.7480  0.2565  0.2548
  139OSM   H15F15238   5.535   7.049   7.665  1.6345 -0.4076 -1.8658
  139OSM   H15G15239   5.441   6.917   7.580  1.7981 -0.3983  1.5129
  139OSM   C16F15240   5.346   6.997   7.761 -0.0809  0.1007 -0.3700
  139OSM   H16F15241   5.336   7.091   7.819  0.3118 -0.4031  0.5329
  139OSM   H16G15242   5.398   6.934   7.837 -0.2203  0.4105 -0.0176
  139OSM   C17F15243   5.216   6.917   7.731 -0.7016 -0.8632  0.5032
  139OSM   H17F15244   5.253   6.835   7.666 -0.7466  1.2759 -2.3175
  139OSM   H17G15245   5.148   6.981   7.670  1.3079 -0.7031 -1.6484
  139OSM   C18F15246   5.135   6.872   7.857  0.6431 -0.7929  0.1691
  139OSM   H18F15247   5.114   6.959   7.923 -5.1611 -0.2841 -2.0953
  139OSM   H18G15248   5.173   6.789   7.919  1.6085 -0.4579  0.0345
  139OSM   H18H15249   5.042   6.832   7.812 -0.0234 -1.4198  2.0885
  140OSM      N15250   1.336   1.260   5.737  0.6486  0.0955 -0.7197
  140OSM    C1515251   1.455   1.317   5.668 -0.2250  0.3639  0.5251
  140OSM   H15A15252   1.442   1.417   5.629  1.4796  0.0531 -0.9096
  140OSM   H15B15253   1.477   1.263   5.577 -2.1418 -1.3751  1.0700
  140OSM   H15C15254   1.549   1.309   5.721  0.2514  1.8249 -0.0739
  140OSM    C1415255   1.225   1.232   5.641  0.1767 -0.3981  0.0534
  140OSM   H14A15256   1.211   1.316   5.574  2.6772  0.5756  0.7028
  140OSM   H14B15257   1.136   1.212   5.699  0.7814 -1.5350  0.6083
  140OSM   H14C15258   1.244   1.141   5.585 -1.0075 -1.7653  1.8308
  140OSM    C1315259   1.374   1.126   5.801 -0.0419 -0.0598  0.3388
  140OSM   H13A15260   1.404   1.052   5.728 -1.9139  0.9095 -1.4670
  140OSM   H13B15261   1.287   1.087   5.851  0.3249 -1.5252 -0.1426
  140OSM   H13C15262   1.453   1.140   5.872  1.1135 -4.2709  0.0116
  140OSM    C1215263   1.287   1.365   5.834 -0.1782  1.0512 -0.2714
  140OSM   H12A15264   1.223   1.433   5.780 -2.2249 -1.0342 -0.5622
  140OSM   H12B15265   1.369   1.422   5.877  0.4394  0.0531 -0.0928
  140OSM    C1115266   1.210   1.318   5.952  0.4287  0.7118 -0.0985
  140OSM   H11A15267   1.194   1.407   6.017 -0.5720  0.7226 -0.3582
  140OSM   H11B15268   1.282   1.243   5.992 -0.9140  0.2893  1.5629
  140OSM      P15269   1.032   1.133   5.993 -0.2474  0.0292 -0.5448
  140OSM    O1315270   0.896   1.103   5.941  0.2739 -0.4312  0.6074
  140OSM    O1415271   1.132   1.018   5.983  0.5588  0.5783  0.3061
  140OSM    O1115272   1.033   1.188   6.141  0.2014 -0.2379  0.3304
  140OSM    O1215273   1.090   1.258   5.908 -0.2036  0.4445  0.4612
  140OSM    C1S15274   1.127   1.156   6.245  0.0866 -0.3253  0.1791
  140OSM    H1S15275   1.218   1.219   6.236  1.3695 -2.0015  0.9619
  140OSM    H1T15276   1.146   1.047   6.235 -2.7458 -0.7319 -1.0252
  140OSM     NF15277   1.146   1.116   6.480  0.4345 -0.3609  0.0421
  140OSM    HNF15278   1.111   1.039   6.534 -1.3151  0.1144 -0.3575
  140OSM    C2S15279   1.059   1.176   6.378 -0.2977  0.2926 -0.2335
  140OSM    H2S15280   1.063   1.283   6.406 -2.3071  0.7197 -1.5172
  140OSM    C3S15281   0.914   1.117   6.391 -0.3078 -0.1312  0.6297
  140OSM    H3S15282   0.918   1.016   6.345 -1.0175 -0.1959  0.7088
  140OSM     O315283   0.811   1.188   6.323  0.5887  0.0920  0.0094
  140OSM    HO315284   0.842   1.268   6.280 -2.2456  1.9434  1.2294
  140OSM    C4S15285   0.878   1.110   6.540  0.3540 -0.5367 -0.1216
  140OSM    H4S15286   0.867   1.004   6.566 -1.5560 -0.0519  1.1582
  140OSM    C5S15287   0.857   1.208   6.627  0.4316 -0.4884  0.0464
  140OSM    H5S15288   0.865   1.315   6.604 -2.3198 -0.4750 -0.8921
  140OSM    C6S15289   0.822   1.175   6.770  0.3748  0.4940 -0.2218
  140OSM    H6S15290   0.879   1.084   6.800  1.5923  0.7496 -1.6671
  140OSM    H6T15291   0.714   1.151   6.786  0.0756  0.4534 -2.1340
  140OSM    C7S15292   0.869   1.285   6.873 -0.0656  0.1598 -0.0879
  140OSM    H7S15293   0.844   1.236   6.970  0.7416  0.7616  0.4356
  140OSM    H7T15294   0.804   1.372   6.851  0.7417  0.8388  0.1603
  140OSM    C8S15295   1.016   1.318   6.856 -0.8137 -0.2434 -0.2166
  140OSM    H8S15296   1.036   1.373   6.762 -0.7081  0.1662  0.0489
  140OSM    H8T15297   1.084   1.232   6.837  2.2001  1.8918  0.6259
  140OSM    C9S15298   1.065   1.408   6.972 -0.2139 -0.0169 -0.4626
  140OSM    H9S15299   0.999   1.492   7.002 -0.6136  0.1109 -1.6385
  140OSM    H9T15300   1.152   1.458   6.924 -0.8153  1.4174 -0.0818
  140OSM   C10S15301   1.104   1.329   7.099  0.4782 -0.3988  0.1780
  140OSM   H10S15302   1.189   1.261   7.080 -0.1206 -1.5124  1.4709
  140OSM   H10T15303   1.017   1.274   7.140 -0.7420  2.3897  1.4410
  140OSM   C11S15304   1.150   1.420   7.210  0.2188  0.6807 -0.1909
  140OSM   H11S15305   1.097   1.517   7.214 -0.5629  0.1982  2.3447
  140OSM   H11T15306   1.250   1.459   7.184  1.5689 -0.8635  2.4693
  140OSM   C12S15307   1.169   1.348   7.339  0.7414  0.5491  0.3576
  140OSM   H12S15308   1.215   1.416   7.413 -0.1555 -0.2198  1.6612
  140OSM   H12T15309   1.236   1.260   7.330  0.0325 -0.0191  0.5294
  140OSM   C13S15310   1.029   1.313   7.409  0.5118  0.0638 -0.6724
  140OSM   H13S15311   0.980   1.243   7.339 -0.7824  0.0820  0.2013
  140OSM   H13T15312   0.963   1.402   7.418  0.9478  0.1648  2.3070
  140OSM   C14S15313   1.053   1.242   7.539  0.3736 -0.2332  0.1794
  140OSM   H14S15314   1.145   1.179   7.545 -0.2513 -1.3452 -1.4656
  140OSM   H14T15315   0.972   1.169   7.562 -1.2343  1.0320 -1.3485
  140OSM   C15S15316   1.057   1.347   7.652  0.3050 -0.5079  0.3688
  140OSM   H15S15317   0.965   1.408   7.643  0.8704  0.2219 -0.5582
  140OSM   H15T15318   1.140   1.416   7.627 -1.2022  0.8940 -0.8646
  140OSM   C16S15319   1.073   1.295   7.799 -0.6274  0.4521 -0.2724
  140OSM   H16S15320   1.064   1.379   7.871  2.3786 -0.7385  1.6042
  140OSM   H16T15321   1.178   1.259   7.809 -1.2609 -1.6476 -0.7694
  140OSM   C17S15322   0.975   1.186   7.836  0.2701 -0.0050 -0.6746
  140OSM   H17S15323   0.984   1.095   7.773  0.9992  0.0529 -0.6592
  140OSM   H17T15324   0.873   1.226   7.818  0.3209 -0.5780 -2.2397
  140OSM   C18S15325   0.987   1.142   7.982  0.0084 -0.0972 -0.4821
  140OSM   H18S15326   1.081   1.084   7.990 -0.0904 -0.4889 -2.0010
  140OSM   H18T15327   0.904   1.069   7.999  1.5461 -1.2823  2.2510
  140OSM   H18U15328   0.989   1.227   8.053  0.2125 -0.5550  0.0730
  140OSM    C1F15329   1.270   1.158   6.513  0.0713  0.0893  0.0157
  140OSM     OF15330   1.332   1.242   6.450  0.7220  0.2483 -0.5495
  140OSM    C2F15331   1.321   1.089   6.642 -0.7649  0.0079 -0.7714
  140OSM    H2F15332   1.341   0.983   6.612 -2.1293  0.1641 -2.2911
  140OSM    H2G15333   1.237   1.095   6.714  0.2890 -1.9369  0.6971
  140OSM    C3F15334   1.443   1.159   6.709  1.0257  0.7932  0.3559
  140OSM    H3F15335   1.424   1.267   6.726 -0.4631  0.5748  0.1085
  140OSM    H3G15336   1.531   1.152   6.640  0.5139 -1.3236 -0.1346
  140OSM    C4F15337   1.497   1.087   6.835 -0.6377  0.3540 -0.2717
  140OSM    H4F15338   1.546   0.990   6.809  1.1666  0.7230  1.6243
  140OSM    H4G15339   1.419   1.058   6.909  1.1538 -1.6900  0.8537
  140OSM    C5F15340   1.592   1.170   6.911  0.2136 -0.0369 -0.0983
  140OSM    H5F15341   1.544   1.266   6.941  1.2571  0.4337  0.0570
  140OSM    H5G15342   1.677   1.205   6.849 -0.1438  0.9297 -0.0505
  140OSM    C6F15343   1.663   1.096   7.027  0.4930 -0.4062  0.1341
  140OSM    H6F15344   1.755   1.050   6.987 -0.7644 -0.5521 -2.7227
  140OSM    H6G15345   1.603   1.009   7.062 -0.2970  0.3266  0.6505
  140OSM    C7F15346   1.686   1.204   7.135  0.4544 -0.3291  0.0222
  140OSM    H7F15347   1.731   1.295   7.090 -0.2565  0.0186  0.0254
  140OSM    H7G15348   1.762   1.167   7.208  0.3987  0.5316  0.5179
  140OSM    C8F15349   1.560   1.238   7.216  0.4165 -0.2396 -0.3716
  140OSM    H8F15350   1.531   1.149   7.277 -0.2662  0.0243 -0.3130
  140OSM    H8G15351   1.473   1.256   7.150  1.3923 -3.2008 -2.5441
  140OSM    C9F15352   1.574   1.355   7.311 -0.2608  0.2091 -0.2483
  140OSM    H9F15353   1.592   1.451   7.261 -1.4468  1.1004  0.9990
  140OSM   C10F15354   1.570   1.361   7.448 -0.4172  0.7844 -0.8761
  140OSM   H10F15355   1.567   1.463   7.489  0.9508  1.4667 -2.4074
  140OSM   C11F15356   1.559   1.246   7.544 -0.1470  0.5120  0.6306
  140OSM   H11F15357   1.638   1.174   7.512 -1.5067 -1.3073  1.2752
  140OSM   H11G15358   1.456   1.206   7.534  0.7786 -1.4036 -1.8242
  140OSM   C12F15359   1.594   1.284   7.692 -0.1924  0.4349  0.0111
  140OSM   H12F15360   1.536   1.373   7.722  2.1534  1.6290  1.1360
  140OSM   H12G15361   1.703   1.306   7.693  0.0821 -0.7303 -1.2712
  140OSM   C13F15362   1.573   1.168   7.788  0.4126  0.4434 -0.3012
  140OSM   H13F15363   1.630   1.076   7.763 -1.9296 -1.0264 -0.3802
  140OSM   H13G15364   1.464   1.145   7.779  0.4570  0.4021 -0.7273
  140OSM   C14F15365   1.617   1.210   7.935  0.0557 -0.6286 -0.5415
  140OSM   H14F15366   1.550   1.150   7.999  0.1247 -0.6733 -0.5109
  140OSM   H14G15367   1.596   1.319   7.947  0.3124 -0.7676  1.2020
  140OSM   C15F15368   1.757   1.179   7.984 -0.5742 -0.4334  0.5835
  140OSM   H15F15369   1.781   1.227   8.081 -0.5039  0.4758  0.1253
  140OSM   H15G15370   1.832   1.219   7.911 -1.8148 -1.0113 -1.0517
  140OSM   C16F15371   1.779   1.023   7.997  0.3904  0.1303 -0.2891
  140OSM   H16F15372   1.889   1.016   8.012 -0.0131 -0.3566  2.6822
  140OSM   H16G15373   1.743   0.967   7.908  2.0628 -0.0137 -0.9011
  140OSM   C17F15374   1.714   0.957   8.115  0.1788  0.5264 -0.6148
  140OSM   H17F15375   1.710   0.846   8.104 -0.0142  0.5602 -0.8888
  140OSM   H17G15376   1.604   0.977   8.115  0.1833  0.6028  0.2950
  140OSM   C18F15377   1.759   0.999   8.255 -0.7079  0.7713  0.9636
  140OSM   H18F15378   1.865   1.031   8.247 -0.2278 -0.4069  2.3310
  140OSM   H18G15379   1.747   0.913   8.326 -0.6767  1.2229  1.5220
  140OSM   H18H15380   1.700   1.084   8.296  0.5615  2.5989 -0.9218
  141OSM      N15381   7.057   5.822   5.731 -0.2567 -0.3440  0.4568
  141OSM    C1515382   7.151   5.895   5.633  0.4367  0.3051 -0.2279
  141OSM   H15A15383   7.110   5.900   5.533 -0.6386  2.3515  0.2923
  141OSM   H15B15384   7.235   5.833   5.607 -0.7507 -1.8211  0.8240
  141OSM   H15C15385   7.181   5.993   5.665 -0.9498  0.7766 -0.3501
  141OSM    C1415386   6.932   5.908   5.725  0.5648 -0.1957 -0.8019
  141OSM   H14A15387   6.904   5.938   5.625 -1.3362  0.0021 -0.2341
  141OSM   H14B15388   6.950   5.998   5.782  2.4466 -0.9773 -0.1033
  141OSM   H14C15389   6.855   5.849   5.773  0.9342 -0.8559 -1.0029
  141OSM    C1315390   7.026   5.689   5.672 -0.1682  0.3762  0.4164
  141OSM   H13A15391   7.119   5.635   5.665  0.4902  1.8423 -2.5894
  141OSM   H13B15392   6.980   5.692   5.574  2.2893 -3.7071 -1.0126
  141OSM   H13C15393   6.957   5.642   5.741 -1.6883 -0.0579 -1.3465
  141OSM    C1215394   7.117   5.820   5.873 -0.3089  0.4754  0.0784
  141OSM   H12A15395   7.139   5.918   5.913 -3.3659  1.8529 -1.4771
  141OSM   H12B15396   7.207   5.763   5.854 -0.4959  0.5371 -1.0364
  141OSM    C1115397   7.047   5.750   5.988 -0.4659 -0.6570 -0.0062
  141OSM   H11A15398   6.944   5.789   5.975  0.2724  0.8480 -1.6177
  141OSM   H11B15399   7.098   5.769   6.085 -1.7749 -1.8412  0.9295
  141OSM      P15400   7.168   5.519   5.985 -0.2919 -0.1337  0.0976
  141OSM    O1315401   7.140   5.393   5.923  0.3515  0.1889 -0.8821
  141OSM    O1415402   7.283   5.590   5.929 -0.0126  0.2712 -0.1796
  141OSM    O1115403   7.189   5.502   6.138  0.7098 -0.4074  0.6364
  141OSM    O1215404   7.041   5.610   5.974  0.3534  0.5422  0.5570
  141OSM    C1S15405   7.098   5.442   6.226 -0.0293 -0.3119  0.3886
  141OSM    H1S15406   6.990   5.465   6.216  0.5136  1.2435 -2.3351
  141OSM    H1T15407   7.127   5.478   6.327 -2.4077  1.3892  0.5075
  141OSM     NF15408   7.015   5.230   6.330  0.1827 -0.2788 -0.4168
  141OSM    HNF15409   7.062   5.197   6.411  1.2065  2.3702  0.1154
  141OSM    C2S15410   7.111   5.288   6.240  0.1378 -0.3028 -0.1052
  141OSM    H2S15411   7.083   5.242   6.143 -1.5602  2.2148 -0.8638
  141OSM    C3S15412   7.256   5.244   6.281 -0.8836 -0.3181 -0.4913
  141OSM    H3S15413   7.279   5.273   6.386  1.5261 -2.7838 -0.2865
  141OSM     O315414   7.360   5.306   6.201  0.1114 -0.1920  0.0888
  141OSM    HO315415   7.304   5.380   6.177  0.1719 -0.8264 -2.1438
  141OSM    C4S15416   7.276   5.092   6.279  0.2813  0.1903  0.2475
  141OSM    H4S15417   7.258   5.046   6.180 -1.3929 -0.1704  0.7073
  141OSM    C5S15418   7.312   5.020   6.383 -0.2388  1.0406  0.0104
  141OSM    H5S15419   7.340   5.071   6.476 -1.1266  0.5891  0.5302
  141OSM    C6S15420   7.334   4.870   6.371 -0.1381 -0.1551  0.1638
  141OSM    H6S15421   7.346   4.842   6.264  1.3169  1.6245 -0.1531
  141OSM    H6T15422   7.247   4.815   6.414  1.3019 -2.2136  0.5240
  141OSM    C7S15423   7.462   4.818   6.453 -0.6109  0.6119  0.3294
  141OSM    H7S15424   7.551   4.870   6.410 -0.4296  0.6964  0.8055
  141OSM    H7T15425   7.484   4.711   6.429 -0.2416  0.7584 -0.0104
  141OSM    C8S15426   7.458   4.832   6.603  0.7177 -0.5422 -0.9133
  141OSM    H8S15427   7.379   4.768   6.649 -0.5229  0.7613 -1.1538
  141OSM    H8T15428   7.425   4.936   6.629  0.0920 -0.6406 -1.2886
  141OSM    C9S15429   7.590   4.796   6.664  0.0342 -0.1685 -0.0595
  141OSM    H9S15430   7.678   4.837   6.609 -0.1897 -1.0090 -1.0463
  141OSM    H9T15431   7.590   4.688   6.642 -1.2520 -0.1210 -0.3184
  141OSM   C10S15432   7.597   4.833   6.816 -0.2775  0.0807 -0.2166
  141OSM   H10S15433   7.494   4.818   6.856 -0.6452 -1.4025 -1.6658
  141OSM   H10T15434   7.615   4.940   6.842  0.5116 -0.3827  1.1940
  141OSM   C11S15435   7.696   4.748   6.887  0.2162  0.5117  0.4736
  141OSM   H11S15436   7.793   4.759   6.836  0.7098 -2.1792  0.7482
  141OSM   H11T15437   7.671   4.641   6.867 -0.0061  0.5580  0.5060
  141OSM   C12S15438   7.705   4.785   7.034 -1.0152 -0.1154 -0.5995
  141OSM   H12S15439   7.606   4.790   7.084 -1.0740 -1.8158 -0.5182
  141OSM   H12T15440   7.755   4.882   7.048  0.3708 -1.2235  2.6555
  141OSM   C13S15441   7.786   4.672   7.099  0.3876  0.4229  0.2992
  141OSM   H13S15442   7.882   4.659   7.045 -1.1535 -0.9850 -2.1575
  141OSM   H13T15443   7.729   4.578   7.082 -2.3620  1.7664  1.7417
  141OSM   C14S15444   7.830   4.703   7.252  0.2305  0.2675 -0.1511
  141OSM   H14S15445   7.858   4.810   7.259 -1.4880  0.8213 -1.2352
  141OSM   H14T15446   7.916   4.639   7.281  1.0767  0.2897 -2.5289
  141OSM   C15S15447   7.718   4.674   7.356 -0.1022 -0.5264 -0.7211
  141OSM   H15S15448   7.708   4.569   7.390  1.4581 -0.5503 -0.3193
  141OSM   H15T15449   7.621   4.709   7.314 -0.4558  0.9650  1.2359
  141OSM   C16S15450   7.727   4.755   7.488  0.3644  0.2406 -0.2939
  141OSM   H16S15451   7.767   4.854   7.459 -2.9530  1.6205 -0.3459
  141OSM   H16T15452   7.802   4.723   7.563  2.4418  0.6242 -2.1566
  141OSM   C17S15453   7.583   4.772   7.550 -1.1513 -0.0288 -0.3490
  141OSM   H17S15454   7.502   4.787   7.475 -2.5050 -0.5843  0.9765
  141OSM   H17T15455   7.580   4.863   7.613 -1.5237 -0.3868  0.1597
  141OSM   C18S15456   7.563   4.657   7.648  0.6446 -0.2853 -0.1428
  141OSM   H18S15457   7.639   4.671   7.727 -0.6785  2.4749  0.6837
  141OSM   H18T15458   7.568   4.558   7.597  1.3225 -0.4931  0.3188
  141OSM   H18U15459   7.460   4.648   7.689  0.8320 -1.1089  0.1538
  141OSM    C1F15460   6.885   5.224   6.318  0.0727 -0.1239 -0.0873
  141OSM     OF15461   6.828   5.244   6.214 -0.4322  0.3749 -0.8505
  141OSM    C2F15462   6.810   5.180   6.437  0.0572 -0.1842 -0.3888
  141OSM    H2F15463   6.716   5.135   6.398 -0.5618  2.8550 -2.5764
  141OSM    H2G15464   6.779   5.272   6.491 -1.3448  0.2088 -1.8165
  141OSM    C3F15465   6.900   5.090   6.533  0.6127 -0.1622 -0.4521
  141OSM    H3F15466   6.971   5.024   6.479 -1.2663 -3.8691  1.4682
  141OSM    H3G15467   6.820   5.023   6.571 -0.6918  0.8583 -1.3272
  141OSM    C4F15468   6.977   5.177   6.642 -0.3355 -0.0553 -0.1161
  141OSM    H4F15469   6.904   5.251   6.680  1.0437 -0.5082  3.6390
  141OSM    H4G15470   7.065   5.239   6.612  0.2167 -0.6161  0.3279
  141OSM    C5F15471   7.021   5.091   6.764  0.0217 -0.0153 -0.1535
  141OSM    H5F15472   6.954   5.006   6.789 -1.3744  1.6020  1.8174
  141OSM    H5G15473   7.029   5.147   6.860  1.1962 -0.5441  0.0711
  141OSM    C6F15474   7.160   5.027   6.749  0.6012  0.5372  0.3111
  141OSM    H6F15475   7.241   5.102   6.739  1.4064 -0.0317  2.4478
  141OSM    H6G15476   7.157   4.966   6.656 -0.6349  1.8914 -0.5544
  141OSM    C7F15477   7.191   4.933   6.866 -0.0951 -0.1690  0.0845
  141OSM    H7F15478   7.244   4.848   6.819 -2.2704 -0.9542 -1.0378
  141OSM    H7G15479   7.101   4.889   6.914  0.4410 -1.0673  0.2810
  141OSM    C8F15480   7.283   4.985   6.969 -0.2548 -0.7305 -0.1127
  141OSM    H8F15481   7.362   5.044   6.919 -2.2666  0.9270 -1.4162
  141OSM    H8G15482   7.342   4.901   7.011  0.7435  0.2232  0.4217
  141OSM    C9F15483   7.223   5.070   7.077 -0.2124  0.3655  0.1925
  141OSM    H9F15484   7.211   5.174   7.044  1.6146  0.7522  0.6759
  141OSM   C10F15485   7.198   5.036   7.205  0.0866  0.7451  0.1467
  141OSM   H10F15486   7.154   5.111   7.272 -0.6917 -1.0150  1.6576
  141OSM   C11F15487   7.227   4.901   7.265 -0.3339 -0.0604 -0.3101
  141OSM   H11F15488   7.320   4.861   7.221  0.3191 -1.9101  2.6487
  141OSM   H11G15489   7.154   4.821   7.240 -0.0799 -0.4355  0.1568
  141OSM   C12F15490   7.249   4.912   7.419 -0.2117  0.4871 -0.1386
  141OSM   H12F15491   7.316   4.995   7.450 -0.9110  1.4117 -1.0668
  141OSM   H12G15492   7.289   4.817   7.460  1.6215  1.2656 -0.0606
  141OSM   C13F15493   7.118   4.929   7.500 -0.3728 -0.2833  0.5660
  141OSM   H13F15494   7.040   4.864   7.455 -0.6323  1.2301 -1.1913
  141OSM   H13G15495   7.069   5.028   7.490  0.5917  0.1155 -0.2009
  141OSM   C14F15496   7.122   4.897   7.648 -0.1810  0.3702  0.7096
  141OSM   H14F15497   7.018   4.913   7.685 -1.6606 -1.7322 -2.2817
  141OSM   H14G15498   7.184   4.978   7.690 -0.4516  1.1978 -0.4666
  141OSM   C15F15499   7.160   4.763   7.706 -0.2404 -0.0905  0.6037
  141OSM   H15F15500   7.250   4.725   7.653 -0.3455 -1.8481  1.6212
  141OSM   H15G15501   7.078   4.689   7.692  0.0631 -0.8156  2.4313
  141OSM   C16F15502   7.199   4.771   7.854 -0.9663 -0.3159 -0.5908
  141OSM   H16F15503   7.291   4.832   7.857 -0.9791 -0.2392 -1.5790
  141OSM   H16G15504   7.234   4.672   7.891  2.1993  0.3138 -1.7416
  141OSM   C17F15505   7.096   4.840   7.954  0.5683 -0.4800  0.0251
  141OSM   H17F15506   6.988   4.812   7.947  0.5239 -0.0227 -1.2441
  141OSM   H17G15507   7.098   4.946   7.921 -1.6428 -0.5331 -0.3673
  141OSM   C18F15508   7.157   4.817   8.094  0.9815  0.6371  0.0170
  141OSM   H18F15509   7.263   4.850   8.102  2.0591 -2.3719 -1.1798
  141OSM   H18G15510   7.166   4.708   8.113 -2.2393 -0.3852 -3.6853
  141OSM   H18H15511   7.095   4.869   8.170  0.5568 -0.4507  0.4219
  142OSM      N15512   0.209   6.373   5.658  0.2166  0.2246  0.7530
  142OSM    C1515513   0.184   6.516   5.621 -0.2717  0.1055  0.2446
  142OSM   H15A15514   0.089   6.548   5.659  1.1025  0.4265  3.5470
  142OSM   H15B15515   0.203   6.539   5.517 -0.0460 -0.4981  0.1445
  142OSM   H15C15516   0.265   6.570   5.668 -1.0449  0.0096  1.6855
  142OSM    C1415517   0.104   6.290   5.593 -0.0623 -0.9550 -0.6396
  142OSM   H14A15518   0.127   6.185   5.597  0.4029 -0.8228  0.2050
  142OSM   H14B15519   0.089   6.313   5.488  1.4503 -2.0205 -1.1101
  142OSM   H14C15520   0.014   6.292   5.653  1.0928  0.1218  1.0857
  142OSM    C1315521   0.341   6.343   5.593 -0.2131  0.4361  0.8711
  142OSM   H13A15522   0.423   6.402   5.631  0.7249  0.0087 -0.4623
  142OSM   H13B15523   0.342   6.354   5.486  1.4119 -0.2102  0.7891
  142OSM   H13C15524   0.356   6.238   5.616 -1.1460  0.3376  1.0199
  142OSM    C1215525   0.211   6.348   5.807 -0.2977  0.1387 -0.5202
  142OSM   H12A15526   0.298   6.397   5.848  2.1324 -2.3258 -2.5478
  142OSM   H12B15527   0.234   6.243   5.816 -2.0928 -0.2029  0.3638
  142OSM    C1115528   0.097   6.389   5.903  0.0079 -0.2031  0.4198
  142OSM   H11A15529   0.075   6.497   5.888  1.2009  0.2442  1.8597
  142OSM   H11B15530   0.127   6.379   6.009 -0.8944  0.9885  0.7986
  142OSM      P15531  -0.054   6.165   5.915  0.0542  0.2131  0.0460
  142OSM    O1315532  -0.192   6.131   5.953 -0.3006 -0.3912 -0.1794
  142OSM    O1415533   0.002   6.090   5.805 -0.4496 -0.0869  0.4126
  142OSM    O1115534   0.033   6.144   6.047 -0.6414  0.7235  0.4116
  142OSM    O1215535  -0.025   6.319   5.891 -0.5672  0.2966 -0.4527
  142OSM    C1S15536   0.034   6.008   6.102 -0.8291  0.1096  0.2072
  142OSM    H1S15537   0.078   5.936   6.031 -0.0211 -0.4515  1.2586
  142OSM    H1T15538  -0.070   5.975   6.124 -1.0321  0.7034  0.1530
  142OSM     NF15539   0.113   5.864   6.287 -0.0591  0.2300  0.4721
  142OSM    HNF15540   0.037   5.838   6.346  1.5821 -1.7414  1.8296
  142OSM    C2S15541   0.116   5.998   6.232  0.1118  0.0391  0.6068
  142OSM    H2S15542   0.219   6.033   6.206 -0.2754 -0.7367 -2.1263
  142OSM    C3S15543   0.070   6.108   6.331 -0.2597  0.2319 -0.5580
  142OSM    H3S15544  -0.036   6.095   6.360 -0.2827  0.1196 -0.6876
  142OSM     O315545   0.077   6.242   6.280  0.5701 -0.1857 -0.3482
  142OSM    HO315546   0.072   6.236   6.185 -3.1041 -1.0706 -0.1737
  142OSM    C4S15547   0.165   6.107   6.456  0.4363 -0.0908  0.8221
  142OSM    H4S15548   0.266   6.142   6.427 -0.0192  0.2375 -0.4247
  142OSM    C5S15549   0.118   6.086   6.585  0.0578  0.1411  0.2597
  142OSM    H5S15550   0.011   6.060   6.591  0.1800 -0.2470  0.7372
  142OSM    C6S15551   0.203   6.084   6.705 -0.7073  0.3438 -0.6111
  142OSM    H6S15552   0.158   6.011   6.776 -0.9095  0.5014 -0.5755
  142OSM    H6T15553   0.196   6.180   6.761 -1.7548 -0.7907  1.2639
  142OSM    C7S15554   0.353   6.057   6.696  0.5202  0.5943  0.4422
  142OSM    H7S15555   0.396   6.081   6.795  0.6737 -0.2812  0.5970
  142OSM    H7T15556   0.401   6.130   6.627  1.4042  1.4945  1.9812
  142OSM    C8S15557   0.391   5.916   6.646 -0.1159  0.2669 -0.6485
  142OSM    H8S15558   0.356   5.905   6.541 -0.6308  1.2042 -0.5793
  142OSM    H8T15559   0.334   5.842   6.707  2.2738  0.1290  1.4838
  142OSM    C9S15560   0.539   5.875   6.648 -0.4931  0.5289  0.0205
  142OSM    H9S15561   0.598   5.938   6.578  0.7798 -1.8681 -1.1447
  142OSM    H9T15562   0.552   5.771   6.613  1.7096  1.2190 -1.3209
  142OSM   C10S15563   0.587   5.878   6.795  0.1173 -0.1112 -0.0903
  142OSM   H10S15564   0.594   5.982   6.834 -1.7479  0.4213 -1.1140
  142OSM   H10T15565   0.690   5.838   6.789  0.1788 -0.0228  0.3558
  142OSM   C11S15566   0.513   5.791   6.889 -0.1288 -0.1047 -0.3097
  142OSM   H11S15567   0.498   5.688   6.851  0.7211 -0.7387  1.0124
  142OSM   H11T15568   0.416   5.838   6.916 -0.9923 -1.9105 -0.1736
  142OSM   C12S15569   0.584   5.777   7.021  0.3965  0.6305  0.2448
  142OSM   H12S15570   0.610   5.881   7.049  0.0962  0.8656 -0.3418
  142OSM   H12T15571   0.682   5.725   7.017 -0.1175 -0.4926  1.9987
  142OSM   C13S15572   0.497   5.722   7.143  0.2217  0.1458 -0.6877
  142OSM   H13S15573   0.518   5.613   7.154 -1.3289 -0.0286  0.7304
  142OSM   H13T15574   0.388   5.724   7.118  0.3036  1.2080 -0.9603
  142OSM   C14S15575   0.537   5.807   7.263 -0.4477  0.1226  0.5536
  142OSM   H14S15576   0.507   5.913   7.249 -0.5590  0.1018  0.6299
  142OSM   H14T15577   0.648   5.807   7.267 -0.4429 -0.8737  0.6042
  142OSM   C15S15578   0.500   5.741   7.405  0.2702  0.3787 -0.5078
  142OSM   H15S15579   0.550   5.642   7.407  2.0983  1.2806 -0.7107
  142OSM   H15T15580   0.391   5.720   7.399  0.3610 -0.0704 -0.6008
  142OSM   C16S15581   0.538   5.829   7.525  0.3908 -0.3817  0.3659
  142OSM   H16S15582   0.468   5.914   7.513 -0.9853 -1.7202 -1.5575
  142OSM   H16T15583   0.642   5.868   7.521 -0.1518  0.9718 -0.7395
  142OSM   C17S15584   0.509   5.753   7.650  0.1882  0.2216  0.1898
  142OSM   H17S15585   0.571   5.661   7.655 -1.9216 -1.3079 -1.2618
  142OSM   H17T15586   0.407   5.713   7.631  0.6638 -0.3703 -1.1446
  142OSM   C18S15587   0.527   5.840   7.768  0.2188  0.4472 -0.7246
  142OSM   H18S15588   0.480   5.940   7.767 -0.4363  0.1447 -0.3880
  142OSM   H18T15589   0.637   5.851   7.780  0.1627  0.0854  0.1845
  142OSM   H18U15590   0.496   5.781   7.857  0.7176  1.7541  0.3401
  142OSM    C1F15591   0.197   5.774   6.241 -0.4216  0.6545  0.3528
  142OSM     OF15592   0.268   5.791   6.142  0.0122 -0.0226 -0.1459
  142OSM    C2F15593   0.186   5.633   6.306 -0.3470  0.0988  0.3476
  142OSM    H2F15594   0.229   5.560   6.235  0.6836  0.7569  0.2838
  142OSM    H2G15595   0.076   5.615   6.310 -0.0998 -1.2426  1.7602
  142OSM    C3F15596   0.247   5.619   6.449 -0.1311  0.0015 -0.1036
  142OSM    H3F15597   0.181   5.676   6.518  0.9260  0.7062  0.3284
  142OSM    H3G15598   0.351   5.659   6.448  0.4411 -1.3951  1.0330
  142OSM    C4F15599   0.252   5.470   6.485  0.7702  0.4602  1.1297
  142OSM    H4F15600   0.298   5.412   6.403 -1.7840  1.2009 -0.9274
  142OSM    H4G15601   0.149   5.434   6.510  1.7585 -1.2551  2.8681
  142OSM    C5F15602   0.337   5.439   6.611 -0.1600 -0.5912  0.7791
  142OSM    H5F15603   0.440   5.476   6.591 -0.6578  1.0763  1.2735
  142OSM    H5G15604   0.348   5.328   6.614  0.5160 -0.6262 -2.1113
  142OSM    C6F15605   0.296   5.510   6.748 -0.4750 -0.2452  0.0077
  142OSM    H6F15606   0.294   5.619   6.728  2.6849  0.0949  1.2237
  142OSM    H6G15607   0.384   5.491   6.814 -0.0737 -0.0607 -0.4698
  142OSM    C7F15608   0.166   5.465   6.807 -0.0430  0.1983  0.9231
  142OSM    H7F15609   0.189   5.361   6.840 -0.7807 -0.4334 -0.4956
  142OSM    H7G15610   0.082   5.474   6.736  0.7034 -0.0225 -0.0008
  142OSM    C8F15611   0.125   5.564   6.917  0.2284  0.1673  0.2355
  142OSM    H8F15612   0.108   5.666   6.875 -0.3723  0.3325  0.8767
  142OSM    H8G15613   0.217   5.576   6.978  2.0272 -2.4535 -1.8257
  142OSM    C9F15614  -0.002   5.517   6.995 -0.3930  0.0231  0.8394
  142OSM    H9F15615  -0.075   5.463   6.932  2.6260 -2.5765 -0.5486
  142OSM   C10F15616  -0.022   5.538   7.127  0.2025  0.5556  0.0456
  142OSM   H10F15617  -0.107   5.483   7.169  0.1231  0.9029  0.3347
  142OSM   C11F15618   0.067   5.609   7.235 -0.5369  0.0863 -1.4750
  142OSM   H11F15619   0.171   5.628   7.201  0.0595  0.6937  0.6079
  142OSM   H11G15620   0.088   5.543   7.323  2.4832  1.1445 -1.3264
  142OSM   C12F15621   0.014   5.747   7.285  0.2530  0.0950 -0.1271
  142OSM   H12F15622  -0.082   5.728   7.337  0.5283 -0.8517  0.0510
  142OSM   H12G15623  -0.003   5.808   7.194  1.3729 -1.5577 -1.4697
  142OSM   C13F15624   0.120   5.795   7.384 -0.6393  0.5531 -0.0583
  142OSM   H13F15625   0.201   5.832   7.317 -1.6955 -0.4355 -1.9345
  142OSM   H13G15626   0.148   5.707   7.446  0.8240  1.0993  0.0774
  142OSM   C14F15627   0.076   5.916   7.458 -0.0981  0.4798 -0.6335
  142OSM   H14F15628  -0.025   5.898   7.499  0.6704 -0.4307  0.8877
  142OSM   H14G15629   0.067   5.999   7.384 -1.1864 -0.3680 -1.4591
  142OSM   C15F15630   0.180   5.962   7.561  0.7263 -0.4238  0.0848
  142OSM   H15F15631   0.268   5.979   7.496  1.0384  2.1540  1.1494
  142OSM   H15G15632   0.211   5.879   7.628 -1.9615 -1.4358  0.1537
  142OSM   C16F15633   0.134   6.085   7.639  0.3001  0.5061  0.2014
  142OSM   H16F15634   0.205   6.108   7.721  1.1842  0.8036 -0.6391
  142OSM   H16G15635   0.054   6.055   7.710 -0.5818  0.9865 -0.5902
  142OSM   C17F15636   0.096   6.214   7.559  0.3206  0.3930  0.2418
  142OSM   H17F15637   0.025   6.194   7.475 -0.0951  1.9247  0.1982
  142OSM   H17G15638   0.188   6.257   7.514 -0.2419  1.6353  0.2411
  142OSM   C18F15639   0.036   6.322   7.657 -0.1077 -0.6531  0.4693
  142OSM   H18F15640   0.118   6.361   7.722 -1.0962  1.0668  0.7194
  142OSM   H18G15641  -0.052   6.285   7.714  0.9822 -2.7949  0.7866
  142OSM   H18H15642   0.013   6.411   7.594  0.7924 -1.3344 -0.8395
  143OSM      N15643   0.676   7.067   5.850 -0.2712 -0.1268  0.1707
  143OSM    C1515644   0.570   6.968   5.890  0.0166 -0.4593  0.5251
  143OSM   H15A15645   0.619   6.885   5.940  0.5567  0.0240  0.8027
  143OSM   H15B15646   0.518   6.938   5.801  2.0377 -0.2614 -0.7594
  143OSM   H15C15647   0.507   6.997   5.973 -0.7800  0.1527 -0.2809
  143OSM    C1415648   0.772   7.003   5.760  0.0897  0.0819  0.3759
  143OSM   H14A15649   0.824   6.929   5.820 -2.1527  0.4051  2.7709
  143OSM   H14B15650   0.833   7.074   5.706 -3.1663  2.0568 -0.8447
  143OSM   H14C15651   0.720   6.954   5.679  0.4407  1.6120 -0.8007
  143OSM    C1315652   0.605   7.175   5.776  0.0939  0.0076  0.9517
  143OSM   H13A15653   0.527   7.230   5.827 -1.2632 -0.5575 -0.4673
  143OSM   H13B15654   0.566   7.135   5.684  0.8016 -0.7561  0.9805
  143OSM   H13C15655   0.678   7.250   5.748 -0.7037  0.0972 -0.9677
  143OSM    C1215656   0.747   7.129   5.969 -0.6599  0.1469  0.5272
  143OSM   H12A15657   0.672   7.189   6.020 -0.7860  1.3426 -1.0131
  143OSM   H12B15658   0.820   7.196   5.926  0.1265  0.1432  1.8183
  143OSM    C1115659   0.824   7.033   6.061  0.4699  0.1133 -0.1080
  143OSM   H11A15660   0.768   6.943   6.097  0.2926  0.5098  0.6176
  143OSM   H11B15661   0.840   7.092   6.154 -0.6305  0.1791  0.0477
  143OSM      P15662   1.085   7.051   6.029  0.2527  0.4446  0.0565
  143OSM    O1315663   1.183   6.961   5.958  0.0450 -0.1239  0.2587
  143OSM    O1415664   1.081   7.190   5.998 -0.4957 -0.1019 -0.2850
  143OSM    O1115665   1.096   7.035   6.194  0.2007  0.1222  0.3094
  143OSM    O1215666   0.947   6.985   6.001  0.2659  0.2402  0.4180
  143OSM    C1S15667   1.106   7.152   6.277  0.1772  1.0147  0.8872
  143OSM    H1S15668   1.024   7.227   6.267 -0.2836  0.6649  1.9613
  143OSM    H1T15669   1.195   7.210   6.245 -0.1482  0.9398 -0.1563
  143OSM     NF15670   1.086   7.232   6.509  0.5544  0.0231 -0.2367
  143OSM    HNF15671   1.168   7.282   6.535  0.8355 -1.1991  1.2952
  143OSM    C2S15672   1.109   7.116   6.430 -0.0794 -0.0669 -0.0070
  143OSM    H2S15673   1.026   7.043   6.440 -0.8026  0.3544 -2.5156
  143OSM    C3S15674   1.239   7.052   6.469 -0.2392 -0.0391 -0.4150
  143OSM    H3S15675   1.320   7.127   6.455 -2.2353  2.1772 -0.4665
  143OSM     O315676   1.258   6.938   6.383  0.6546  0.0921 -0.2643
  143OSM    HO315677   1.186   6.960   6.324  0.9900  1.0355 -0.3305
  143OSM    C4S15678   1.239   7.002   6.614 -0.1129  0.1041 -0.3184
  143OSM    H4S15679   1.164   6.926   6.638  0.1935 -0.0612  0.1316
  143OSM    C5S15680   1.306   7.054   6.712  0.4198 -0.2512  0.1653
  143OSM    H5S15681   1.382   7.130   6.690  0.4734 -0.5926 -0.8456
  143OSM    C6S15682   1.303   7.007   6.852  0.9290 -0.3968  0.1396
  143OSM    H6S15683   1.257   7.087   6.914  0.4128  0.3449 -1.1778
  143OSM    H6T15684   1.403   6.994   6.899  1.5736  2.7963 -0.2518
  143OSM    C7S15685   1.218   6.880   6.881 -0.4445  0.2656  0.4480
  143OSM    H7S15686   1.247   6.792   6.820 -0.4153  1.5545 -1.4646
  143OSM    H7T15687   1.111   6.904   6.867 -0.9036 -2.2689 -0.6361
  143OSM    C8S15688   1.232   6.840   7.033  0.2691 -0.2710 -0.2401
  143OSM    H8S15689   1.184   6.928   7.081  2.1089  1.4828 -1.5809
  143OSM    H8T15690   1.340   6.839   7.058  0.3980  1.8037 -0.6671
  143OSM    C9S15691   1.175   6.703   7.068  0.9531 -0.1110 -0.3610
  143OSM    H9S15692   1.232   6.628   7.009  0.1914  0.0332 -1.2899
  143OSM    H9T15693   1.071   6.697   7.029  1.2896 -0.5005 -1.2335
  143OSM   C10S15694   1.188   6.678   7.223 -0.0470  0.1252  0.0401
  143OSM   H10S15695   1.159   6.771   7.277 -1.1229 -0.3539  0.3138
  143OSM   H10T15696   1.293   6.673   7.257 -0.6667 -1.2147  1.8851
  143OSM   C11S15697   1.129   6.553   7.282  0.0245  0.0777 -0.2567
  143OSM   H11S15698   1.143   6.553   7.393  1.3618 -1.0268 -0.4134
  143OSM   H11T15699   1.177   6.465   7.235 -1.5647  0.1174 -1.9779
  143OSM   C12S15700   0.975   6.540   7.268  0.8617  0.4539  0.1192
  143OSM   H12S15701   0.953   6.433   7.287  1.1601  0.3859  0.0952
  143OSM   H12T15702   0.955   6.553   7.160  0.4384  1.2857  0.2956
  143OSM   C13S15703   0.876   6.626   7.348  0.3498  0.3396 -0.4684
  143OSM   H13S15704   0.874   6.727   7.303  2.1946  1.7963  2.5682
  143OSM   H13T15705   0.908   6.630   7.455 -0.5192  2.3922 -0.2577
  143OSM   C14S15706   0.731   6.570   7.341  0.1622  0.0008  1.0162
  143OSM   H14S15707   0.701   6.548   7.237  1.5799  0.8516  0.4029
  143OSM   H14T15708   0.661   6.653   7.367 -0.4658 -0.2192  0.0252
  143OSM   C15S15709   0.686   6.449   7.430  0.0899  0.3964  0.0988
  143OSM   H15S15710   0.717   6.482   7.531  0.1229  2.7202 -0.6353
  143OSM   H15T15711   0.740   6.356   7.403  3.3299  1.8492  1.2732
  143OSM   C16S15712   0.538   6.427   7.418 -0.6949  0.2478 -0.1150
  143OSM   H16S15713   0.519   6.430   7.309  1.4957  1.0772 -0.5079
  143OSM   H16T15714   0.491   6.514   7.469 -1.4457  0.5448 -1.3051
  143OSM   C17S15715   0.489   6.295   7.485  0.4865 -0.3214 -0.7055
  143OSM   H17S15716   0.548   6.212   7.441 -0.6800 -2.5381  1.7744
  143OSM   H17T15717   0.379   6.279   7.475 -0.2264  2.6143  1.7019
  143OSM   C18S15718   0.516   6.301   7.637 -0.2066 -0.2114  1.2337
  143OSM   H18S15719   0.625   6.289   7.656  0.2402 -1.1319 -1.7421
  143OSM   H18T15720   0.450   6.229   7.691 -1.0230  0.7258  1.4920
  143OSM   H18U15721   0.474   6.395   7.679  0.3953  0.9021 -0.6016
  143OSM    C1F15722   0.968   7.295   6.519 -0.1893  0.7833  0.3837
  143OSM     OF15723   0.877   7.264   6.444  0.3820 -0.3848 -1.4850
  143OSM    C2F15724   0.961   7.410   6.611 -0.1607  0.4332  0.1062
  143OSM    H2F15725   0.881   7.480   6.579  0.3692  0.6513 -0.7697
  143OSM    H2G15726   1.061   7.460   6.614  0.5547 -1.0097  1.0535
  143OSM    C3F15727   0.915   7.375   6.757 -0.0548  0.3301  0.5554
  143OSM    H3F15728   0.987   7.293   6.774 -1.3052 -1.1337 -1.0815
  143OSM    H3G15729   0.813   7.331   6.753  0.7538 -1.5515  0.1830
  143OSM    C4F15730   0.939   7.485   6.860  0.0939  0.8553  0.6318
  143OSM    H4F15731   0.873   7.563   6.815  0.5046  0.1231 -1.2920
  143OSM    H4G15732   1.044   7.522   6.851  0.3418 -0.2515 -1.3698
  143OSM    C5F15733   0.893   7.442   7.000  0.6234  0.0972 -0.3679
  143OSM    H5F15734   0.782   7.430   7.001  0.6338  0.0261 -0.0237
  143OSM    H5G15735   0.923   7.528   7.064 -0.0145  0.4836 -0.5831
  143OSM    C6F15736   0.960   7.314   7.052 -0.1729 -0.3341  0.8340
  143OSM    H6F15737   1.069   7.337   7.054 -0.2342  0.1312 -1.0166
  143OSM    H6G15738   0.934   7.229   6.986 -1.2681  1.4468 -1.0789
  143OSM    C7F15739   0.908   7.285   7.193 -0.1764  0.4511 -0.7521
  143OSM    H7F15740   0.805   7.245   7.181 -0.0230 -0.4278  0.7782
  143OSM    H7G15741   0.901   7.375   7.258  1.4222  0.9870 -1.3016
  143OSM    C8F15742   0.993   7.178   7.249  0.3234 -0.1631 -0.4732
  143OSM    H8F15743   1.090   7.221   7.281  1.9427 -2.2827 -2.3233
  143OSM    H8G15744   1.019   7.114   7.161 -1.9441 -1.0376 -0.5399
  143OSM    C9F15745   0.921   7.106   7.356  0.2313 -0.2721  0.2265
  143OSM    H9F15746   0.812   7.110   7.340  0.9527  1.1415 -5.3536
  143OSM   C10F15747   0.972   7.034   7.457  0.4010 -0.1251 -0.1125
  143OSM   H10F15748   0.908   6.984   7.531 -1.7538  3.5015  0.6042
  143OSM   C11F15749   1.120   7.022   7.491  0.0756 -0.1948  0.3995
  143OSM   H11F15750   1.192   7.073   7.423  0.7641 -2.8303 -0.8879
  143OSM   H11G15751   1.154   6.921   7.460 -0.5294  0.1483 -1.4185
  143OSM   C12F15752   1.174   7.046   7.637 -0.3223 -1.1733  0.9538
  143OSM   H12F15753   1.270   7.000   7.670 -0.1267 -1.1569  0.3998
  143OSM   H12G15754   1.099   7.002   7.707 -1.2978 -0.8086  0.1592
  143OSM   C13F15755   1.179   7.194   7.675  0.7417 -0.3819 -0.1689
  143OSM   H13F15756   1.080   7.243   7.660  0.9018 -0.0440 -0.1277
  143OSM   H13G15757   1.253   7.249   7.614 -1.0938 -1.4534 -3.4881
  143OSM   C14F15758   1.212   7.213   7.822  0.1037  0.4175 -0.0622
  143OSM   H14F15759   1.310   7.173   7.856 -1.5689 -0.7498  3.5921
  143OSM   H14G15760   1.134   7.151   7.870 -0.0224  0.0946 -0.6761
  143OSM   C15F15761   1.199   7.357   7.878  0.4448  0.0704  0.2533
  143OSM   H15F15762   1.103   7.405   7.851  0.9881  1.5012  0.8180
  143OSM   H15G15763   1.275   7.403   7.812  2.1583 -0.6760  1.6711
  143OSM   C16F15764   1.232   7.363   8.024  0.1950 -0.2831 -0.1528
  143OSM   H16F15765   1.333   7.319   8.040 -0.0685 -0.4811  0.9706
  143OSM   H16G15766   1.177   7.286   8.082  0.1408 -0.1366 -0.0129
  143OSM   C17F15767   1.229   7.512   8.069 -0.1471 -0.4191 -0.3607
  143OSM   H17F15768   1.130   7.559   8.049  0.1627 -0.8314 -3.1357
  143OSM   H17G15769   1.305   7.569   8.012  0.4782 -0.0737  0.8247
  143OSM   C18F15770   1.255   7.520   8.221 -0.8118  0.0163 -0.2635
  143OSM   H18F15771   1.195   7.447   8.279  1.6571 -1.3740  0.6226
  143OSM   H18G15772   1.225   7.619   8.262  0.7579  0.8766 -1.1342
  143OSM   H18H15773   1.361   7.505   8.249 -1.3270 -0.5791  1.4388
  144OSM      N15774   6.815   0.465   5.819 -0.4886  0.2456 -0.0782
  144OSM    C1515775   6.913   0.361   5.787 -0.4338 -0.5805 -0.2771
  144OSM   H15A15776   7.008   0.402   5.816 -0.2663 -1.2776  0.1777
  144OSM   H15B15777   6.923   0.356   5.679  4.2523  0.9800 -0.0007
  144OSM   H15C15778   6.891   0.268   5.838 -2.5287 -0.3747 -0.7588
  144OSM    C1415779   6.860   0.596   5.750  0.2824 -0.3000  0.0301
  144OSM   H14A15780   6.774   0.659   5.767 -0.3466 -1.0985 -0.1466
  144OSM   H14B15781   6.873   0.581   5.644  0.2122 -1.9731  0.2419
  144OSM   H14C15782   6.952   0.636   5.791  0.3716 -0.8155  0.3320
  144OSM    C1315783   6.681   0.413   5.770  0.2126 -0.5827 -0.0319
  144OSM   H13A15784   6.601   0.481   5.796 -0.0636 -1.6101  1.9514
  144OSM   H13B15785   6.659   0.320   5.821  1.4295 -2.8278 -3.4038
  144OSM   H13C15786   6.677   0.393   5.664 -0.2733  0.4888 -0.2213
  144OSM    C1215787   6.808   0.479   5.967  0.3355  0.1217 -0.4247
  144OSM   H12A15788   6.756   0.398   6.018 -1.1673  0.8167 -0.8245
  144OSM   H12B15789   6.752   0.566   5.998 -0.3559 -0.0270 -1.2252
  144OSM    C1115790   6.951   0.484   6.037 -0.0206 -0.2482  0.2906
  144OSM   H11A15791   7.005   0.387   6.026  0.2897 -0.3159  2.2004
  144OSM   H11B15792   6.934   0.507   6.145 -1.0963  1.1865 -0.1661
  144OSM      P15793   7.078   0.719   6.038  0.2018  0.0111 -0.1667
  144OSM    O1315794   7.218   0.750   5.996  0.7351 -0.6064  0.1790
  144OSM    O1415795   6.976   0.827   6.004 -0.1000 -0.1764  0.2524
  144OSM    O1115796   7.078   0.693   6.196  0.3823 -1.1320  0.4916
  144OSM    O1215797   7.026   0.584   5.979 -0.0476  0.1703  0.2607
  144OSM    C1S15798   7.084   0.805   6.282  0.1088  0.3361  0.0127
  144OSM    H1S15799   7.002   0.876   6.262 -0.1268 -0.0718 -0.4753
  144OSM    H1T15800   7.178   0.863   6.268 -0.7911  1.5316 -1.1007
  144OSM     NF15801   7.037   0.868   6.525  0.4333 -0.0368 -0.0559
  144OSM    HNF15802   7.113   0.903   6.580  0.1801  0.3650  0.0346
  144OSM    C2S15803   7.089   0.761   6.435 -0.3379 -0.2980  0.0551
  144OSM    H2S15804   7.025   0.670   6.435  1.3786 -1.5495 -1.8642
  144OSM    C3S15805   7.237   0.713   6.466  0.5338 -0.1309 -0.0927
  144OSM    H3S15806   7.310   0.789   6.432 -0.5280  0.8592 -0.1635
  144OSM     O315807   7.258   0.594   6.399 -0.4515  0.4385 -0.1939
  144OSM    HO315808   7.179   0.586   6.345 -0.0991  1.8774 -0.9309
  144OSM    C4S15809   7.253   0.703   6.613  0.4424 -0.0441 -0.4180
  144OSM    H4S15810   7.318   0.785   6.648  0.2202 -0.9821  2.3577
  144OSM    C5S15811   7.199   0.614   6.702  0.1238 -0.3571  0.4546
  144OSM    H5S15812   7.130   0.541   6.659 -0.1666  2.0728 -3.4113
  144OSM    C6S15813   7.222   0.607   6.850  0.5705  0.6906 -0.2839
  144OSM    H6S15814   7.292   0.686   6.885  1.1462 -0.2774  0.8289
  144OSM    H6T15815   7.258   0.513   6.899 -1.2407 -0.4892 -1.1727
  144OSM    C7S15816   7.100   0.653   6.929  0.1265 -0.3646 -0.5485
  144OSM    H7S15817   7.047   0.732   6.870 -1.3880 -2.5813 -2.2499
  144OSM    H7T15818   7.123   0.696   7.029 -0.1550  1.6481 -1.3340
  144OSM    C8S15819   7.000   0.533   6.938  0.4236  0.5445  0.1014
  144OSM    H8S15820   7.049   0.449   6.991  0.6675  1.1413  0.8252
  144OSM    H8T15821   6.984   0.506   6.831 -0.8979  3.1805 -0.4092
  144OSM    C9S15822   6.857   0.568   6.993 -0.3145 -1.0393  0.4999
  144OSM    H9S15823   6.772   0.504   6.962 -1.1153  1.3797 -2.6199
  144OSM    H9T15824   6.821   0.670   6.965 -1.5055 -1.0467  1.9577
  144OSM   C10S15825   6.865   0.594   7.147  0.3130 -0.1898  0.0201
  144OSM   H10S15826   6.939   0.675   7.163 -2.4101  2.6105 -1.2341
  144OSM   H10T15827   6.884   0.497   7.199  1.0226  0.4889  1.0445
  144OSM   C11S15828   6.733   0.646   7.213 -0.7108 -0.2412  0.0658
  144OSM   H11S15829   6.655   0.568   7.202 -1.3015  0.2508  0.7614
  144OSM   H11T15830   6.716   0.741   7.159 -0.6285 -0.3866 -0.2201
  144OSM   C12S15831   6.742   0.685   7.365 -1.0882 -0.9866 -0.6886
  144OSM   H12S15832   6.797   0.781   7.377 -1.8262  0.2311 -5.7274
  144OSM   H12T15833   6.807   0.607   7.412  0.5803  1.5244  1.2766
  144OSM   C13S15834   6.605   0.684   7.431 -0.0825 -0.9070 -0.3690
  144OSM   H13S15835   6.632   0.689   7.539 -1.3944  0.2981 -0.0792
  144OSM   H13T15836   6.565   0.581   7.419 -3.2945  0.1917  0.5675
  144OSM   C14S15837   6.507   0.797   7.389 -0.0991 -0.2498 -0.1412
  144OSM   H14S15838   6.468   0.766   7.290 -0.0627 -0.5316 -0.0691
  144OSM   H14T15839   6.566   0.891   7.389  0.2356 -0.4590 -0.8890
  144OSM   C15S15840   6.380   0.802   7.477 -0.8313 -0.4768  0.1106
  144OSM   H15S15841   6.345   0.699   7.499  1.6337 -1.7363 -1.6399
  144OSM   H15T15842   6.293   0.850   7.426 -0.2992 -0.9407 -1.2482
  144OSM   C16S15843   6.404   0.887   7.608  0.6587  0.2865 -0.3041
  144OSM   H16S15844   6.461   0.982   7.599  0.6317  0.1913 -1.5579
  144OSM   H16T15845   6.477   0.833   7.673 -0.5250  0.2622  1.0306
  144OSM   C17S15846   6.276   0.909   7.697  0.0707  0.4326 -0.6326
  144OSM   H17S15847   6.220   0.993   7.650  2.2044  1.9826 -0.5396
  144OSM   H17T15848   6.304   0.948   7.797 -1.6681 -0.7433  0.3206
  144OSM   C18S15849   6.178   0.787   7.702  0.2065  0.5308  0.2109
  144OSM   H18S15850   6.239   0.703   7.742  0.5378 -0.0564 -1.4838
  144OSM   H18T15851   6.130   0.756   7.606  0.3338  2.2685 -0.4300
  144OSM   H18U15852   6.093   0.815   7.768  0.8171  1.6597  0.5149
  144OSM    C1F15853   6.907   0.892   6.539 -0.2065  0.1252 -0.4120
  144OSM     OF15854   6.824   0.810   6.499  0.1554 -0.0152  0.1280
  144OSM    C2F15855   6.866   1.011   6.626  0.1000  0.0525  0.0323
  144OSM    H2F15856   6.770   1.056   6.591 -0.3820 -0.3476  0.8285
  144OSM    H2G15857   6.941   1.090   6.603  1.2393 -1.5488 -1.9029
  144OSM    C3F15858   6.875   0.980   6.775  0.2996  0.4122 -0.0329
  144OSM    H3F15859   6.978   0.954   6.807 -1.0973 -2.6949  2.2241
  144OSM    H3G15860   6.809   0.896   6.806  0.7015 -0.2433 -0.9463
  144OSM    C4F15861   6.837   1.106   6.853 -0.4119  0.0702  0.0055
  144OSM    H4F15862   6.740   1.143   6.813 -0.1617  1.5996  0.8034
  144OSM    H4G15863   6.911   1.188   6.843 -2.2941  1.9269  0.8566
  144OSM    C5F15864   6.810   1.071   6.999 -0.0827  1.0715  0.1810
  144OSM    H5F15865   6.740   0.986   7.011  0.2093  0.8865  0.5785
  144OSM    H5G15866   6.750   1.156   7.039  0.0723  0.5983  1.4733
  144OSM    C6F15867   6.940   1.052   7.077 -1.1815  0.1001  0.2626
  144OSM    H6F15868   6.987   1.153   7.072  0.7086 -0.7638  0.3262
  144OSM    H6G15869   7.006   0.986   7.017 -0.9529  0.5528  0.0128
  144OSM    C7F15870   6.926   1.012   7.220  0.3712  0.1411 -0.4351
  144OSM    H7F15871   6.861   0.922   7.221 -0.6800  0.8624 -1.4192
  144OSM    H7G15872   6.867   1.091   7.271  2.2862 -0.0469  2.2000
  144OSM    C8F15873   7.060   0.995   7.298  0.8393 -0.3532 -0.1134
  144OSM    H8F15874   7.034   0.979   7.405  0.1304  0.8007 -0.1043
  144OSM    H8G15875   7.123   1.087   7.295  0.1017  0.1937  0.9516
  144OSM    C9F15876   7.153   0.887   7.248  0.2772 -0.3876  0.5755
  144OSM    H9F15877   7.156   0.878   7.139 -1.3859  1.2379  0.3732
  144OSM   C10F15878   7.248   0.825   7.318  0.1785 -0.3413  0.3720
  144OSM   H10F15879   7.308   0.747   7.270  0.4470  0.0948 -0.0100
  144OSM   C11F15880   7.285   0.846   7.458 -0.3134 -0.2714 -0.2466
  144OSM   H11F15881   7.237   0.763   7.512  1.9058 -2.7873 -1.9996
  144OSM   H11G15882   7.244   0.940   7.500  2.4297  1.0483 -0.3826
  144OSM   C12F15883   7.432   0.842   7.501  0.0475  0.0848 -0.8026
  144OSM   H12F15884   7.481   0.747   7.468  0.3960 -0.6951  1.8154
  144OSM   H12G15885   7.432   0.820   7.610  2.7786 -0.5266 -0.8905
  144OSM   C13F15886   7.523   0.957   7.475  0.4545  0.4449 -0.2973
  144OSM   H13F15887   7.489   1.050   7.526  2.4020  0.8260  0.3655
  144OSM   H13G15888   7.531   0.975   7.366  1.7132  0.6358 -0.1853
  144OSM   C14F15889   7.664   0.934   7.527  0.5072  0.1776  0.5523
  144OSM   H14F15890   7.695   0.842   7.474  0.0359 -0.8345  2.0141
  144OSM   H14G15891   7.671   0.905   7.634  2.4723 -0.0235  0.3753
  144OSM   C15F15892   7.762   1.049   7.508  0.4696  0.0740  0.2523
  144OSM   H15F15893   7.770   1.109   7.601  1.3048 -0.6147  0.6370
  144OSM   H15G15894   7.724   1.122   7.433  0.9286  0.3203  0.2572
  144OSM   C16F15895   7.900   0.998   7.476 -0.8142 -0.1993  0.4314
  144OSM   H16F15896   7.966   1.072   7.427 -2.8479  0.5761 -1.2089
  144OSM   H16G15897   7.893   0.916   7.402  0.3511  0.1506 -0.0715
  144OSM   C17F15898   7.976   0.943   7.599 -0.0054  0.1291 -0.6779
  144OSM   H17F15899   8.082   0.927   7.571  0.4920  2.0847  0.0236
  144OSM   H17G15900   7.939   0.850   7.647 -0.8175  0.5426 -0.4939
  144OSM   C18F15901   7.979   1.034   7.717  0.1479 -0.4509 -0.1530
  144OSM   H18F15902   7.878   1.035   7.762 -0.5635  2.8092 -1.6454
  144OSM   H18G15903   8.013   1.131   7.672  0.1225 -0.3287  0.0913
  144OSM   H18H15904   8.062   1.015   7.788  0.7903  0.2772 -0.6862
  145SAPE     N15905   2.027   3.419   9.988  0.3047 -0.4876 -0.5840
  145SAPE   HN115906   2.109   3.427   9.924 -0.1406 -1.4800 -1.2881
  145SAPE   HN215907   1.960   3.344   9.961 -0.2794 -0.2518  0.1914
  145SAPE   HN315908   1.980   3.512   9.981 -0.1454 -0.8224 -2.6054
  145SAPE   C1215909   2.054   3.400  10.134  0.0220 -0.1789 -0.5780
  145SAPE  H12A15910   1.978   3.458  10.191 -0.6119 -0.2111 -1.3681
  145SAPE  H12B15911   2.161   3.419  10.154  0.4484  1.0398 -3.7473
  145SAPE   C1115912   2.039   3.247  10.172  0.1965  0.0458 -0.2726
  145SAPE  H11A15913   1.931   3.230  10.151  0.4469 -2.8258  0.6100
  145SAPE  H11B15914   2.059   3.236  10.281  0.5403  0.0907 -0.3321
  145SAPE     P15915   2.084   3.010  10.046 -0.1296  0.1618  0.1340
  145SAPE   O1315916   2.106   2.914  10.159  0.1858  0.3915  0.6135
  145SAPE   O1415917   1.948   3.019   9.996  0.0234 -0.5769  0.2396
  145SAPE   O1215918   2.126   3.156  10.101  0.0765  0.6467 -0.0086
  145SAPE   O1115919   2.185   2.983   9.930  0.1393  0.2135  0.3538
  145SAPE    C115920   2.205   3.093   9.838 -0.3540  0.3826 -0.1843
  145SAPE    HA15921   2.137   3.179   9.852  2.1523  2.2979  0.6694
  145SAPE    HB15922   2.303   3.143   9.856  0.2617 -1.2470  1.2016
  145SAPE    C215923   2.175   3.056   9.691 -0.0478  0.2005  0.4330
  145SAPE    HS15924   2.228   2.962   9.662  0.2532 -0.1657  2.1448
  145SAPE   O2115925   2.215   3.166   9.606  0.6247  0.8066 -0.2123
  145SAPE   C2115926   2.336   3.151   9.556  0.0061 -0.0415 -0.4519
  145SAPE   O2215927   2.413   3.057   9.571  0.2775 -1.0731 -0.7035
  145SAPE   C2215928   2.376   3.271   9.471 -0.2324 -0.0957 -0.3230
  145SAPE   H2R15929   2.381   3.361   9.536  1.7628 -1.5524  1.6344
  145SAPE   H2S15930   2.482   3.256   9.441 -0.0223  3.3144 -1.4386
  145SAPE    C315931   2.026   3.032   9.668  0.0683  0.4491  0.3313
  145SAPE    HX15932   1.968   3.101   9.733  0.8149  0.4518  1.0005
  145SAPE    HY15933   2.001   2.933   9.711  2.4972  0.1861  1.1813
  145SAPE   O3115934   1.982   3.047   9.535  0.0538 -0.3456  0.2365
  145SAPE   C3115935   1.996   2.948   9.453  0.9839  0.9602  0.7697
  145SAPE   O3215936   2.053   2.838   9.473 -0.3236 -0.0158 -0.3767
  145SAPE   C3215937   1.933   2.976   9.318 -0.6622  0.3935  0.4430
  145SAPE   H2X15938   1.933   3.086   9.303  4.6826  0.4449  0.1160
  145SAPE   H2Y15939   1.831   2.931   9.315  0.3036 -1.8315 -0.0683
  145SAPE   C2315940   2.289   3.291   9.350 -0.5733 -0.1023  0.3138
  145SAPE   H3R15941   2.310   3.391   9.305 -0.9472 -1.0922 -2.1267
  145SAPE   H3S15942   2.182   3.289   9.379 -1.0629  0.0238 -1.4091
  145SAPE   C2415943   2.293   3.179   9.240  0.5319 -0.7273 -0.2783
  145SAPE   H4R15944   2.208   3.185   9.169  0.9951 -3.1724 -1.1082
  145SAPE   H4S15945   2.281   3.084   9.297  0.2802 -0.5728 -0.0681
  145SAPE   C2515946   2.432   3.179   9.170 -0.1373 -0.2302 -0.1381
  145SAPE   H5R15947   2.521   3.156   9.231  0.0691 -0.2268 -0.4365
  145SAPE   C2615948   2.437   3.214   9.041  0.4612  0.2033  0.4552
  145SAPE   H6R15949   2.532   3.192   8.991 -0.0911 -0.8506 -0.1451
  145SAPE   C2715950   2.326   3.257   8.952 -0.2903  0.0003  0.0331
  145SAPE   H7R15951   2.258   3.333   8.997 -1.4550  0.0633 -1.7478
  145SAPE   H7S15952   2.269   3.166   8.923  2.4827 -0.7481 -3.3343
  145SAPE   C2815953   2.384   3.321   8.823  0.5118  0.2481  0.1421
  145SAPE   H8R15954   2.486   3.292   8.794  0.6128  0.6291  0.1143
  145SAPE   C2915955   2.310   3.402   8.743 -0.4752  0.2174  0.4952
  145SAPE   H9R15956   2.351   3.445   8.651  0.8644 -0.4985  0.7485
  145SAPE  C21015957   2.167   3.440   8.762  0.0505  0.2137 -0.2134
  145SAPE  H10R15958   2.111   3.395   8.847 -0.6152 -1.4946 -1.5086
  145SAPE  H10S15959   2.118   3.398   8.671 -1.0843  2.1096 -0.4911
  145SAPE  C21115960   2.149   3.592   8.768 -0.1202 -0.1176  0.0810
  145SAPE  H11R15961   2.156   3.630   8.871  0.8999  2.4235 -0.8740
  145SAPE  C21215962   2.130   3.680   8.667 -0.7129  0.1681 -0.3155
  145SAPE  H12R15963   2.162   3.783   8.688 -1.0665  0.0553  0.8131
  145SAPE  C21315964   2.121   3.655   8.516  0.3292 -0.0368 -0.4849
  145SAPE  H13R15965   2.043   3.721   8.474 -0.0293 -0.3035 -0.2417
  145SAPE  H13S15966   2.094   3.549   8.494  0.9104 -0.1450 -0.7072
  145SAPE  C21415967   2.254   3.676   8.456  0.0313  0.6268 -0.2287
  145SAPE  H14R15968   2.321   3.755   8.492  0.9275  0.8347 -2.2658
  145SAPE  C21515969   2.313   3.603   8.360 -0.4078  0.3605  0.3633
  145SAPE  H15R15970   2.406   3.635   8.311 -0.6175  0.2213 -0.1345
  145SAPE  C21615971   2.253   3.479   8.293  0.2307 -0.6965 -0.3470
  145SAPE  H16R15972   2.266   3.478   8.183 -0.8981  1.3226 -0.5381
  145SAPE  H16S15973   2.142   3.481   8.294  0.2130  3.1137  0.4848
  145SAPE  C21715974   2.311   3.349   8.350 -0.7555 -0.0815  0.0821
  145SAPE  H17R15975   2.263   3.258   8.307 -1.8846  0.1336  0.8769
  145SAPE  H17S15976   2.287   3.335   8.457  0.3778  0.4601  0.4115
  145SAPE  C21815977   2.460   3.327   8.332  0.4555  0.3123 -0.2187
  145SAPE  H18R15978   2.522   3.414   8.362  0.1229  0.0263  1.3515
  145SAPE  H18S15979   2.472   3.298   8.225 -1.9641 -0.5892 -0.2758
  145SAPE  C21915980   2.508   3.207   8.416  0.2636 -0.2343 -0.5159
  145SAPE  H19R15981   2.475   3.111   8.370 -1.0986  0.3502 -0.7846
  145SAPE  H19S15982   2.461   3.209   8.516  1.1895  1.3660 -0.0894
  145SAPE  C22015983   2.663   3.200   8.429 -1.2579  0.2855  0.4657
  145SAPE  H20R15984   2.696   3.281   8.497 -1.0112  1.4909 -1.0650
  145SAPE  H20S15985   2.706   3.213   8.327  0.1277 -0.5155  0.9376
  145SAPE  H20T15986   2.691   3.098   8.461 -0.4264  0.6650  0.9568
  145SAPE   C3315987   2.004   2.899   9.196  0.0925  0.1891  0.2385
  145SAPE   H3X15988   1.953   2.801   9.180 -0.8807  0.4489  1.5617
  145SAPE   H3Y15989   2.112   2.887   9.219  0.5777  0.2832 -1.9087
  145SAPE   C3415990   1.989   2.981   9.063 -0.0659  0.8657 -0.3997
  145SAPE   H4X15991   2.032   3.083   9.066  0.9019  0.6038 -3.5498
  145SAPE   H4Y15992   1.881   2.979   9.035 -0.7369  0.1675  2.0146
  145SAPE   C3515993   2.077   2.925   8.953 -0.3208  0.2835 -0.0700
  145SAPE   H5X15994   2.062   3.005   8.878 -1.1320 -0.8234 -1.1170
  145SAPE   H5Y15995   2.043   2.824   8.919 -1.0432  0.2961  0.6047
  145SAPE   C3615996   2.226   2.907   8.982 -0.5429  0.2184 -0.9294
  145SAPE   H6X15997   2.250   2.820   9.046  0.5614 -1.1651 -3.1780
  145SAPE   H6Y15998   2.245   2.992   9.051  2.9225 -0.5447 -0.8802
  145SAPE   C3715999   2.320   2.928   8.858 -0.0887  0.0656  0.0606
  145SAPE   H7X16000   2.411   2.966   8.907 -0.0324  2.1840 -1.6023
  145SAPE   H7Y16001   2.294   3.010   8.788 -0.4695 -0.1534 -0.0583
  145SAPE   C3816002   2.341   2.804   8.768 -0.2844 -0.3083  0.0828
  145SAPE   H8X16003   2.245   2.776   8.719 -0.1987  1.6072 -1.2412
  145SAPE   H8Y16004   2.377   2.717   8.826 -0.5681 -0.4036  0.1160
  145SAPE   C3916005   2.457   2.829   8.661 -0.6454  0.3392 -0.4123
  145SAPE   H9X16006   2.552   2.842   8.716 -0.6419  0.8966 -0.5411
  145SAPE   H9Y16007   2.446   2.929   8.612  0.4186 -0.7148 -2.8789
  145SAPE  C31016008   2.479   2.723   8.557 -0.8021  0.4490 -0.2205
  145SAPE  H10X16009   2.377   2.702   8.518 -1.1161  0.3584  0.6435
  145SAPE  H10Y16010   2.514   2.631   8.607  0.0301  0.7428 -0.2544
  145SAPE  C31116011   2.559   2.766   8.431 -0.1789 -0.3103 -0.1991
  145SAPE  H11X16012   2.668   2.752   8.445 -0.0878  2.2672  2.1024
  145SAPE  H11Y16013   2.525   2.872   8.433 -2.2943 -0.9823  1.4818
  145SAPE  C31216014   2.505   2.707   8.298 -0.4097  0.1993 -0.0742
  145SAPE  H12X16015   2.395   2.721   8.303 -0.6747 -1.1564 -1.6175
  145SAPE  H12Y16016   2.526   2.598   8.307 -0.1598  0.2178 -0.4298
  145SAPE  C31316017   2.578   2.761   8.175 -0.2175 -0.1495 -0.0160
  145SAPE  H13X16018   2.543   2.719   8.079  0.3506  2.5504 -1.4655
  145SAPE  H13Y16019   2.689   2.750   8.176 -0.2534 -0.5223 -0.3240
  145SAPE  C31416020   2.575   2.915   8.150  0.0247 -0.2087 -0.4289
  145SAPE  H14X16021   2.625   2.968   8.234 -0.0503  0.6373 -0.9229
  145SAPE  H14Y16022   2.467   2.941   8.149 -0.0088 -0.2361  0.8405
  145SAPE  C31516023   2.635   2.944   8.021 -0.6448  0.7811  0.6210
  145SAPE  H15X16024   2.615   2.863   7.948  2.2576  2.3662 -2.0913
  145SAPE  H15Y16025   2.745   2.954   8.036 -0.1230 -1.5502 -1.3019
  145SAPE  C31616026   2.588   3.076   7.959 -0.2236 -0.1514  0.8646
  145SAPE  H16X16027   2.614   3.159   8.027 -0.6913  0.6318  0.0964
  145SAPE  H16Y16028   2.477   3.073   7.950 -0.1861  1.4430 -0.3709
  145SAPE  C31716029   2.653   3.114   7.827  1.2989 -0.2303  0.8112
  145SAPE  H17X16030   2.622   3.031   7.760  0.4100 -0.1609  1.1318
  145SAPE  H17Y16031   2.762   3.120   7.845  2.2335 -1.0316 -3.9297
  145SAPE  C31816032   2.602   3.249   7.777  0.7838  0.8799 -0.8777
  145SAPE  H18X16033   2.646   3.273   7.678  0.1662  0.7253 -1.1949
  145SAPE  H18Y16034   2.641   3.324   7.850 -0.8957 -1.9114  3.0801
  145SAPE  H18Z16035   2.492   3.259   7.768  0.4670 -1.0322  0.5249
  146SAPE     N16036   2.142   2.503   9.794 -0.0291 -0.0960  0.5757
  146SAPE   HN116037   2.097   2.502   9.888 -1.7965  3.7794 -0.1005
  146SAPE   HN216038   2.111   2.426   9.732  2.1884 -0.9693  0.5260
  146SAPE   HN316039   2.244   2.485   9.799  0.0210 -2.0602 -4.6089
  146SAPE   C1216040   2.092   2.630   9.725  0.1673 -0.4799 -0.3020
  146SAPE  H12A16041   2.125   2.627   9.619  0.7935  0.2079 -0.1248
  146SAPE  H12B16042   2.142   2.717   9.773 -0.9351 -0.5941  1.1077
  146SAPE   C1116043   1.936   2.631   9.739  0.4063  0.0053  0.1689
  146SAPE  H11A16044   1.889   2.545   9.687  0.2686  0.2307 -0.0836
  146SAPE  H11B16045   1.896   2.717   9.683  1.3756  0.1250 -0.3551
  146SAPE     P16046   1.866   2.531   9.971 -0.1653  0.2453 -0.2632
  146SAPE   O1316047   1.994   2.522  10.046  0.2095  0.0799 -0.9077
  146SAPE   O1416048   1.737   2.564  10.047 -0.2398  0.1435  0.2889
  146SAPE   O1216049   1.884   2.654   9.874 -0.1831  0.1300 -0.1984
  146SAPE   O1116050   1.855   2.404   9.883  0.4159  0.6901 -0.3389
  146SAPE    C116051   1.804   2.278   9.933 -0.4729  0.5189  0.1572
  146SAPE    HA16052   1.892   2.211   9.940  0.1009  1.3253  0.6913
  146SAPE    HB16053   1.749   2.290  10.029  2.2668  1.8590  1.6218
  146SAPE    C216054   1.702   2.211   9.830 -0.5161 -0.2357 -0.4355
  146SAPE    HS16055   1.669   2.115   9.876 -0.7063  0.1849  0.3141
  146SAPE   O2116056   1.771   2.196   9.707 -0.0685 -0.6938  0.1015
  146SAPE   C2116057   1.700   2.139   9.611 -0.1389  0.1882 -0.0951
  146SAPE   O2216058   1.590   2.092   9.627  0.4826  0.3226  0.2084
  146SAPE   C2216059   1.772   2.177   9.481  0.1617  0.4186 -0.3281
  146SAPE   H2R16060   1.773   2.287   9.473 -1.8111  0.4826 -0.1077
  146SAPE   H2S16061   1.877   2.143   9.476 -0.1899 -0.5216 -1.6529
  146SAPE    C316062   1.580   2.309   9.821 -0.5844  0.3750 -0.0719
  146SAPE    HX16063   1.543   2.320   9.925  0.5119  0.0799  0.3510
  146SAPE    HY16064   1.492   2.258   9.775 -1.1994  0.5500  0.8899
  146SAPE   O3116065   1.614   2.431   9.747 -0.0429 -0.3151  0.2567
  146SAPE   C3116066   1.511   2.523   9.746 -0.3675  0.5893 -0.3645
  146SAPE   O3216067   1.414   2.508   9.818  0.0211 -0.1182 -0.0438
  146SAPE   C3216068   1.536   2.624   9.639 -0.7292  0.2104  0.1994
  146SAPE   H2X16069   1.584   2.714   9.684 -1.0200 -0.2342  1.4137
  146SAPE   H2Y16070   1.441   2.656   9.591 -1.4275 -3.6631 -1.1567
  146SAPE   C2316071   1.698   2.130   9.359  0.5377 -0.0465  0.0038
  146SAPE   H3R16072   1.751   2.160   9.265  0.8942 -1.0250 -0.1105
  146SAPE   H3S16073   1.594   2.167   9.367  0.4398 -0.7980  2.4825
  146SAPE   C2416074   1.690   1.974   9.356  0.4160 -0.9021 -0.5221
  146SAPE   H4R16075   1.648   1.949   9.257  0.7485 -0.2282 -0.8367
  146SAPE   H4S16076   1.623   1.941   9.439 -0.6672  0.8540 -0.6804
  146SAPE   C2516077   1.821   1.899   9.378 -0.1260  0.6116  0.3204
  146SAPE   H5R16078   1.845   1.877   9.483 -0.4575 -2.2785 -0.1680
  146SAPE   C2616079   1.900   1.852   9.278 -0.3540 -0.0445 -0.0656
  146SAPE   H6R16080   1.989   1.796   9.310 -0.4282  0.4552  1.0122
  146SAPE   C2716081   1.871   1.869   9.130 -0.0835 -0.8430  0.1628
  146SAPE   H7R16082   1.964   1.906   9.083  0.6038 -0.3317  1.9019
  146SAPE   H7S16083   1.791   1.946   9.118 -1.0939 -1.7460  0.9238
  146SAPE   C2816084   1.813   1.746   9.070 -0.9328 -0.6160  0.1699
  146SAPE   H8R16085   1.727   1.701   9.122 -1.5691 -1.8491 -1.8594
  146SAPE   C2916086   1.851   1.697   8.952  0.6305  0.2273  0.5362
  146SAPE   H9R16087   1.800   1.611   8.905  2.2070  0.2897 -1.3362
  146SAPE  C21016088   1.953   1.761   8.876  0.1383 -0.3072  0.2296
  146SAPE  H10R16089   2.046   1.752   8.936  0.8352  2.6673 -0.3248
  146SAPE  H10S16090   1.931   1.868   8.856 -0.1556  0.2899  3.5948
  146SAPE  C21116091   1.986   1.687   8.749 -0.0754 -0.0693 -0.0704
  146SAPE  H11R16092   2.053   1.603   8.775  1.7644  1.7165  1.1281
  146SAPE  C21216093   1.948   1.715   8.630  0.1189 -0.4955 -0.1716
  146SAPE  H12R16094   1.976   1.641   8.554 -0.6691 -2.0925  1.0714
  146SAPE  C21316095   1.858   1.828   8.584 -0.0207 -0.0125  0.1761
  146SAPE  H13R16096   1.917   1.921   8.595 -2.1299  1.3664  0.0125
  146SAPE  H13S16097   1.770   1.827   8.651 -0.0122  0.9819  0.2120
  146SAPE  C21416098   1.827   1.802   8.437  0.3316  0.2945  0.1326
  146SAPE  H14R16099   1.798   1.702   8.401 -1.7927  1.8310 -2.6576
  146SAPE  C21516100   1.815   1.896   8.340 -0.3416  0.2435  0.6149
  146SAPE  H15R16101   1.783   1.858   8.242  0.6720 -1.6549  1.0044
  146SAPE  C21616102   1.847   2.049   8.354  1.2942  0.1337  0.1247
  146SAPE  H16R16103   1.793   2.093   8.440  1.1755  0.6338 -0.2023
  146SAPE  H16S16104   1.803   2.095   8.263  1.7259  0.1501 -0.0757
  146SAPE  C21716105   1.995   2.089   8.378  0.0221 -0.0962  0.3444
  146SAPE  H17R16106   2.056   2.055   8.291  0.1082  1.3080 -0.1577
  146SAPE  H17S16107   2.038   2.048   8.472  0.0146 -2.0359 -0.4617
  146SAPE  C21816108   2.019   2.243   8.386  0.1272  0.0847 -0.0217
  146SAPE  H18R16109   1.935   2.276   8.452  0.9952  1.2662  0.4987
  146SAPE  H18S16110   2.014   2.289   8.286 -0.5131  1.6625  0.7235
  146SAPE  C21916111   2.146   2.284   8.462  0.1863 -0.7224 -0.0398
  146SAPE  H19R16112   2.146   2.396   8.462  1.4733 -0.7062  0.4487
  146SAPE  H19S16113   2.231   2.270   8.391 -0.1358  0.0676 -0.5924
  146SAPE  C22016114   2.173   2.238   8.605  0.5440  0.5365 -0.1983
  146SAPE  H20R16115   2.266   2.290   8.638  1.2130 -1.3447  1.0044
  146SAPE  H20S16116   2.199   2.129   8.608  0.9068  0.6568  1.8407
  146SAPE  H20T16117   2.095   2.258   8.681  0.1962 -1.2595 -0.0501
  146SAPE   C3316118   1.625   2.565   9.528 -0.2801  0.1547 -0.4747
  146SAPE   H3X16119   1.577   2.486   9.467 -0.5468  0.1141 -0.2142
  146SAPE   H3Y16120   1.716   2.530   9.580 -1.6269 -0.3212  1.6272
  146SAPE   C3416121   1.679   2.668   9.420 -0.0028  0.3945 -0.6664
  146SAPE   H4X16122   1.733   2.752   9.470 -0.6169 -0.5021  1.5543
  146SAPE   H4Y16123   1.585   2.718   9.388 -0.3888  1.8169  2.4932
  146SAPE   C3516124   1.755   2.593   9.313 -0.3234 -0.0384  1.1787
  146SAPE   H5X16125   1.767   2.650   9.219 -0.1712 -2.2047 -0.1586
  146SAPE   H5Y16126   1.697   2.499   9.297 -0.3822  0.4102 -1.3278
  146SAPE   C3616127   1.893   2.542   9.362 -0.3907  0.1254 -0.2736
  146SAPE   H6X16128   1.889   2.509   9.468  0.6436  2.1431  0.4236
  146SAPE   H6Y16129   1.966   2.627   9.361 -0.8793  0.5347 -2.0006
  146SAPE   C3716130   1.959   2.428   9.276 -0.0733  0.2769  0.4369
  146SAPE   H7X16131   1.891   2.340   9.271  1.8302 -1.2043  0.4618
  146SAPE   H7Y16132   2.049   2.394   9.331  0.6202  0.0159 -0.8369
  146SAPE   C3816133   1.986   2.475   9.128 -0.2172 -0.7752  0.0581
  146SAPE   H8X16134   2.079   2.535   9.136  0.1027 -1.5534  2.5407
  146SAPE   H8Y16135   1.906   2.546   9.098 -1.2605 -1.6505  0.7180
  146SAPE   C3916136   1.997   2.359   9.028  0.1236 -0.1604 -0.5781
  146SAPE   H9X16137   2.063   2.275   9.059 -0.2257 -0.1411  0.2296
  146SAPE   H9Y16138   2.042   2.421   8.947 -1.0689 -0.0860 -1.2010
  146SAPE  C31016139   1.860   2.302   9.002  0.5889 -0.3123  0.0519
  146SAPE  H10X16140   1.785   2.382   8.987 -0.2915 -0.8146  1.7029
  146SAPE  H10Y16141   1.818   2.253   9.092  1.6376  2.0624  1.8640
  146SAPE  C31116142   1.853   2.204   8.884 -0.6556  0.0065 -0.1328
  146SAPE  H11X16143   1.930   2.125   8.897 -0.3955  0.6287  2.4929
  146SAPE  H11Y16144   1.873   2.254   8.787 -3.0006 -0.9871 -1.1804
  146SAPE  C31216145   1.724   2.123   8.879  0.4461 -0.4296  0.2102
  146SAPE  H12X16146   1.689   2.105   8.983 -1.6350  0.4188 -0.3216
  146SAPE  H12Y16147   1.748   2.025   8.832 -2.1896 -1.4474  0.8766
  146SAPE  C31316148   1.603   2.188   8.802 -0.6649 -0.4743 -0.4019
  146SAPE  H13X16149   1.595   2.293   8.837  1.3872 -0.2070 -0.6810
  146SAPE  H13Y16150   1.510   2.132   8.828 -1.2020 -0.7440 -2.7564
  146SAPE  C31416151   1.624   2.181   8.653 -0.4020 -0.1020 -0.3486
  146SAPE  H14X16152   1.629   2.074   8.624  1.7691  0.0594 -0.6154
  146SAPE  H14Y16153   1.722   2.227   8.631 -0.0377 -1.0791 -0.7630
  146SAPE  C31516154   1.511   2.258   8.578  0.5805  0.1575  0.4977
  146SAPE  H15X16155   1.481   2.348   8.635  0.6726  1.8049 -1.9834
  146SAPE  H15Y16156   1.418   2.198   8.572  0.2363  0.7198  0.1248
  146SAPE  C31616157   1.561   2.293   8.440 -0.0283  0.3196 -0.0948
  146SAPE  H16X16158   1.608   2.200   8.403 -0.9267 -0.3524  0.4333
  146SAPE  H16Y16159   1.640   2.370   8.449 -0.4933  0.7416  0.4585
  146SAPE  C31716160   1.463   2.344   8.342 -0.4598 -0.2511 -0.1926
  146SAPE  H17X16161   1.378   2.273   8.343  0.3286 -1.2008 -0.2468
  146SAPE  H17Y16162   1.496   2.346   8.236 -1.7469 -0.4694 -0.6086
  146SAPE  C31816163   1.404   2.478   8.387 -0.2067 -0.4046 -0.5766
  146SAPE  H18X16164   1.496   2.539   8.401 -0.5522  0.2753 -1.2810
  146SAPE  H18Y16165   1.358   2.457   8.486 -1.1644  1.2334 -0.6680
  146SAPE  H18Z16166   1.334   2.521   8.313 -0.2542  0.6044  0.0525
  147SAPE     N16167   4.825   5.886  10.337  0.9792 -0.6062  0.2568
  147SAPE   HN116168   4.913   5.878  10.284  0.5812  2.3765 -0.9778
  147SAPE   HN216169   4.850   5.901  10.437  0.7795  0.3594  0.1702
  147SAPE   HN316170   4.769   5.801  10.317  0.5603 -0.0551 -0.9180
  147SAPE   C1216171   4.754   6.004  10.279 -0.7772  0.0565  0.1895
  147SAPE  H12A16172   4.822   6.090  10.294 -3.0841  1.6094  2.2650
  147SAPE  H12B16173   4.664   6.026  10.342 -0.7231  0.9013 -0.0293
  147SAPE   C1116174   4.726   5.993  10.130  0.5050 -0.1425  0.0409
  147SAPE  H11A16175   4.668   5.901  10.105 -0.9787  0.5928  0.7139
  147SAPE  H11B16176   4.826   5.984  10.083  0.6099  1.5147 -0.0725
  147SAPE     P16177   4.702   6.179   9.953  0.0121  0.1176 -0.0109
  147SAPE   O1316178   4.605   6.284   9.920 -0.1405  0.1583  0.4563
  147SAPE   O1416179   4.846   6.219   9.950 -0.5778 -0.4777 -0.4925
  147SAPE   O1216180   4.649   6.109  10.088 -0.2433  0.4109  0.3392
  147SAPE   O1116181   4.693   6.067   9.849  0.3746 -0.0296  1.1431
  147SAPE    C116182   4.560   6.024   9.814  0.0465 -0.6025 -0.5411
  147SAPE    HA16183   4.515   5.972   9.901 -1.6952  0.4319 -0.7962
  147SAPE    HB16184   4.493   6.110   9.791 -1.8864 -2.0179 -0.2900
  147SAPE    C216185   4.544   5.931   9.693  0.4408  0.4556  0.4865
  147SAPE    HS16186   4.592   5.835   9.719  0.2642  0.5576  1.1801
  147SAPE   O2116187   4.602   6.000   9.577 -0.2560  0.0581  0.0939
  147SAPE   C2116188   4.669   5.918   9.499 -0.0581  0.3932  0.5500
  147SAPE   O2216189   4.684   5.796   9.518 -0.0548  0.2002 -0.0800
  147SAPE   C2216190   4.720   5.991   9.376 -0.3635  0.4839  0.5015
  147SAPE   H2R16191   4.631   6.036   9.329  0.0408  0.2535 -0.4903
  147SAPE   H2S16192   4.792   6.067   9.412 -0.2561  0.8540 -0.4890
  147SAPE    C316193   4.393   5.897   9.669 -0.3470  0.6055 -0.0391
  147SAPE    HX16194   4.366   5.856   9.768 -1.3298  1.8219  0.2068
  147SAPE    HY16195   4.379   5.828   9.583 -0.2236  0.7027 -0.1361
  147SAPE   O3116196   4.305   6.012   9.655 -0.6791 -0.4411  0.0488
  147SAPE   C3116197   4.291   6.048   9.522  0.2290  0.8739 -0.3931
  147SAPE   O3216198   4.362   6.013   9.432  0.3497  0.6119  0.1905
  147SAPE   C3216199   4.174   6.141   9.514  0.9087 -0.3296  0.3076
  147SAPE   H2X16200   4.187   6.225   9.586  0.7997 -0.1870  0.1622
  147SAPE   H2Y16201   4.082   6.092   9.555  0.7960  1.1324  1.8800
  147SAPE   C2316202   4.797   5.898   9.283 -0.3483 -0.5439  0.2352
  147SAPE   H3R16203   4.742   5.810   9.242  1.7830 -1.7861 -0.0100
  147SAPE   H3S16204   4.885   5.866   9.342 -1.5283 -2.7955  0.8538
  147SAPE   C2416205   4.858   5.976   9.169 -0.6463 -0.1242 -0.4485
  147SAPE   H4R16206   4.934   6.048   9.205  0.6131 -1.2507 -0.8093
  147SAPE   H4S16207   4.783   6.038   9.116 -0.8981 -0.2776 -0.2707
  147SAPE   C2516208   4.919   5.885   9.065  0.2594  0.2122  0.0600
  147SAPE   H5R16209   5.024   5.851   9.072  0.2779 -0.4570 -2.7197
  147SAPE   C2616210   4.857   5.848   8.951  0.3597  0.3643 -0.2245
  147SAPE   H6R16211   4.910   5.783   8.879 -0.0521  1.7841 -1.8531
  147SAPE   C2716212   4.722   5.883   8.902 -0.1134 -0.2109  0.1112
  147SAPE   H7R16213   4.654   5.863   8.987  1.9654 -0.9231  1.6465
  147SAPE   H7S16214   4.711   5.806   8.822 -0.7903  0.3020 -0.2884
  147SAPE   C2816215   4.682   6.014   8.850 -0.1923  0.4981 -0.1466
  147SAPE   H8R16216   4.711   6.102   8.911  0.3211  1.2859 -1.4989
  147SAPE   C2916217   4.640   6.038   8.722  0.0215  0.0516  0.1932
  147SAPE   H9R16218   4.624   6.141   8.688 -0.2859 -0.0756 -0.0517
  147SAPE  C21016219   4.627   5.938   8.606  0.3398 -0.0520 -0.2584
  147SAPE  H10R16220   4.542   5.869   8.624  0.7051 -0.5796 -0.5634
  147SAPE  H10S16221   4.714   5.870   8.611  0.9494  0.7019 -0.5058
  147SAPE  C21116222   4.613   6.017   8.473  0.7743  0.1617  1.3584
  147SAPE  H11R16223   4.697   6.080   8.439  0.7458 -1.6719 -2.2744
  147SAPE  C21216224   4.501   6.010   8.397 -0.0078 -0.0221  0.2382
  147SAPE  H12R16225   4.505   6.072   8.306 -0.2983  0.2760  0.4284
  147SAPE  C21316226   4.372   5.925   8.412 -0.7312  0.4086 -0.3187
  147SAPE  H13R16227   4.398   5.817   8.420 -1.5149  0.3434  1.5210
  147SAPE  H13S16228   4.307   5.932   8.323 -1.6281 -1.3840  0.1768
  147SAPE  C21416229   4.297   5.978   8.532 -0.8664 -0.8565 -0.1106
  147SAPE  H14R16230   4.355   6.016   8.618 -0.0838  0.9962 -1.4456
  147SAPE  C21516231   4.168   5.971   8.558  0.0814  0.0203  0.0380
  147SAPE  H15R16232   4.130   6.004   8.656 -0.0983  2.3323 -0.7822
  147SAPE  C21616233   4.061   5.902   8.477  0.8465  0.2686 -0.4672
  147SAPE  H16R16234   4.094   5.891   8.372  2.0848  1.2774 -0.2044
  147SAPE  H16S16235   3.969   5.964   8.469  0.7625  0.4172  1.4357
  147SAPE  C21716236   4.017   5.764   8.515  0.5382  0.3142 -0.3817
  147SAPE  H17R16237   3.931   5.742   8.447  1.2295 -0.9665 -0.8529
  147SAPE  H17S16238   3.971   5.752   8.615  1.3040  2.6902  0.2985
  147SAPE  C21816239   4.123   5.656   8.484 -0.6363 -0.3048  0.5771
  147SAPE  H18R16240   4.192   5.667   8.571 -0.4591  2.6089  0.1344
  147SAPE  H18S16241   4.177   5.685   8.391 -0.6263 -2.0647  0.0212
  147SAPE  C21916242   4.075   5.512   8.465 -0.4736 -0.8948 -0.3652
  147SAPE  H19R16243   4.005   5.484   8.546 -0.7163 -1.6571 -0.8340
  147SAPE  H19S16244   4.151   5.431   8.471  0.3561 -0.0549  0.7940
  147SAPE  C22016245   4.001   5.494   8.331 -0.4925 -0.4409 -0.1654
  147SAPE  H20R16246   3.934   5.406   8.330 -1.6929  0.4731 -1.2898
  147SAPE  H20S16247   4.084   5.485   8.257  1.4374  5.3781  1.0646
  147SAPE  H20T16248   3.936   5.583   8.320 -0.0992  0.2778  2.9440
  147SAPE   C3316249   4.127   6.162   9.370  1.0061 -0.3316 -0.1087
  147SAPE   H3X16250   4.210   6.194   9.303  0.9969 -1.8226 -0.8570
  147SAPE   H3Y16251   4.055   6.247   9.370 -0.5264 -1.5706  2.1674
  147SAPE   C3416252   4.061   6.048   9.299 -0.4659  0.6628 -0.1783
  147SAPE   H4X16253   3.955   6.051   9.333 -0.3233  0.5631  0.2854
  147SAPE   H4Y16254   4.107   5.950   9.322 -0.3868  0.7792  0.1725
  147SAPE   C3516255   4.065   6.069   9.144  0.2494 -0.6400 -0.1285
  147SAPE   H5X16256   4.017   5.982   9.094  0.1258 -1.0434  0.6792
  147SAPE   H5Y16257   4.168   6.077   9.104  0.1627  1.2943  0.0175
  147SAPE   C3616258   3.997   6.201   9.106  0.2672 -0.0675 -0.5414
  147SAPE   H6X16259   4.079   6.275   9.116 -0.3311  0.2680  2.3713
  147SAPE   H6Y16260   3.905   6.223   9.164  0.0903 -0.3385 -0.7234
  147SAPE   C3716261   3.963   6.225   8.963  0.0320  0.3079  0.4790
  147SAPE   H7X16262   3.911   6.133   8.927  0.1718 -0.0665  1.2296
  147SAPE   H7Y16263   4.057   6.243   8.907 -1.2730  0.6899 -1.6429
  147SAPE   C3816264   3.864   6.344   8.950 -0.8077  0.7331 -0.3243
  147SAPE   H8X16265   3.896   6.419   9.025  1.6456 -0.2265 -0.3680
  147SAPE   H8Y16266   3.765   6.302   8.978 -0.3794  0.8294  1.3808
  147SAPE   C3916267   3.855   6.392   8.807  0.3526 -0.3030  1.1589
  147SAPE   H9X16268   3.956   6.427   8.779 -0.7826  0.7777 -1.8062
  147SAPE   H9Y16269   3.797   6.487   8.807  0.2794 -0.3090  3.9319
  147SAPE  C31016270   3.794   6.289   8.699  0.1972 -0.6868 -1.0748
  147SAPE  H10X16271   3.710   6.238   8.750  1.3535 -1.3494  0.1847
  147SAPE  H10Y16272   3.867   6.206   8.687  0.2994 -0.5604 -1.3429
  147SAPE  C31116273   3.736   6.358   8.577  0.3587  0.2212  0.0073
  147SAPE  H11X16274   3.670   6.444   8.600  0.0674 -0.0753  0.2817
  147SAPE  H11Y16275   3.680   6.291   8.509  1.2497  0.0879 -0.6131
  147SAPE  C31216276   3.849   6.410   8.484  0.0192 -0.0833  0.5100
  147SAPE  H12X16277   3.920   6.470   8.544  1.0325 -2.6332  1.9287
  147SAPE  H12Y16278   3.809   6.476   8.404  2.2459  0.4963 -0.1549
  147SAPE  C31316279   3.940   6.309   8.422 -0.0156  0.5105  0.4779
  147SAPE  H13X16280   3.883   6.220   8.389  0.1779  0.7794 -0.5910
  147SAPE  H13Y16281   4.004   6.277   8.507  1.2038  0.3399 -0.4935
  147SAPE  C31416282   4.035   6.371   8.317 -0.0103 -0.3202  0.7564
  147SAPE  H14X16283   4.093   6.449   8.371  0.5539 -0.2546  0.0611
  147SAPE  H14Y16284   3.981   6.437   8.247 -0.0333 -0.9116  0.2134
  147SAPE  C31516285   4.118   6.267   8.242 -0.7910  0.1074 -1.0505
  147SAPE  H15X16286   4.115   6.174   8.302 -1.5919  1.3888  0.9397
  147SAPE  H15Y16287   4.222   6.302   8.226 -0.9844  1.7628  1.0736
  147SAPE  C31616288   4.057   6.252   8.104  0.1175  0.3844  0.3507
  147SAPE  H16X16289   4.054   6.348   8.048 -0.0331 -0.7997 -1.7144
  147SAPE  H16Y16290   3.956   6.206   8.096  0.6942 -0.8735  0.1939
  147SAPE  C31716291   4.147   6.175   8.010 -0.0191 -0.0167 -0.6271
  147SAPE  H17X16292   4.246   6.225   8.012 -0.0725  0.1797 -2.1347
  147SAPE  H17Y16293   4.101   6.175   7.909  0.5973 -1.9306 -0.9232
  147SAPE  C31816294   4.161   6.026   8.053  0.6995 -0.5001  0.8110
  147SAPE  H18X16295   4.061   5.985   8.028  0.4955  1.1525 -1.2108
  147SAPE  H18Y16296   4.181   6.024   8.162 -1.4721 -0.0746  1.2478
  147SAPE  H18Z16297   4.226   5.978   7.977  2.2532  1.1641  1.0593
  148SAPE     N16298   3.412   0.884  10.279 -0.3595 -0.2563 -0.2789
  148SAPE   HN116299   3.484   0.869  10.206 -0.5140 -0.0198 -0.4779
  148SAPE   HN216300   3.470   0.906  10.362 -2.0928 -2.2112  1.5508
  148SAPE   HN316301   3.357   0.799  10.304 -0.7855 -0.1607 -0.8592
  148SAPE   C1216302   3.329   1.003  10.234 -0.0338 -0.3989  0.0443
  148SAPE  H12A16303   3.298   1.053  10.328  2.0900  0.2548  0.4178
  148SAPE  H12B16304   3.236   0.970  10.183 -0.0232  1.1615 -1.0355
  148SAPE   C1116305   3.415   1.111  10.163 -0.3429  0.2148  0.1603
  148SAPE  H11A16306   3.491   1.154  10.231 -2.4608  1.7928  1.6113
  148SAPE  H11B16307   3.341   1.189  10.134 -0.1976  0.1958 -0.2695
  148SAPE     P16308   3.597   1.105   9.961 -0.0626  0.2301  0.0181
  148SAPE   O1316309   3.652   1.228  10.031 -0.6914  0.9435 -0.0680
  148SAPE   O1416310   3.690   0.996   9.935  0.8816  0.2862  0.0032
  148SAPE   O1216311   3.477   1.055  10.044  0.5059  0.1298  0.0933
  148SAPE   O1116312   3.525   1.149   9.826  0.2404 -0.4585 -0.2986
  148SAPE    C116313   3.462   1.276   9.820 -0.8129  0.4384  0.0872
  148SAPE    HA16314   3.496   1.347   9.898  0.6547 -0.3161  0.1537
  148SAPE    HB16315   3.468   1.305   9.713 -0.5150  0.0455 -0.0056
  148SAPE    C216316   3.312   1.260   9.840  0.5241 -0.3639 -0.4800
  148SAPE    HS16317   3.299   1.210   9.939  0.8033 -0.6842 -0.6048
  148SAPE   O2116318   3.255   1.172   9.743  0.1561 -0.0716 -0.5488
  148SAPE   C2116319   3.133   1.121   9.773 -0.4086  0.6143 -0.3387
  148SAPE   O2216320   3.065   1.153   9.871 -0.8233  0.2000 -0.2077
  148SAPE   C2216321   3.089   1.026   9.660 -0.5168 -0.6694  0.2237
  148SAPE   H2R16322   3.042   1.098   9.590  0.9974  0.1835  0.0682
  148SAPE   H2S16323   3.176   0.971   9.618 -0.5845 -1.2089  0.7715
  148SAPE    C316324   3.241   1.401   9.841  0.2164 -0.2602 -0.0327
  148SAPE    HX16325   3.294   1.462   9.917 -0.0123  0.7470 -0.6686
  148SAPE    HY16326   3.136   1.391   9.877  0.1543 -1.9275 -0.6123
  148SAPE   O3116327   3.237   1.465   9.715 -0.1602 -1.1568 -0.4388
  148SAPE   C3116328   3.147   1.433   9.632  0.6732 -0.8634 -0.4323
  148SAPE   O3216329   3.047   1.365   9.654 -0.0248  0.4630 -0.0647
  148SAPE   C3216330   3.182   1.500   9.502  0.5123 -0.2166 -0.5732
  148SAPE   H2X16331   3.170   1.610   9.514  0.5666 -0.3556  0.7946
  148SAPE   H2Y16332   3.103   1.464   9.433 -1.9079  0.5035  1.7380
  148SAPE   C2316333   2.978   0.927   9.702  0.6154  0.5852 -0.4205
  148SAPE   H3R16334   2.884   0.974   9.739  1.0431 -0.6454  2.2884
  148SAPE   H3S16335   3.013   0.860   9.783 -0.8832  0.7986  0.4205
  148SAPE   C2416336   2.949   0.817   9.595 -0.7113  0.5791 -0.8244
  148SAPE   H4R16337   2.904   0.726   9.640 -0.0208  0.6995  0.1143
  148SAPE   H4S16338   3.044   0.793   9.543 -0.5851  0.1157 -0.3753
  148SAPE   C2516339   2.845   0.878   9.495 -0.2693  0.2159  0.0759
  148SAPE   H5R16340   2.750   0.899   9.547 -1.2008 -1.8188 -0.7664
  148SAPE   C2616341   2.854   0.901   9.361  0.5271 -0.1317  0.6860
  148SAPE   H6R16342   2.772   0.951   9.308 -0.8250 -2.7687  0.2472
  148SAPE   C2716343   2.971   0.868   9.270  0.4106 -0.3872 -0.1508
  148SAPE   H7R16344   2.920   0.848   9.173  0.5432  2.4466 -0.8285
  148SAPE   H7S16345   3.022   0.772   9.292 -2.4036 -2.3063 -1.6446
  148SAPE   C2816346   3.073   0.982   9.269 -0.1869  0.2055  0.7302
  148SAPE   H8R16347   3.111   1.013   9.367 -3.9319  0.6209  2.1267
  148SAPE   C2916348   3.134   1.032   9.162  0.3423  0.9043  0.7740
  148SAPE   H9R16349   3.204   1.116   9.169 -0.5015  1.5547  1.6092
  148SAPE  C21016350   3.111   0.993   9.015 -0.0548  0.4402  0.2234
  148SAPE  H10R16351   3.083   1.083   8.956 -0.1992 -1.0904 -2.1162
  148SAPE  H10S16352   3.031   0.917   8.998 -0.5261  0.9456  0.1521
  148SAPE  C21116353   3.238   0.938   8.956 -0.4073  0.2518 -1.4269
  148SAPE  H11R16354   3.311   0.920   9.036 -0.0982 -0.5438 -1.8840
  148SAPE  C21216355   3.263   0.919   8.825 -0.5107 -0.4227  0.4153
  148SAPE  H12R16356   3.348   0.857   8.794 -1.7961 -2.1247  0.2710
  148SAPE  C21316357   3.167   0.949   8.714 -0.2007  0.6436  0.9494
  148SAPE  H13R16358   3.068   0.926   8.757  0.1232  0.7504  1.7586
  148SAPE  H13S16359   3.171   0.878   8.628  2.7760  1.2917  0.4780
  148SAPE  C21416360   3.187   1.088   8.666 -0.3228 -0.8012  0.3236
  148SAPE  H14R16361   3.213   1.158   8.747  2.7489 -0.1742 -1.1548
  148SAPE  C21516362   3.163   1.127   8.540 -0.5478 -0.5956  0.2680
  148SAPE  H15R16363   3.175   1.231   8.509 -0.5614 -0.3621  1.0326
  148SAPE  C21616364   3.120   1.044   8.419  0.4977  0.0460  0.5032
  148SAPE  H16R16365   3.020   1.085   8.391  1.3364  1.1455 -0.9352
  148SAPE  H16S16366   3.109   0.936   8.443 -1.3127 -0.0199 -0.5286
  148SAPE  C21716367   3.204   1.057   8.294 -0.8550  0.5781  0.5901
  148SAPE  H17R16368   3.306   1.020   8.318 -0.1129  1.7253 -0.7457
  148SAPE  H17S16369   3.208   1.164   8.264  1.1552  0.6599  1.0609
  148SAPE  C21816370   3.149   0.980   8.171  0.5496  0.3479 -0.1563
  148SAPE  H18R16371   3.066   1.041   8.128 -1.0148 -1.5044  0.1801
  148SAPE  H18S16372   3.100   0.886   8.203 -0.5855  1.7262  2.2572
  148SAPE  C21916373   3.256   0.953   8.060  0.0544 -0.3261  0.8052
  148SAPE  H19R16374   3.323   0.872   8.097  0.2764  0.1201  1.3963
  148SAPE  H19S16375   3.311   1.049   8.055 -0.1530 -0.2395  0.2424
  148SAPE  C22016376   3.193   0.937   7.918  0.2337 -0.0527  0.2982
  148SAPE  H20R16377   3.119   1.017   7.895 -0.3731  0.0171  2.3844
  148SAPE  H20S16378   3.146   0.837   7.907 -1.9403  0.7439  2.0514
  148SAPE  H20T16379   3.273   0.947   7.841 -1.1532  0.8576 -1.0628
  148SAPE   C3316380   3.319   1.456   9.446  0.8567 -0.1914  0.5609
  148SAPE   H3X16381   3.406   1.465   9.515  0.9838  2.8860  0.0808
  148SAPE   H3Y16382   3.329   1.528   9.361 -1.2460  0.4287  0.8131
  148SAPE   C3416383   3.318   1.326   9.369 -0.5746  0.5543 -0.1583
  148SAPE   H4X16384   3.241   1.309   9.290 -0.9174  0.0555  0.2768
  148SAPE   H4Y16385   3.293   1.255   9.450 -1.4091  1.2136  0.1791
  148SAPE   C3516386   3.465   1.291   9.317  0.6170 -0.2694  0.2022
  148SAPE   H5X16387   3.524   1.271   9.409  1.1534  1.2610  0.2153
  148SAPE   H5Y16388   3.506   1.382   9.268 -0.3177  1.3108  2.2986
  148SAPE   C3616389   3.477   1.175   9.220 -0.2620 -0.1342 -0.5723
  148SAPE   H6X16390   3.413   1.196   9.132 -2.0245 -3.6429 -0.2436
  148SAPE   H6Y16391   3.432   1.083   9.263 -0.6147  0.3783  0.1775
  148SAPE   C3716392   3.618   1.145   9.170  1.0328  0.4116  0.6726
  148SAPE   H7X16393   3.616   1.062   9.097  2.0704  2.5350 -1.8325
  148SAPE   H7Y16394   3.678   1.114   9.259  0.5593 -1.4216  0.3807
  148SAPE   C3816395   3.687   1.261   9.091  0.7687 -0.6912 -0.1838
  148SAPE   H8X16396   3.784   1.214   9.065 -0.2172 -2.7343 -0.2538
  148SAPE   H8Y16397   3.708   1.339   9.168 -0.6599 -1.8504  1.4222
  148SAPE   C3916398   3.618   1.326   8.968 -0.0944 -0.0752  0.5006
  148SAPE   H9X16399   3.688   1.404   8.929 -1.3344  1.3345  1.0773
  148SAPE   H9Y16400   3.530   1.384   9.001  1.5186  3.1018 -0.4801
  148SAPE  C31016401   3.563   1.229   8.858 -0.6351 -0.3143 -0.2354
  148SAPE  H10X16402   3.462   1.186   8.872 -0.6708 -0.8758 -2.0694
  148SAPE  H10Y16403   3.633   1.143   8.851 -1.5506 -0.9993 -1.1250
  148SAPE  C31116404   3.592   1.275   8.712 -0.2865 -0.3981 -0.3951
  148SAPE  H11X16405   3.683   1.339   8.715  1.5569 -2.9287 -0.6129
  148SAPE  H11Y16406   3.508   1.332   8.667 -0.6715 -0.2252  0.5317
  148SAPE  C31216407   3.613   1.158   8.615  0.0666 -0.4351 -0.0605
  148SAPE  H12X16408   3.539   1.078   8.636  1.6254 -1.7262  0.6005
  148SAPE  H12Y16409   3.713   1.118   8.642  0.4131 -0.0192 -0.6890
  148SAPE  C31316410   3.616   1.195   8.466 -0.4545 -0.2326 -0.6241
  148SAPE  H13X16411   3.704   1.262   8.460  0.4272 -1.5578 -2.6760
  148SAPE  H13Y16412   3.526   1.255   8.438 -0.0382 -0.1245 -1.7373
  148SAPE  C31416413   3.649   1.078   8.370  0.2233  0.4823 -0.1780
  148SAPE  H14X16414   3.563   1.008   8.380  1.3157 -0.8293  0.0176
  148SAPE  H14Y16415   3.737   1.021   8.404  0.1802 -0.7243 -2.0167
  148SAPE  C31516416   3.683   1.121   8.230  0.3333 -0.0863  1.0307
  148SAPE  H15X16417   3.771   1.061   8.200  1.7169  1.8712  1.0916
  148SAPE  H15Y16418   3.723   1.224   8.224 -0.4698  0.2139  0.7496
  148SAPE  C31616419   3.571   1.118   8.124 -0.9571  0.2339  0.2242
  148SAPE  H16X16420   3.500   1.195   8.162  0.2996  1.2736  0.5025
  148SAPE  H16Y16421   3.522   1.020   8.140  0.3347 -0.5247 -0.3439
  148SAPE  C31716422   3.622   1.141   7.981  0.2812 -0.1267 -0.0293
  148SAPE  H17X16423   3.701   1.066   7.959  1.2329  0.5725  0.9354
  148SAPE  H17Y16424   3.685   1.233   7.982  2.3107 -1.4859  0.6186
  148SAPE  C31816425   3.511   1.139   7.873  0.6976  0.1443  0.7182
  148SAPE  H18X16426   3.564   1.129   7.776  1.3322  1.3647  0.9367
  148SAPE  H18Y16427   3.444   1.227   7.874 -0.2681 -0.5662 -0.0868
  148SAPE  H18Z16428   3.445   1.049   7.877 -0.8629  1.1914 -1.0023
  149SAPE     N16429   0.311   3.932  10.304  0.4973 -0.4748  0.6652
  149SAPE   HN116430   0.407   3.966  10.321  0.1002 -0.0235  2.0744
  149SAPE   HN216431   0.252   4.009  10.342 -2.9243 -1.9812 -1.2920
  149SAPE   HN316432   0.281   3.842  10.347 -2.0832 -0.4688 -0.9934
  149SAPE   C1216433   0.289   3.917  10.157  0.4328  0.3106 -0.4788
  149SAPE  H12A16434   0.253   4.015  10.118 -0.5846 -0.5022 -1.6235
  149SAPE  H12B16435   0.211   3.838  10.149  2.5234 -1.7798 -0.5059
  149SAPE   C1116436   0.410   3.854  10.079  0.8036 -0.3839 -0.2233
  149SAPE  H11A16437   0.499   3.920  10.078  0.1007  0.5702 -1.0354
  149SAPE  H11B16438   0.381   3.863   9.972 -0.1669 -0.8629 -0.0071
  149SAPE     P16439   0.568   3.657  10.140  0.3067 -0.2729 -0.3304
  149SAPE   O1316440   0.621   3.743  10.250  0.2400 -0.1959 -0.3702
  149SAPE   O1416441   0.555   3.510  10.165  0.2859  0.3151  0.6559
  149SAPE   O1216442   0.423   3.712  10.111  0.4194  0.4153 -0.1652
  149SAPE   O1116443   0.646   3.665  10.003  0.0762 -0.3453 -0.2062
  149SAPE    C116444   0.596   3.614   9.879  0.2407  0.4079 -0.0625
  149SAPE    HA16445   0.485   3.614   9.884  0.2561  0.8723  0.3293
  149SAPE    HB16446   0.616   3.688   9.798  0.7041 -1.9420 -2.1796
  149SAPE    C216447   0.640   3.472   9.846  0.2194 -0.4076  0.0163
  149SAPE    HS16448   0.642   3.415   9.940  1.6201 -0.7636 -0.2284
  149SAPE   O2116449   0.773   3.488   9.782  0.4973  0.2020  0.0543
  149SAPE   C2116450   0.841   3.371   9.764  0.2188  0.5642 -0.0375
  149SAPE   O2216451   0.799   3.261   9.804  0.2486 -0.0397  0.4450
  149SAPE   C2216452   0.970   3.391   9.699  0.2440 -0.5494  0.7324
  149SAPE   H2R16453   1.048   3.412   9.776  1.3546 -0.6419 -0.3576
  149SAPE   H2S16454   1.001   3.289   9.666  2.0905 -0.0918  1.0030
  149SAPE    C316455   0.543   3.392   9.754 -0.0977 -0.1731  1.4174
  149SAPE    HX16456   0.444   3.390   9.805 -2.2851 -1.4385 -2.6679
  149SAPE    HY16457   0.576   3.286   9.747 -1.9030 -0.7145  0.7032
  149SAPE   O3116458   0.524   3.467   9.628 -0.4420 -0.0402 -0.1082
  149SAPE   C3116459   0.590   3.408   9.524 -0.8046 -0.4612 -0.1811
  149SAPE   O3216460   0.630   3.294   9.531 -0.4624 -0.2602 -0.7792
  149SAPE   C3216461   0.598   3.498   9.407  0.1057 -0.2151  0.4125
  149SAPE   H2X16462   0.700   3.543   9.403 -0.1582  0.1887 -3.3266
  149SAPE   H2Y16463   0.527   3.583   9.422 -0.0354 -0.2160 -0.2337
  149SAPE   C2316464   0.973   3.488   9.578  0.7815  0.3353  0.3223
  149SAPE   H3R16465   0.976   3.592   9.618  0.7669  0.4840 -0.0577
  149SAPE   H3S16466   0.883   3.467   9.516  0.0860  1.6596  0.8681
  149SAPE   C2416467   1.092   3.485   9.482  0.2303  0.6990  0.0104
  149SAPE   H4R16468   1.184   3.525   9.530  0.1883  1.2222 -0.3418
  149SAPE   H4S16469   1.058   3.557   9.405 -1.6961 -0.0335  0.1308
  149SAPE   C2516470   1.115   3.346   9.427  0.1201  0.2946 -0.3336
  149SAPE   H5R16471   1.121   3.261   9.496 -2.0286 -0.1189 -0.6100
  149SAPE   C2616472   1.116   3.311   9.300  0.1956 -0.1949  0.0576
  149SAPE   H6R16473   1.110   3.205   9.271  0.4112 -0.3410  0.5430
  149SAPE   C2716474   1.093   3.399   9.180 -0.2019  0.3094 -0.2326
  149SAPE   H7R16475   1.035   3.489   9.208  0.2571  0.5344 -0.0003
  149SAPE   H7S16476   1.025   3.336   9.120  0.2191 -0.5559  0.1862
  149SAPE   C2816477   1.215   3.433   9.097 -0.3974  0.7986 -0.0037
  149SAPE   H8R16478   1.313   3.406   9.142 -0.5189  1.4010  0.6329
  149SAPE   C2916479   1.210   3.490   8.977 -0.1239  0.3397 -0.2157
  149SAPE   H9R16480   1.301   3.522   8.924 -0.4425  0.3142 -0.7818
  149SAPE  C21016481   1.079   3.526   8.910  0.1780 -0.2166  0.6476
  149SAPE  H10R16482   1.005   3.578   8.975  0.5387  2.0062 -0.6694
  149SAPE  H10S16483   1.033   3.427   8.886 -1.8181  0.0387  3.2055
  149SAPE  C21116484   1.080   3.614   8.787  0.0031  0.0607 -1.1330
  149SAPE  H11R16485   1.169   3.679   8.782  1.8975 -2.3813 -0.1650
  149SAPE  C21216486   0.978   3.631   8.694 -0.8702  0.1864  0.0307
  149SAPE  H12R16487   1.000   3.697   8.610  0.1199 -0.0018  0.1346
  149SAPE  C21316488   0.844   3.573   8.700  0.7577 -0.0961 -0.3893
  149SAPE  H13R16489   0.838   3.534   8.804 -1.2055  0.0289 -0.4342
  149SAPE  H13S16490   0.844   3.482   8.636 -1.3426  0.1672 -0.7808
  149SAPE  C21416491   0.729   3.667   8.672 -0.5440  0.5274 -0.1805
  149SAPE  H14R16492   0.749   3.752   8.605 -2.0123 -0.8773 -2.4478
  149SAPE  C21516493   0.612   3.666   8.735 -1.3161  0.7044  0.1607
  149SAPE  H15R16494   0.530   3.730   8.699  0.0369  2.5381  0.2993
  149SAPE  C21616495   0.570   3.577   8.850  0.1056  0.7402 -0.0247
  149SAPE  H16R16496   0.598   3.606   8.953  0.9739 -0.1434 -0.0018
  149SAPE  H16S16497   0.620   3.478   8.849  2.0243  1.6988 -1.0892
  149SAPE  C21716498   0.413   3.556   8.849 -0.9405  0.1451  0.2458
  149SAPE  H17R16499   0.369   3.658   8.838 -2.5914 -0.3627  1.8911
  149SAPE  H17S16500   0.377   3.518   8.947  0.6964 -0.0632  0.7776
  149SAPE  C21816501   0.369   3.461   8.731 -0.4075  0.0993 -0.3350
  149SAPE  H18R16502   0.400   3.358   8.756  3.2952  0.4672 -2.9878
  149SAPE  H18S16503   0.403   3.502   8.634  0.8774  1.0554  0.4963
  149SAPE  C21916504   0.213   3.462   8.729 -0.1839  0.1877  0.1488
  149SAPE  H19R16505   0.177   3.467   8.834 -1.1213  3.3082 -0.2623
  149SAPE  H19S16506   0.180   3.365   8.687  0.0219  0.2934 -0.2552
  149SAPE  C22016507   0.148   3.572   8.641  0.1456 -0.0054 -0.9487
  149SAPE  H20R16508   0.192   3.672   8.661  0.2663 -0.5524  1.7111
  149SAPE  H20S16509   0.038   3.582   8.655  0.3589 -0.2604  1.1001
  149SAPE  H20T16510   0.168   3.552   8.534 -0.2273  1.3396 -1.2736
  149SAPE   C3316511   0.569   3.424   9.274  0.2702 -0.1552 -0.5770
  149SAPE   H3X16512   0.550   3.507   9.202 -0.8792 -0.0491 -0.1515
  149SAPE   H3Y16513   0.480   3.359   9.279 -0.2499  0.6497  0.7520
  149SAPE   C3416514   0.687   3.345   9.221 -0.7277  0.5920  0.8890
  149SAPE   H4X16515   0.720   3.267   9.293 -0.1486 -1.2331 -1.2880
  149SAPE   H4Y16516   0.775   3.407   9.193 -2.1038  2.4255  0.5494
  149SAPE   C3516517   0.648   3.268   9.096 -0.1278 -0.3382 -0.4088
  149SAPE   H5X16518   0.580   3.323   9.027  0.9159 -1.5184 -2.4190
  149SAPE   H5Y16519   0.595   3.181   9.141 -1.4161  0.0605 -1.1285
  149SAPE   C3616520   0.762   3.223   9.009  0.2163  0.3691 -0.0830
  149SAPE   H6X16521   0.831   3.155   9.063  2.7949  1.9133 -1.3346
  149SAPE   H6Y16522   0.828   3.312   8.994 -0.2457  0.5607 -1.0037
  149SAPE   C3716523   0.719   3.158   8.876  0.1362  0.3314  0.1944
  149SAPE   H7X16524   0.644   3.227   8.831 -2.8881 -3.1938 -0.4718
  149SAPE   H7Y16525   0.667   3.064   8.905  1.9735 -0.0723  2.2774
  149SAPE   C3816526   0.833   3.112   8.775 -0.1204 -0.2954 -0.3877
  149SAPE   H8X16527   0.855   3.008   8.807  0.1944 -0.0722  0.1324
  149SAPE   H8Y16528   0.919   3.179   8.792 -1.1561  0.6730  1.1079
  149SAPE   C3916529   0.775   3.110   8.635 -0.2048  0.4568 -0.0675
  149SAPE   H9X16530   0.699   3.190   8.629 -2.2417 -1.0447  3.9108
  149SAPE   H9Y16531   0.711   3.020   8.624 -1.0800  1.1221 -0.3933
  149SAPE  C31016532   0.887   3.127   8.525 -0.7497  0.3319  0.2106
  149SAPE  H10X16533   0.946   3.033   8.537 -2.0213 -0.4347  0.5195
  149SAPE  H10Y16534   0.961   3.208   8.544  0.6891 -1.2683  1.6043
  149SAPE  C31116535   0.837   3.122   8.382  0.0179 -0.4616  0.3174
  149SAPE  H11X16536   0.771   3.038   8.349 -0.1138  0.0507 -0.7671
  149SAPE  H11Y16537   0.926   3.118   8.315  1.6430 -0.9614  2.4656
  149SAPE  C31216538   0.759   3.249   8.338  0.4566  0.0817  0.6572
  149SAPE  H12X16539   0.780   3.345   8.389 -0.4975  0.2452  0.7467
  149SAPE  H12Y16540   0.655   3.242   8.375  0.6025  1.1740  1.2999
  149SAPE  C31316541   0.755   3.274   8.178  0.3819 -0.2499 -0.4564
  149SAPE  H13X16542   0.651   3.301   8.152 -0.0404  1.2216  2.5721
  149SAPE  H13Y16543   0.762   3.172   8.134 -2.0388 -2.4897  4.0355
  149SAPE  C31416544   0.856   3.352   8.109  0.0463 -0.0291  0.0706
  149SAPE  H14X16545   0.840   3.456   8.145 -1.9871 -0.1099 -0.5341
  149SAPE  H14Y16546   0.842   3.343   8.000  1.8056  1.4286 -0.2978
  149SAPE  C31516547   1.003   3.307   8.115 -0.0848  0.5957  0.1834
  149SAPE  H15X16548   1.021   3.301   8.224  0.0547  0.2885  0.1456
  149SAPE  H15Y16549   1.072   3.385   8.078  0.7831 -0.0558  0.4057
  149SAPE  C31616550   1.031   3.169   8.052 -0.5390  0.5699  0.0357
  149SAPE  H16X16551   1.020   3.172   7.941 -1.3298 -3.5244 -0.1034
  149SAPE  H16Y16552   0.956   3.095   8.089 -0.1883  0.2969  0.2077
  149SAPE  C31716553   1.164   3.112   8.078 -0.1139 -0.2237 -0.3115
  149SAPE  H17X16554   1.179   3.018   8.021  0.1269  0.3378 -1.1879
  149SAPE  H17Y16555   1.152   3.094   8.186 -1.4860  0.6453 -0.3067
  149SAPE  C31816556   1.275   3.210   8.041 -0.0163 -0.4215  0.2170
  149SAPE  H18X16557   1.278   3.302   8.102  1.4368  0.0815 -0.5910
  149SAPE  H18Y16558   1.264   3.254   7.939 -1.6180 -3.5059 -1.0200
  149SAPE  H18Z16559   1.370   3.154   8.028  0.9259  1.2038  0.0315
  150SAPE     N16560   1.397   1.332  10.003 -0.5334  0.0795  0.0091
  150SAPE   HN116561   1.341   1.269  10.064  1.6621 -1.0258  0.9529
  150SAPE   HN216562   1.348   1.313   9.913 -0.8979  0.7801  0.0558
  150SAPE   HN316563   1.496   1.301  10.010 -0.4933  0.6434  2.1505
  150SAPE   C1216564   1.383   1.482  10.031  0.2349  0.0008 -0.3221
  150SAPE  H12A16565   1.452   1.518  10.110  0.4325 -2.3148  0.5762
  150SAPE  H12B16566   1.282   1.502  10.073  0.5760 -2.7347  1.8534
  150SAPE   C1116567   1.416   1.550   9.901 -0.1785 -0.1446 -0.4682
  150SAPE  H11A16568   1.395   1.659   9.907  0.3184  0.0349 -1.7776
  150SAPE  H11B16569   1.358   1.521   9.812 -0.7552 -0.4533  0.0070
  150SAPE     P16570   1.674   1.591   9.922 -0.1606 -0.0731 -0.3526
  150SAPE   O1316571   1.638   1.660  10.048  0.0177  0.3657 -0.4928
  150SAPE   O1416572   1.789   1.499   9.915  0.2530 -0.4998  0.0821
  150SAPE   O1216573   1.549   1.519   9.860  0.0110  0.3412 -0.4016
  150SAPE   O1116574   1.707   1.704   9.825 -0.4750  0.6761 -0.2809
  150SAPE    C116575   1.682   1.695   9.690  0.7942 -0.4952  0.0249
  150SAPE    HA16576   1.574   1.677   9.672  0.5336 -1.3006  2.2504
  150SAPE    HB16577   1.695   1.794   9.641  1.3870 -1.1638 -1.1819
  150SAPE    C216578   1.768   1.594   9.613 -0.1163 -0.5210  0.6189
  150SAPE    HS16579   1.776   1.502   9.674  0.7582 -0.2484  0.9126
  150SAPE   O2116580   1.901   1.648   9.587 -0.4096  0.0187 -0.0465
  150SAPE   C2116581   2.005   1.555   9.576  0.6174  0.0187  0.0805
  150SAPE   O2216582   2.003   1.436   9.597  0.1797  0.2959 -0.5151
  150SAPE   C2216583   2.139   1.620   9.537  0.3319  0.0789 -0.3560
  150SAPE   H2R16584   2.127   1.725   9.503 -1.2996  0.4796  1.3593
  150SAPE   H2S16585   2.196   1.616   9.632  1.0236 -0.9234 -0.8094
  150SAPE    C316586   1.700   1.582   9.470 -0.1392 -0.0872 -0.5864
  150SAPE    HX16587   1.689   1.679   9.416 -1.3593 -0.4993 -1.0989
  150SAPE    HY16588   1.591   1.559   9.472 -0.6395  2.1963  0.6752
  150SAPE   O3116589   1.772   1.488   9.381 -0.3470  0.4837  0.3092
  150SAPE   C3116590   1.749   1.357   9.397 -0.2963  0.1900 -0.6363
  150SAPE   O3216591   1.684   1.312   9.488  0.4272 -0.5007  0.1617
  150SAPE   C3216592   1.812   1.281   9.274  0.4644  0.0839  0.0474
  150SAPE   H2X16593   1.861   1.191   9.316  0.2285  0.2031  0.5928
  150SAPE   H2Y16594   1.884   1.355   9.233 -1.9204  1.8783 -1.0366
  150SAPE   C2316595   2.242   1.542   9.441 -0.4170 -0.6067  0.3237
  150SAPE   H3R16596   2.207   1.436   9.432 -0.0718 -0.6866 -0.0932
  150SAPE   H3S16597   2.341   1.550   9.490 -0.5224 -1.7140  0.7332
  150SAPE   C2416598   2.258   1.600   9.293  0.2244 -0.0571  0.3475
  150SAPE   H4R16599   2.350   1.542   9.271 -0.2084 -1.3931  1.8709
  150SAPE   H4S16600   2.289   1.706   9.291  2.2870 -0.6608 -0.7260
  150SAPE   C2516601   2.146   1.569   9.196 -0.7880  0.3137  0.3846
  150SAPE   H5R16602   2.048   1.603   9.234  0.0845  4.2122 -0.7061
  150SAPE   C2616603   2.164   1.495   9.079  0.2265  0.5878  0.3383
  150SAPE   H6R16604   2.089   1.485   8.999 -0.1920  1.7610  0.5832
  150SAPE   C2716605   2.288   1.428   9.029 -0.1538 -0.8151 -1.3592
  150SAPE   H7R16606   2.333   1.381   9.119 -0.0078  1.5528 -0.1277
  150SAPE   H7S16607   2.340   1.517   8.988 -1.8962 -0.7600 -3.5230
  150SAPE   C2816608   2.261   1.321   8.925  0.1611  0.3978 -0.2744
  150SAPE   H8R16609   2.197   1.244   8.969  0.8284  0.0225  0.0416
  150SAPE   C2916610   2.305   1.311   8.798  0.6199 -1.4075  0.0701
  150SAPE   H9R16611   2.263   1.234   8.732  0.4574 -1.8771  0.7229
  150SAPE  C21016612   2.394   1.412   8.734 -0.9346 -0.1863 -0.1545
  150SAPE  H10R16613   2.495   1.366   8.728 -0.5870  0.5513 -0.0492
  150SAPE  H10S16614   2.412   1.499   8.801  0.3535  0.0411 -0.7685
  150SAPE  C21116615   2.348   1.456   8.598 -0.4669  0.3539 -0.9383
  150SAPE  H11R16616   2.331   1.377   8.523 -0.9492  0.4676 -0.9511
  150SAPE  C21216617   2.342   1.583   8.559  0.6632  0.2967  0.6118
  150SAPE  H12R16618   2.325   1.602   8.452 -0.8820  0.9357  0.9526
  150SAPE  C21316619   2.370   1.710   8.630 -0.1153 -0.1318 -0.6178
  150SAPE  H13R16620   2.479   1.727   8.642  0.1599 -1.7433 -0.7970
  150SAPE  H13S16621   2.322   1.703   8.730 -0.7420  0.6510 -0.8559
  150SAPE  C21416622   2.316   1.835   8.571  0.5272 -0.6823  0.2411
  150SAPE  H14R16623   2.231   1.885   8.620  0.2002 -0.1739 -0.8310
  150SAPE  C21516624   2.370   1.900   8.461 -0.0262  0.7485 -0.3393
  150SAPE  H15R16625   2.318   1.992   8.431  0.7327  0.7635 -1.6426
  150SAPE  C21616626   2.495   1.874   8.385 -0.5347  0.2475  0.2065
  150SAPE  H16R16627   2.535   1.783   8.434 -2.5550  0.1087  1.6782
  150SAPE  H16S16628   2.562   1.962   8.397  1.3671 -1.3490  1.7223
  150SAPE  C21716629   2.470   1.845   8.237  0.0057 -0.2431  0.2173
  150SAPE  H17R16630   2.395   1.913   8.191  0.8643  0.5726  0.0104
  150SAPE  H17S16631   2.432   1.741   8.230  0.8027 -0.3943 -2.3913
  150SAPE  C21816632   2.585   1.856   8.140 -0.5689  0.6137  0.2852
  150SAPE  H18R16633   2.659   1.776   8.162  0.8405  1.9063  0.3486
  150SAPE  H18S16634   2.627   1.956   8.165  2.3432 -0.7910  1.2580
  150SAPE  C21916635   2.545   1.864   7.996  0.5943  0.4424 -0.1513
  150SAPE  H19R16636   2.469   1.945   7.992  1.1994  1.0555  0.7315
  150SAPE  H19S16637   2.503   1.770   7.955 -0.1562 -0.0309  1.6786
  150SAPE  C22016638   2.665   1.897   7.900  0.3171 -0.3039 -0.5134
  150SAPE  H20R16639   2.715   1.994   7.924  0.5565 -0.2381 -1.2817
  150SAPE  H20S16640   2.642   1.901   7.792 -1.9983  4.2561  0.0375
  150SAPE  H20T16641   2.744   1.819   7.898  1.7364  1.1170 -0.4027
  150SAPE   C3316642   1.713   1.243   9.163 -0.3364  0.1325 -0.2964
  150SAPE   H3X16643   1.665   1.331   9.116 -1.4904  0.0713  0.7255
  150SAPE   H3Y16644   1.630   1.184   9.207  1.0913 -2.1847 -0.5686
  150SAPE   C3416645   1.774   1.151   9.058  0.2468  0.4113 -0.7950
  150SAPE   H4X16646   1.687   1.101   9.010 -0.4601  0.5542  0.3121
  150SAPE   H4Y16647   1.832   1.072   9.110 -1.2392 -0.4996 -0.4956
  150SAPE   C3516648   1.883   1.202   8.962 -0.3845 -0.3419 -0.2398
  150SAPE   H5X16649   1.912   1.121   8.893 -0.1590 -0.8621  0.4633
  150SAPE   H5Y16650   1.974   1.244   9.010 -0.6143  1.8420 -1.6378
  150SAPE   C3616651   1.825   1.323   8.880  0.4909  0.4698  0.3615
  150SAPE   H6X16652   1.901   1.371   8.814 -0.1880 -0.2873 -0.9806
  150SAPE   H6Y16653   1.796   1.404   8.950 -2.3626 -1.3855  1.4016
  150SAPE   C3716654   1.708   1.295   8.781 -0.6751  0.1441  0.4073
  150SAPE   H7X16655   1.620   1.306   8.848 -0.9348 -2.7528  0.6161
  150SAPE   H7Y16656   1.723   1.191   8.744 -1.0826 -0.7327  2.6069
  150SAPE   C3816657   1.705   1.404   8.671  0.0445  0.3370 -1.0471
  150SAPE   H8X16658   1.810   1.436   8.652 -0.2808  0.8917 -1.9739
  150SAPE   H8Y16659   1.666   1.500   8.711 -0.8177  0.4224 -2.0696
  150SAPE   C3916660   1.631   1.356   8.540  0.4305 -0.1478  0.6407
  150SAPE   H9X16661   1.555   1.282   8.572  1.3774 -1.2898  0.2914
  150SAPE   H9Y16662   1.711   1.304   8.483 -1.0336 -0.8339 -0.8062
  150SAPE  C31016663   1.565   1.465   8.447 -0.3907  0.0263 -0.2025
  150SAPE  H10X16664   1.620   1.561   8.454  2.9803 -1.9190  1.4582
  150SAPE  H10Y16665   1.462   1.486   8.480 -0.5904 -0.0165 -0.7858
  150SAPE  C31116666   1.577   1.418   8.302  0.0131  0.3141  0.3278
  150SAPE  H11X16667   1.517   1.328   8.278  0.7691  0.1211 -0.8230
  150SAPE  H11Y16668   1.681   1.389   8.277 -0.2241 -0.8836  0.7274
  150SAPE  C31216669   1.546   1.540   8.206 -0.0412 -0.1008  0.5108
  150SAPE  H12X16670   1.606   1.523   8.114 -1.9658 -2.9860 -0.2827
  150SAPE  H12Y16671   1.567   1.638   8.255  2.3487 -0.2320 -0.1662
  150SAPE  C31316672   1.396   1.546   8.166  0.0978 -0.0611  0.0172
  150SAPE  H13X16673   1.349   1.578   8.262  0.2749  2.9045 -0.8328
  150SAPE  H13Y16674   1.361   1.447   8.130 -1.2093 -0.9432  3.5117
  150SAPE  C31416675   1.367   1.653   8.061  0.6110  0.2043  0.0330
  150SAPE  H14X16676   1.402   1.751   8.099 -1.0283 -0.5134  3.6793
  150SAPE  H14Y16677   1.260   1.682   8.060  0.1679 -1.2247  1.8891
  150SAPE  C31516678   1.401   1.597   7.925 -0.0415 -0.5196  0.5551
  150SAPE  H15X16679   1.395   1.486   7.928 -0.2607 -0.5942 -1.7438
  150SAPE  H15Y16680   1.507   1.620   7.902 -0.3212 -2.7513 -3.2469
  150SAPE  C31616681   1.312   1.654   7.816  0.4175  0.2710  0.3302
  150SAPE  H16X16682   1.321   1.764   7.807 -2.7857  0.6232  0.9255
  150SAPE  H16Y16683   1.203   1.642   7.835  0.2881 -0.1335 -0.6010
  150SAPE  C31716684   1.356   1.602   7.681  0.6493  0.6720  0.7512
  150SAPE  H17X16685   1.318   1.498   7.667 -1.9704  1.6574  0.2483
  150SAPE  H17Y16686   1.467   1.608   7.669  0.6111 -0.8281 -0.5984
  150SAPE  C31816687   1.297   1.680   7.564  0.9585 -0.2019 -0.4499
  150SAPE  H18X16688   1.187   1.686   7.582  1.1736  0.8396  0.6004
  150SAPE  H18Y16689   1.313   1.633   7.465  2.4914 -0.8086  0.0848
  150SAPE  H18Z16690   1.331   1.786   7.562  0.1082  0.0638 -2.5093
  151SAPE     N16691   5.516   5.732   9.998 -0.2047 -0.0649 -0.2150
  151SAPE   HN116692   5.442   5.705   9.930 -0.6078 -1.4620  0.7587
  151SAPE   HN216693   5.489   5.825  10.037  1.0309  0.5265 -0.7405
  151SAPE   HN316694   5.612   5.728   9.957  0.5400  5.1028  0.7007
  151SAPE   C1216695   5.493   5.636  10.104 -0.4076  0.4069  0.2459
  151SAPE  H12A16696   5.384   5.616  10.108 -0.4243  0.5582  0.5662
  151SAPE  H12B16697   5.526   5.673  10.204  1.1119 -3.8203  1.3813
  151SAPE   C1116698   5.569   5.504  10.071  0.2498  0.2163 -0.0244
  151SAPE  H11A16699   5.531   5.460   9.976 -0.8937  1.2789 -0.0706
  151SAPE  H11B16700   5.544   5.437  10.156 -0.0456 -1.1435 -1.1531
  151SAPE     P16701   5.816   5.422  10.023  0.6662  0.8877  0.2674
  151SAPE   O1316702   5.951   5.469  10.043  0.0710 -0.3962  0.0211
  151SAPE   O1416703   5.794   5.296  10.099 -0.1042 -0.1355 -0.3761
  151SAPE   O1216704   5.709   5.537  10.067 -0.7810  0.2395 -0.1365
  151SAPE   O1116705   5.783   5.397   9.871 -0.3715  0.3575  0.5169
  151SAPE    C116706   5.858   5.465   9.766  0.4704 -0.2474 -0.1298
  151SAPE    HA16707   5.859   5.574   9.787  2.9930 -0.4814  1.2181
  151SAPE    HB16708   5.961   5.425   9.764  0.4257 -0.3325 -1.2851
  151SAPE    C216709   5.794   5.444   9.620 -0.6296  0.9263  0.0384
  151SAPE    HS16710   5.690   5.480   9.638 -0.8151  0.9826 -1.0833
  151SAPE   O2116711   5.786   5.300   9.600 -0.4182  0.1104 -0.6855
  151SAPE   C2116712   5.710   5.258   9.504  0.2792  0.7988 -0.1817
  151SAPE   O2216713   5.635   5.327   9.435  0.0614 -0.3174  0.5834
  151SAPE   C2216714   5.720   5.100   9.496 -0.2817  0.6282  0.5991
  151SAPE   H2R16715   5.828   5.081   9.481 -0.5186  0.9195 -1.8284
  151SAPE   H2S16716   5.688   5.068   9.597  0.4064 -0.3795  0.5029
  151SAPE    C316717   5.861   5.516   9.498 -0.5576  0.4050  0.0735
  151SAPE    HX16718   5.876   5.622   9.526  0.4678  0.6295 -1.2393
  151SAPE    HY16719   5.790   5.505   9.413 -0.4747  2.4789 -0.2741
  151SAPE   O3116720   5.990   5.449   9.455 -0.7475 -0.2685 -0.7118
  151SAPE   C3116721   6.099   5.481   9.516  0.9210 -0.6492  0.1744
  151SAPE   O3216722   6.107   5.563   9.606  0.2486 -0.2445  0.4894
  151SAPE   C3216723   6.215   5.401   9.460 -0.0863 -0.4375  0.4591
  151SAPE   H2X16724   6.228   5.439   9.357 -0.1180 -0.4279  0.4596
  151SAPE   H2Y16725   6.189   5.293   9.453 -0.1703 -0.2693 -2.1630
  151SAPE   C2316726   5.638   5.047   9.383  0.7646  0.8532  0.3744
  151SAPE   H3R16727   5.663   5.093   9.285 -0.8783  1.6580  0.3270
  151SAPE   H3S16728   5.533   5.075   9.403  0.2770  0.8729 -2.1794
  151SAPE   C2416729   5.652   4.893   9.365  0.3276 -0.4435 -0.1691
  151SAPE   H4R16730   5.670   4.835   9.457 -2.9776 -0.3381  0.6268
  151SAPE   H4S16731   5.743   4.892   9.302 -1.0069 -0.9652 -2.1560
  151SAPE   C2516732   5.539   4.839   9.283 -0.1466 -0.0519  0.1976
  151SAPE   H5R16733   5.463   4.787   9.343  1.4586 -2.5518  0.1835
  151SAPE   C2616734   5.521   4.845   9.149 -0.0917  0.0265 -0.0183
  151SAPE   H6R16735   5.436   4.792   9.102 -0.8082  0.6385  0.5885
  151SAPE   C2716736   5.619   4.911   9.056  1.0090 -0.9453  0.5865
  151SAPE   H7R16737   5.721   4.872   9.074  1.2104  0.1327  1.8452
  151SAPE   H7S16738   5.633   5.020   9.075 -0.0262 -0.6049 -0.5354
  151SAPE   C2816739   5.591   4.902   8.904 -0.0065  1.0110 -0.0804
  151SAPE   H8R16740   5.606   4.804   8.858  0.4440  0.5190  1.0848
  151SAPE   C2916741   5.547   5.005   8.828 -0.1426 -0.0722 -0.1148
  151SAPE   H9R16742   5.532   4.988   8.721  0.7729  2.4731 -0.7001
  151SAPE  C21016743   5.514   5.143   8.872 -0.2674  0.4285 -0.3511
  151SAPE  H10R16744   5.511   5.214   8.787  1.8201 -1.2839 -1.9435
  151SAPE  H10S16745   5.580   5.189   8.949  2.6264 -0.1095 -2.3978
  151SAPE  C21116746   5.370   5.152   8.923 -0.0992  0.2147 -0.1132
  151SAPE  H11R16747   5.344   5.125   9.026 -0.4767 -0.6649 -0.4330
  151SAPE  C21216748   5.264   5.196   8.850 -0.0499  0.1608 -0.0595
  151SAPE  H12R16749   5.174   5.216   8.911  1.4957 -1.4475  2.8814
  151SAPE  C21316750   5.261   5.245   8.711  0.1577 -0.4003  0.4751
  151SAPE  H13R16751   5.363   5.257   8.668  0.8158  0.7999  2.3523
  151SAPE  H13S16752   5.226   5.350   8.706  0.4625 -0.3637 -1.5237
  151SAPE  C21416753   5.177   5.145   8.629  0.0597 -0.0199  0.0116
  151SAPE  H14R16754   5.129   5.062   8.683  1.6301 -1.4142 -0.7119
  151SAPE  C21516755   5.172   5.156   8.494 -0.4991  0.0283  0.6527
  151SAPE  H15R16756   5.113   5.083   8.436 -0.1376  0.2323  0.0258
  151SAPE  C21616757   5.237   5.252   8.407 -0.0534 -0.6567  0.3868
  151SAPE  H16R16758   5.320   5.304   8.460 -0.4652  0.1288  0.2627
  151SAPE  H16S16759   5.168   5.333   8.374  3.8064  1.5629 -2.7507
  151SAPE  C21716760   5.295   5.186   8.280  0.0124 -0.6775 -0.8778
  151SAPE  H17R16761   5.335   5.085   8.301  1.1861  0.1533  1.0563
  151SAPE  H17S16762   5.380   5.242   8.236 -0.0849  1.7118  1.8158
  151SAPE  C21816763   5.188   5.174   8.176 -0.9830  1.1806  0.6032
  151SAPE  H18R16764   5.095   5.132   8.220  1.0612 -1.9110  2.1803
  151SAPE  H18S16765   5.222   5.094   8.106  2.9212  3.8673 -0.7442
  151SAPE  C21916766   5.176   5.310   8.099 -0.0324 -0.1858 -0.3424
  151SAPE  H19R16767   5.265   5.327   8.034 -1.4322 -0.7131 -2.4631
  151SAPE  H19S16768   5.189   5.397   8.167 -0.1454  0.0578 -0.6312
  151SAPE  C22016769   5.056   5.320   8.005  0.5867 -0.2206  0.0295
  151SAPE  H20R16770   5.068   5.235   7.935  1.5784  0.7175 -0.9474
  151SAPE  H20S16771   5.053   5.416   7.950  0.3892 -0.2278  0.0258
  151SAPE  H20T16772   4.962   5.304   8.063  0.1444  0.5305 -0.4691
  151SAPE   C3316773   6.339   5.415   9.554 -0.0894  0.4315  0.9008
  151SAPE   H3X16774   6.319   5.343   9.636  1.5128 -1.6743 -0.4854
  151SAPE   H3Y16775   6.361   5.515   9.596 -0.3588  0.2887  1.3821
  151SAPE   C3416776   6.471   5.368   9.491  0.4903 -0.1906  0.0989
  151SAPE   H4X16777   6.452   5.271   9.440  0.5562  0.6704 -1.6034
  151SAPE   H4Y16778   6.530   5.349   9.583 -0.4606  0.2102  0.8126
  151SAPE   C3516779   6.540   5.465   9.396  0.0519  1.1549  0.1555
  151SAPE   H5X16780   6.540   5.569   9.435  0.8625  1.1291  0.2401
  151SAPE   H5Y16781   6.490   5.476   9.297  1.3337 -0.0934 -0.6563
  151SAPE   C3616782   6.685   5.407   9.369  0.1210  0.0438  0.0988
  151SAPE   H6X16783   6.720   5.364   9.466 -1.8954 -0.6447  0.5514
  151SAPE   H6Y16784   6.749   5.494   9.344  0.4475 -0.5692 -1.2110
  151SAPE   C3716785   6.689   5.310   9.255 -0.3152 -0.1850 -0.1017
  151SAPE   H7X16786   6.676   5.360   9.157 -2.7118  3.3422  1.9099
  151SAPE   H7Y16787   6.611   5.235   9.281 -0.2063 -0.3752 -0.3206
  151SAPE   C3816788   6.813   5.229   9.244 -0.7942  0.1086  0.2107
  151SAPE   H8X16789   6.824   5.156   9.328  1.7183  0.4997  0.2595
  151SAPE   H8Y16790   6.893   5.304   9.260 -0.1628  0.0248 -2.4399
  151SAPE   C3916791   6.842   5.154   9.116 -0.5945  0.5807  0.2040
  151SAPE   H9X16792   6.758   5.084   9.095  0.3801 -0.3394 -0.7556
  151SAPE   H9Y16793   6.931   5.089   9.123  0.5485  2.1430  0.3513
  151SAPE  C31016794   6.867   5.252   8.997  0.2037  0.3447  0.9449
  151SAPE  H10X16795   6.954   5.313   9.031 -0.2712  1.5318  0.0374
  151SAPE  H10Y16796   6.794   5.334   8.984  1.0529  0.7392 -1.5648
  151SAPE  C31116797   6.899   5.178   8.862  0.2863 -0.0396  0.2487
  151SAPE  H11X16798   6.977   5.101   8.876  1.0397  0.5023 -0.8600
  151SAPE  H11Y16799   6.939   5.257   8.795  2.2481 -0.9120  0.3846
  151SAPE  C31216800   6.768   5.116   8.796 -0.0519 -0.0990 -0.0412
  151SAPE  H12X16801   6.705   5.070   8.875  0.7439  2.9142  2.4007
  151SAPE  H12Y16802   6.790   5.027   8.732  0.3677  0.4979 -0.7370
  151SAPE  C31316803   6.692   5.213   8.714  0.1304 -0.9137 -0.3707
  151SAPE  H13X16804   6.760   5.256   8.638 -0.9395 -0.4775 -1.0973
  151SAPE  H13Y16805   6.654   5.294   8.781  1.3754  0.8379 -1.7328
  151SAPE  C31416806   6.577   5.139   8.644  0.0069  0.3842 -0.0025
  151SAPE  H14X16807   6.507   5.106   8.725 -2.1110 -0.7281 -2.2174
  151SAPE  H14Y16808   6.605   5.041   8.600  0.0574 -0.6726  2.2699
  151SAPE  C31516809   6.494   5.213   8.542  0.0793 -0.2950  0.2042
  151SAPE  H15X16810   6.563   5.265   8.472  0.2738 -2.9179 -1.5984
  151SAPE  H15Y16811   6.449   5.303   8.590 -0.8241 -1.4257  1.5085
  151SAPE  C31616812   6.399   5.127   8.456  0.2075 -0.2495  0.0883
  151SAPE  H16X16813   6.447   5.084   8.366  1.0446  1.1620 -0.1593
  151SAPE  H16Y16814   6.324   5.203   8.423 -0.3525 -2.4443 -3.9142
  151SAPE  C31716815   6.310   5.027   8.528  0.0817 -0.4128 -0.1352
  151SAPE  H17X16816   6.385   4.954   8.568  1.1966  0.1860 -1.0969
  151SAPE  H17Y16817   6.236   4.976   8.463  0.1546 -2.3292  1.2234
  151SAPE  C31816818   6.216   5.086   8.639 -0.0110  0.3640  0.6124
  151SAPE  H18X16819   6.182   5.187   8.608  1.6171  0.4674 -0.9007
  151SAPE  H18Y16820   6.278   5.103   8.730 -0.4335 -1.9579  1.3462
  151SAPE  H18Z16821   6.145   5.009   8.676 -0.2959  0.2540 -0.1686
  152SAPE     N16822   0.164   5.241  10.221  0.1488 -0.0651  0.1467
  152SAPE   HN116823   0.093   5.225  10.146  0.8578 -1.9554 -0.1646
  152SAPE   HN216824   0.244   5.176  10.209 -1.4544 -1.7239 -2.2700
  152SAPE   HN316825   0.123   5.221  10.314  2.4422 -1.2191  0.9314
  152SAPE   C1216826   0.218   5.385  10.215 -0.4411 -0.3690 -0.3393
  152SAPE  H12A16827   0.303   5.377  10.288 -1.1959 -4.0257  0.2482
  152SAPE  H12B16828   0.143   5.451  10.263  2.0012  3.8007 -2.0329
  152SAPE   C1116829   0.259   5.432  10.077  0.3566  0.4496 -0.7863
  152SAPE  H11A16830   0.336   5.509  10.098 -0.7955  1.7388 -1.2355
  152SAPE  H11B16831   0.174   5.474  10.019 -0.1207 -1.9245 -1.8843
  152SAPE     P16832   0.406   5.358   9.884  0.1406 -0.0632  0.1352
  152SAPE   O1316833   0.311   5.395   9.781  0.0449 -0.3283  0.3756
  152SAPE   O1416834   0.518   5.450   9.920  0.3079 -0.5954  0.3897
  152SAPE   O1216835   0.320   5.321  10.009  0.0861  0.2753 -0.4917
  152SAPE   O1116836   0.459   5.215   9.845 -0.0305  0.3000  0.0227
  152SAPE    C116837   0.600   5.193   9.826 -0.4401  0.4146 -0.0900
  152SAPE    HA16838   0.655   5.269   9.885 -0.7056 -0.0699  0.7845
  152SAPE    HB16839   0.613   5.090   9.867 -2.1851  0.7007  1.2631
  152SAPE    C216840   0.636   5.186   9.677 -0.3891  0.0318 -0.1564
  152SAPE    HS16841   0.746   5.176   9.665 -0.6377 -0.9070 -1.8171
  152SAPE   O2116842   0.582   5.304   9.606 -0.0454  0.0245 -0.2141
  152SAPE   C2116843   0.666   5.400   9.592  0.3829 -0.2333  0.4282
  152SAPE   O2216844   0.778   5.398   9.623 -0.1809 -0.7010 -0.0928
  152SAPE   C2216845   0.586   5.516   9.523 -0.7345 -0.0417  0.1581
  152SAPE   H2R16846   0.480   5.484   9.515 -0.6084 -0.0812 -1.5094
  152SAPE   H2S16847   0.606   5.600   9.592  2.1339  0.7586 -1.5477
  152SAPE    C316848   0.574   5.059   9.617  0.3709 -0.0990  0.1396
  152SAPE    HX16849   0.464   5.078   9.624  0.1919 -1.4294  1.1219
  152SAPE    HY16850   0.598   4.965   9.671 -0.1916 -0.0744  0.4361
  152SAPE   O3116851   0.625   5.025   9.486  0.2539  0.7196 -0.2540
  152SAPE   C3116852   0.562   5.079   9.378  0.5094  0.1862 -0.8803
  152SAPE   O3216853   0.464   5.155   9.382  0.0545  0.0499  0.1740
  152SAPE   C3216854   0.630   5.028   9.254  0.6459  0.1610  0.0164
  152SAPE   H2X16855   0.630   4.917   9.254 -0.0928  0.1498  1.0257
  152SAPE   H2Y16856   0.732   5.069   9.244 -0.0193  2.1970  1.2362
  152SAPE   C2316857   0.636   5.552   9.375 -0.3894 -0.9792  0.4061
  152SAPE   H3R16858   0.746   5.570   9.365 -0.7204  0.5026 -0.7612
  152SAPE   H3S16859   0.594   5.651   9.350 -0.9364 -1.4655 -0.6391
  152SAPE   C2416860   0.596   5.450   9.269 -0.1806 -0.1778  0.3317
  152SAPE   H4R16861   0.486   5.438   9.279 -0.1034 -1.4830 -0.3188
  152SAPE   H4S16862   0.633   5.352   9.307  0.3351  0.9723  2.8710
  152SAPE   C2516863   0.631   5.470   9.125 -0.5032 -0.6751  0.0349
  152SAPE   H5R16864   0.577   5.555   9.081 -1.3883 -0.8968  0.7001
  152SAPE   C2616865   0.729   5.416   9.050 -0.7668 -0.1993 -0.5341
  152SAPE   H6R16866   0.733   5.446   8.945  0.6943  0.2857 -0.3465
  152SAPE   C2716867   0.834   5.313   9.095 -0.0069  0.4456  0.0717
  152SAPE   H7R16868   0.811   5.215   9.048 -0.1803  1.7604 -2.6617
  152SAPE   H7S16869   0.832   5.282   9.202 -1.4847 -0.9345 -0.3418
  152SAPE   C2816870   0.977   5.345   9.043 -0.3274 -0.1463  0.8218
  152SAPE   H8R16871   1.047   5.399   9.109 -1.2458  1.8230  0.2284
  152SAPE   C2916872   1.035   5.321   8.922  0.2016  0.2340  0.5112
  152SAPE   H9R16873   1.143   5.335   8.907 -0.0215 -0.9911 -2.4190
  152SAPE  C21016874   0.964   5.255   8.808 -0.5234 -0.6346  0.5447
  152SAPE  H10R16875   0.920   5.331   8.740 -0.3689 -0.8316  0.2249
  152SAPE  H10S16876   0.876   5.193   8.835 -0.0686 -2.2903 -1.6932
  152SAPE  C21116877   1.053   5.167   8.729  0.3448 -0.2862 -0.7280
  152SAPE  H11R16878   1.158   5.160   8.759  0.0264  2.6098  1.2640
  152SAPE  C21216879   1.025   5.114   8.608 -0.4374  0.5251  0.1287
  152SAPE  H12R16880   1.111   5.055   8.573  1.2197  0.8674  3.4885
  152SAPE  C21316881   0.899   5.126   8.530 -0.3041 -0.3396  0.1924
  152SAPE  H13R16882   0.839   5.211   8.568  1.2395  0.7052  0.3489
  152SAPE  H13S16883   0.837   5.039   8.563  0.4374 -1.4482 -1.2461
  152SAPE  C21416884   0.906   5.113   8.375 -0.1041  0.2158 -0.1034
  152SAPE  H14R16885   0.953   5.021   8.337 -1.9518 -0.9751  0.4751
  152SAPE  C21516886   0.842   5.197   8.290  0.0692  0.2652  0.4137
  152SAPE  H15R16887   0.841   5.174   8.183  1.2873  0.7723  0.2887
  152SAPE  C21616888   0.762   5.320   8.335  0.4642 -0.4986 -0.9122
  152SAPE  H16R16889   0.820   5.377   8.411  2.0735 -3.4937  0.1891
  152SAPE  H16S16890   0.672   5.291   8.393  0.3487  1.6337  0.0110
  152SAPE  C21716891   0.719   5.419   8.220 -0.1412  0.2122 -0.7830
  152SAPE  H17R16892   0.798   5.432   8.143 -1.3080  0.6064 -1.9319
  152SAPE  H17S16893   0.697   5.520   8.261 -2.1338  0.8744 -3.3043
  152SAPE  C21816894   0.600   5.368   8.129  0.6241 -0.9199 -0.2821
  152SAPE  H18R16895   0.512   5.337   8.189 -0.0342 -0.7386 -1.1484
  152SAPE  H18S16896   0.639   5.271   8.090  0.5943 -1.0851  0.0894
  152SAPE  C21916897   0.556   5.467   8.024 -0.1205  0.4510  0.0660
  152SAPE  H19R16898   0.639   5.490   7.954 -0.6394 -0.1075 -0.7503
  152SAPE  H19S16899   0.520   5.561   8.069  1.0751  0.9091  0.0682
  152SAPE  C22016900   0.438   5.413   7.940 -0.4177 -0.0272  0.3753
  152SAPE  H20R16901   0.401   5.499   7.879 -0.4588  0.0637  0.5280
  152SAPE  H20S16902   0.356   5.362   7.995 -2.1499  2.5222  0.2510
  152SAPE  H20T16903   0.482   5.339   7.870  1.1189  0.1731  1.1221
  152SAPE   C3316904   0.544   5.077   9.127 -0.6827  0.5383 -0.1424
  152SAPE   H3X16905   0.530   5.187   9.127 -0.7483  0.5339 -1.1802
  152SAPE   H3Y16906   0.442   5.035   9.137 -1.1232  1.9684  1.6108
  152SAPE   C3416907   0.604   5.019   8.996 -0.3311  0.0159 -1.0809
  152SAPE   H4X16908   0.596   4.908   8.999 -2.5689  0.1958  1.3909
  152SAPE   H4Y16909   0.714   5.034   8.994 -0.4718  1.5015  0.6476
  152SAPE   C3516910   0.535   5.064   8.877  0.1238 -0.4742 -0.4147
  152SAPE   H5X16911   0.548   5.174   8.864  0.5728 -0.7392 -2.3531
  152SAPE   H5Y16912   0.425   5.045   8.877  0.5654 -3.2210 -1.9917
  152SAPE   C3616913   0.588   4.994   8.755  0.6412  0.6047  0.1225
  152SAPE   H6X16914   0.562   4.886   8.764  2.0798  0.3970  1.9593
  152SAPE   H6Y16915   0.699   4.995   8.760  0.7334 -1.0821 -1.0425
  152SAPE   C3716916   0.535   5.051   8.623 -0.1922 -0.5321 -0.1021
  152SAPE   H7X16917   0.611   5.029   8.545 -0.6092  1.7150 -1.1996
  152SAPE   H7Y16918   0.540   5.162   8.631 -1.2971 -0.3980 -1.1896
  152SAPE   C3816919   0.403   5.003   8.565 -0.0776  0.1747  0.5146
  152SAPE   H8X16920   0.326   5.005   8.646 -0.7042  0.7808 -0.0942
  152SAPE   H8Y16921   0.417   4.900   8.526  1.4627  0.1168  1.1731
  152SAPE   C3916922   0.359   5.083   8.439  0.1564 -0.4202  0.4409
  152SAPE   H9X16923   0.264   5.040   8.402  0.1794 -1.6919  1.8161
  152SAPE   H9Y16924   0.443   5.066   8.368 -1.7911 -1.4565 -1.6662
  152SAPE  C31016925   0.355   5.239   8.463  0.1275 -0.3525  0.6493
  152SAPE  H10X16926   0.457   5.282   8.450 -0.2246 -0.0572 -1.3904
  152SAPE  H10Y16927   0.322   5.273   8.563  0.4114 -1.6108  1.1782
  152SAPE  C31116928   0.260   5.290   8.354 -0.1620  0.1941  0.0517
  152SAPE  H11X16929   0.152   5.265   8.364 -0.1475  0.5027  1.0511
  152SAPE  H11Y16930   0.299   5.248   8.259 -1.6479 -2.0988  0.4171
  152SAPE  C31216931   0.271   5.443   8.340 -0.3980  0.2110  0.2653
  152SAPE  H12X16932   0.374   5.473   8.315  0.5888 -1.5713  2.0074
  152SAPE  H12Y16933   0.217   5.494   8.423  0.4877  0.5553  0.6321
  152SAPE  C31316934   0.178   5.486   8.216  0.0388  0.5326 -0.5725
  152SAPE  H13X16935   0.078   5.442   8.235  0.1019  0.7914  0.3821
  152SAPE  H13Y16936   0.209   5.440   8.120  2.6920 -2.6189  1.6697
  152SAPE  C31416937   0.165   5.641   8.210 -0.1505 -0.0075 -0.5680
  152SAPE  H14X16938   0.267   5.675   8.179  0.2790 -0.8862 -0.1472
  152SAPE  H14Y16939   0.139   5.673   8.313  0.4639 -1.7154  0.1433
  152SAPE  C31516940   0.060   5.692   8.109  0.0796 -0.0287 -0.4039
  152SAPE  H15X16941   0.095   5.794   8.082 -1.5099  0.3006 -1.2450
  152SAPE  H15Y16942  -0.040   5.701   8.157  1.0256  5.2617  0.9885
  152SAPE  C31616943   0.066   5.616   7.974 -0.5595 -0.2183 -0.1344
  152SAPE  H16X16944   0.025   5.513   7.985 -0.3305 -0.2006  0.9709
  152SAPE  H16Y16945   0.174   5.602   7.950  0.3232  1.2862  2.7405
  152SAPE  C31716946   0.005   5.690   7.854 -0.3071  0.3132  0.5650
  152SAPE  H17X16947   0.020   5.622   7.767 -2.2762 -1.7879  1.8215
  152SAPE  H17Y16948   0.064   5.783   7.843  0.7047 -0.2899  0.8222
  152SAPE  C31816949  -0.146   5.717   7.858  0.7881  0.7822  0.0189
  152SAPE  H18X16950  -0.180   5.777   7.945 -1.0051  1.7887 -1.3373
  152SAPE  H18Y16951  -0.207   5.624   7.863  2.0411  0.0367  2.2585
  152SAPE  H18Z16952  -0.176   5.774   7.767  0.0862 -0.2080 -0.3791
  153SAPE     N16953   7.059   1.647  10.038  0.1806  0.5207  0.0646
  153SAPE   HN116954   6.991   1.718  10.004  1.8960  1.6365 -1.1215
  153SAPE   HN216955   7.050   1.658  10.141 -0.7359  0.8398 -0.0466
  153SAPE   HN316956   7.156   1.671  10.009 -0.6337  1.1785 -2.1830
  153SAPE   C1216957   7.015   1.506  10.012  0.7632 -0.9201  0.0468
  153SAPE  H12A16958   7.083   1.437  10.067 -1.1546 -0.7884  2.6441
  153SAPE  H12B16959   7.016   1.482   9.903  0.6629  0.1756 -0.2012
  153SAPE   C1116960   6.872   1.492  10.064 -0.2651  0.1896  0.2263
  153SAPE  H11A16961   6.856   1.497  10.174  0.6358  0.5855  0.3446
  153SAPE  H11B16962   6.856   1.383  10.052  2.1402 -0.5178  2.8717
  153SAPE     P16963   6.623   1.552  10.007  0.1149  0.1813 -0.1044
  153SAPE   O1316964   6.587   1.598  10.142 -0.0768 -0.7433 -0.1066
  153SAPE   O1416965   6.554   1.617   9.892 -0.1994 -0.2905 -0.5570
  153SAPE   O1216966   6.777   1.572   9.994 -0.1174  0.2327  0.4671
  153SAPE   O1116967   6.609   1.397  10.010  0.1255 -0.2997 -0.0525
  153SAPE    C116968   6.602   1.332   9.878  0.2028 -0.3889 -0.0069
  153SAPE    HA16969   6.592   1.405   9.796  0.4019 -0.5791 -0.2012
  153SAPE    HB16970   6.701   1.287   9.853 -0.3744 -0.7062 -1.7143
  153SAPE    C216971   6.489   1.237   9.878  0.2656 -0.7195  0.0163
  153SAPE    HS16972   6.486   1.188   9.977  0.6781 -0.7363  0.0189
  153SAPE   O2116973   6.515   1.142   9.775  0.8216 -0.5363 -0.2509
  153SAPE   C2116974   6.604   1.045   9.801  0.5583  0.2578  0.5506
  153SAPE   O2216975   6.671   1.042   9.904  0.2535  0.0175 -0.2457
  153SAPE   C2216976   6.583   0.930   9.703 -0.1184  0.7421 -0.6559
  153SAPE   H2R16977   6.609   0.839   9.761 -0.6828  0.1642 -1.3049
  153SAPE   H2S16978   6.482   0.932   9.659 -0.3580  1.1147 -0.0928
  153SAPE    C316979   6.350   1.307   9.871  0.1265 -0.3067 -1.1534
  153SAPE    HX16980   6.338   1.372   9.960 -0.0793 -1.6154 -0.2081
  153SAPE    HY16981   6.271   1.230   9.886  0.9727 -0.8818  0.4490
  153SAPE   O3116982   6.328   1.385   9.748 -0.1617 -0.0665  0.2290
  153SAPE   C3116983   6.267   1.313   9.650 -0.2883 -0.6944  0.2880
  153SAPE   O3216984   6.207   1.207   9.669 -0.1110  0.0234 -0.7598
  153SAPE   C3216985   6.291   1.381   9.518  0.3659  0.4745 -0.5914
  153SAPE   H2X16986   6.398   1.364   9.494  0.1806 -1.2221 -0.2999
  153SAPE   H2Y16987   6.285   1.492   9.526 -2.8081  0.3436 -0.5972
  153SAPE   C2316988   6.684   0.946   9.578  0.7833  0.3258  0.4165
  153SAPE   H3R16989   6.693   0.858   9.510  0.7810 -0.7137  1.7356
  153SAPE   H3S16990   6.784   0.983   9.607 -0.6465  3.3421  1.7221
  153SAPE   C2416991   6.641   1.064   9.487  0.1087 -0.1527  0.1773
  153SAPE   H4R16992   6.726   1.065   9.416  0.2753 -0.8572  0.3627
  153SAPE   H4S16993   6.643   1.150   9.556  2.1680 -0.3563  0.4030
  153SAPE   C2516994   6.509   1.051   9.409 -0.2045  0.9897 -0.1507
  153SAPE   H5R16995   6.425   1.017   9.472  1.0270  2.8339  2.5348
  153SAPE   C2616996   6.490   1.071   9.282  0.2453 -0.2140  0.0173
  153SAPE   H6R16997   6.391   1.051   9.240  0.3269  0.6116 -0.5900
  153SAPE   C2716998   6.595   1.113   9.180  0.6188 -0.5219 -0.2778
  153SAPE   H7R16999   6.694   1.144   9.219  0.5453 -0.8068  0.1401
  153SAPE   H7S17000   6.558   1.198   9.119 -0.7642  0.0706  1.3535
  153SAPE   C2817001   6.624   0.993   9.091  0.2637  0.1108 -0.0066
  153SAPE   H8R17002   6.657   0.900   9.138  2.3950  0.3504 -0.9865
  153SAPE   C2917003   6.617   0.995   8.953 -0.0491 -0.0910 -0.2602
  153SAPE   H9R17004   6.650   0.908   8.895 -1.5146 -0.0551 -1.1782
  153SAPE  C21017005   6.572   1.111   8.872  0.0179  0.3415 -0.5882
  153SAPE  H10R17006   6.506   1.183   8.924 -1.1004 -1.1605  0.1026
  153SAPE  H10S17007   6.514   1.070   8.786 -2.2317  0.6906  0.7422
  153SAPE  C21117008   6.692   1.194   8.834  0.0719  0.3442  0.9277
  153SAPE  H11R17009   6.763   1.217   8.914  1.6752 -1.9058  0.1801
  153SAPE  C21217010   6.725   1.243   8.712  0.9027  0.2008  0.0784
  153SAPE  H12R17011   6.810   1.312   8.706  2.0009 -1.2040 -0.7138
  153SAPE  C21317012   6.640   1.216   8.595 -0.2919 -0.6427  0.0053
  153SAPE  H13R17013   6.540   1.263   8.605 -0.4956 -1.2457  0.8784
  153SAPE  H13S17014   6.626   1.107   8.579 -1.7373 -0.3155 -1.0780
  153SAPE  C21417015   6.713   1.279   8.475  0.4647  0.3297  0.2604
  153SAPE  H14R17016   6.817   1.242   8.474  0.5898  0.6189  1.7187
  153SAPE  C21517017   6.670   1.361   8.377  0.3021  0.5902  0.2161
  153SAPE  H15R17018   6.741   1.373   8.294 -1.9671 -0.8357 -1.9893
  153SAPE  C21617019   6.533   1.417   8.351  0.6749 -0.5627  0.3365
  153SAPE  H16R17020   6.522   1.528   8.355 -0.1397 -0.4749 -3.0207
  153SAPE  H16S17021   6.456   1.367   8.415  0.6847 -2.3799 -1.0258
  153SAPE  C21717022   6.493   1.382   8.206 -0.2753  0.4279  0.3433
  153SAPE  H17R17023   6.500   1.272   8.196  0.9192  0.2914  2.3599
  153SAPE  H17S17024   6.557   1.430   8.128 -1.2353  1.7792  0.3621
  153SAPE  C21817025   6.344   1.412   8.172  0.1138 -0.3658  0.5903
  153SAPE  H18R17026   6.303   1.494   8.235 -3.4332 -0.3699 -1.5910
  153SAPE  H18S17027   6.282   1.325   8.204 -1.0613 -1.1165 -3.4972
  153SAPE  C21917028   6.323   1.436   8.026  0.2618 -0.5511 -0.0442
  153SAPE  H19R17029   6.213   1.421   8.014  0.1251  0.7670 -0.5129
  153SAPE  H19S17030   6.387   1.363   7.971  0.4329 -0.3821 -0.0657
  153SAPE  C22017031   6.362   1.575   7.981 -0.7538 -0.1764  0.2974
  153SAPE  H20R17032   6.285   1.647   8.016 -0.0539  1.0348 -0.6031
  153SAPE  H20S17033   6.364   1.586   7.870 -2.3806 -1.3092  0.1343
  153SAPE  H20T17034   6.467   1.603   8.003 -0.8395 -0.6127  1.2962
  153SAPE   C3317035   6.217   1.316   9.399  0.1480  0.1477  0.4983
  153SAPE   H3X17036   6.110   1.315   9.429 -0.3048  0.0207 -1.0941
  153SAPE   H3Y17037   6.236   1.207   9.391 -0.2804  0.0920  0.2680
  153SAPE   C3417038   6.233   1.396   9.264  0.4146  0.2517 -0.0196
  153SAPE   H4X17039   6.334   1.372   9.225  1.0127 -1.8308  2.5952
  153SAPE   H4Y17040   6.216   1.500   9.298 -2.2614  0.2894 -1.3434
  153SAPE   C3517041   6.141   1.353   9.158  0.3138  0.3141  0.1245
  153SAPE   H5X17042   6.038   1.366   9.197  0.0714 -1.3642  0.0999
  153SAPE   H5Y17043   6.160   1.244   9.149  1.0810  0.5290 -0.9300
  153SAPE   C3617044   6.162   1.416   9.016 -0.1527 -0.3641  0.1068
  153SAPE   H6X17045   6.151   1.525   9.038 -1.5303 -0.0011 -2.2509
  153SAPE   H6Y17046   6.081   1.396   8.943 -1.7608 -0.3590  1.8592
  153SAPE   C3717047   6.301   1.395   8.955 -0.3004 -0.7431  0.2219
  153SAPE   H7X17048   6.328   1.289   8.936  0.3870 -0.3544 -1.0515
  153SAPE   H7Y17049   6.373   1.456   9.015 -0.0453  1.8307 -2.6125
  153SAPE   C3817050   6.318   1.462   8.814  0.2733  0.4711 -0.7788
  153SAPE   H8X17051   6.241   1.411   8.752  0.8668 -0.2478 -0.9191
  153SAPE   H8Y17052   6.418   1.433   8.775  2.1840  0.8785  3.5519
  153SAPE   C3917053   6.295   1.615   8.802 -0.1509 -0.8097  0.1610
  153SAPE   H9X17054   6.338   1.671   8.888 -0.7195  1.0343 -0.7224
  153SAPE   H9Y17055   6.187   1.640   8.812  0.7287  2.5428  1.9560
  153SAPE  C31017056   6.341   1.678   8.674 -0.2346 -0.1561 -0.4666
  153SAPE  H10X17057   6.320   1.786   8.680  0.2231 -0.0631 -0.4887
  153SAPE  H10Y17058   6.298   1.633   8.582  0.2396 -3.5760  0.8981
  153SAPE  C31117059   6.497   1.665   8.655  0.1141 -0.3644  0.3482
  153SAPE  H11X17060   6.525   1.558   8.645 -3.5502 -1.2965 -0.8843
  153SAPE  H11Y17061   6.547   1.691   8.751 -1.3106 -1.9209  1.5298
  153SAPE  C31217062   6.541   1.762   8.548 -0.0200 -0.0270  0.1544
  153SAPE  H12X17063   6.502   1.862   8.576  0.2082  0.4502 -1.1550
  153SAPE  H12Y17064   6.486   1.725   8.458 -0.0485 -1.7498  0.8755
  153SAPE  C31317065   6.698   1.764   8.524  0.3427  0.2386  0.0046
  153SAPE  H13X17066   6.722   1.668   8.473  2.2523 -0.3606  1.9677
  153SAPE  H13Y17067   6.751   1.773   8.621  0.6356 -0.1664 -0.1213
  153SAPE  C31417068   6.742   1.871   8.424  0.3884  0.7617  0.5198
  153SAPE  H14X17069   6.722   1.973   8.464  2.0249  0.4651  2.1726
  153SAPE  H14Y17070   6.698   1.859   8.323  1.0722  0.2832  0.2783
  153SAPE  C31517071   6.889   1.859   8.398 -0.4265 -0.1133  0.0509
  153SAPE  H15X17072   6.917   1.912   8.304  2.3969 -1.2005  0.2504
  153SAPE  H15Y17073   6.910   1.752   8.382  1.2323  0.4142 -1.4635
  153SAPE  C31617074   6.974   1.924   8.513  0.7350  0.2253  0.2254
  153SAPE  H16X17075   6.947   1.884   8.613  0.6715  1.2770  0.6323
  153SAPE  H16Y17076   6.953   2.033   8.520  0.2054  0.2510 -1.5839
  153SAPE  C31717077   7.126   1.906   8.485  0.4623 -0.1199  0.3657
  153SAPE  H17X17078   7.152   1.968   8.396 -1.8139  1.1243  0.5231
  153SAPE  H17Y17079   7.139   1.802   8.447  1.6869 -1.1568  3.5103
  153SAPE  C31817080   7.227   1.924   8.594 -0.1049  1.0157 -0.5113
  153SAPE  H18X17081   7.205   2.020   8.646  2.3950  0.7863  1.0644
  153SAPE  H18Y17082   7.330   1.942   8.555 -0.0858 -1.9857 -1.9597
  153SAPE  H18Z17083   7.217   1.837   8.662  0.1175  0.9203 -0.6007
  154SAPE     N17084   0.552   1.120  10.082 -0.1538  0.1597 -0.6042
  154SAPE   HN117085   0.524   1.064   9.999  2.2987 -1.1283 -0.6144
  154SAPE   HN217086   0.506   1.081  10.167  0.0130  0.0391 -0.5681
  154SAPE   HN317087   0.511   1.215  10.072 -1.1588 -0.3125 -1.0512
  154SAPE   C1217088   0.699   1.141  10.096  0.8727  0.2972  0.3569
  154SAPE  H12A17089   0.715   1.200  10.189  0.3669  2.5892 -0.9716
  154SAPE  H12B17090   0.733   1.201  10.009 -0.5164  0.1554 -0.2924
  154SAPE   C1117091   0.777   1.008  10.101  0.0406 -0.7542 -0.0514
  154SAPE  H11A17092   0.758   0.951  10.008  0.3348 -2.2047  0.7614
  154SAPE  H11B17093   0.728   0.954  10.185 -1.1185 -0.2090 -0.3582
  154SAPE     P17094   1.005   1.061   9.999  0.1009 -0.1019  0.4899
  154SAPE   O1317095   0.999   1.207   9.967 -0.0218 -0.4750 -0.0856
  154SAPE   O1417096   1.138   1.006  10.032  0.2990  0.3108  0.0968
  154SAPE   O1217097   0.911   1.033  10.121 -0.3260 -0.5663  0.0803
  154SAPE   O1117098   0.941   0.967   9.885 -0.1792 -0.4437 -0.2269
  154SAPE    C117099   1.028   0.907   9.785  0.0055 -0.6385  0.1914
  154SAPE    HA17100   1.070   0.981   9.714  0.9021 -0.9917  0.3479
  154SAPE    HB17101   1.111   0.853   9.834  0.7815 -1.3043 -1.7936
  154SAPE    C217102   0.936   0.788   9.709  0.7305  0.2956 -0.4164
  154SAPE    HS17103   0.994   0.755   9.620 -1.8414 -3.8851 -0.6577
  154SAPE   O2117104   0.805   0.841   9.675 -0.5652  0.0494 -0.4650
  154SAPE   C2117105   0.808   0.922   9.575  0.0465 -0.5490  0.1978
  154SAPE   O2217106   0.902   0.960   9.506 -0.0102  0.9641  0.2675
  154SAPE   C2217107   0.668   0.968   9.538  0.0342 -0.3254 -0.1956
  154SAPE   H2R17108   0.625   1.034   9.616  0.0014  1.8052 -1.9630
  154SAPE   H2S17109   0.674   1.019   9.440  2.7172  0.0535  0.1439
  154SAPE    C317110   0.923   0.670   9.807 -0.0189  0.2320 -0.5667
  154SAPE    HX17111   0.830   0.678   9.868  0.2474  0.0695 -0.1335
  154SAPE    HY17112   1.011   0.692   9.872 -1.4394 -0.0392  1.4937
  154SAPE   O3117113   0.934   0.535   9.747  0.0499 -0.6119  0.0860
  154SAPE   C3117114   0.821   0.493   9.692 -0.4574  0.3616 -0.0737
  154SAPE   O3217115   0.711   0.543   9.703  0.0104 -0.0858 -0.7319
  154SAPE   C3217116   0.847   0.358   9.636  0.9075  0.6024  0.2164
  154SAPE   H2X17117   0.745   0.326   9.605  1.4431  1.9473 -3.1714
  154SAPE   H2Y17118   0.877   0.296   9.723  1.8935  0.6455 -0.0976
  154SAPE   C2317119   0.565   0.843   9.522 -0.3781  0.5513  0.8819
  154SAPE   H3R17120   0.464   0.885   9.504 -0.2689  0.6150  0.4158
  154SAPE   H3S17121   0.567   0.784   9.616  3.3038 -0.5231  0.2156
  154SAPE   C2417122   0.612   0.757   9.407 -0.2748 -0.3826 -0.2028
  154SAPE   H4R17123   0.723   0.755   9.402 -0.2920  0.8863 -1.9207
  154SAPE   H4S17124   0.588   0.814   9.314 -0.4364  1.6507  1.0572
  154SAPE   C2517125   0.559   0.614   9.408  0.3706  0.3170 -0.2545
  154SAPE   H5R17126   0.601   0.549   9.486 -0.9702  1.3023  1.3221
  154SAPE   C2617127   0.486   0.548   9.312 -0.1353 -0.5926  0.6815
  154SAPE   H6R17128   0.475   0.442   9.338  1.8432 -1.0570 -0.2663
  154SAPE   C2717129   0.431   0.595   9.180  0.8440  0.0771  0.2994
  154SAPE   H7R17130   0.454   0.700   9.153  2.5464 -0.7294 -1.5042
  154SAPE   H7S17131   0.321   0.583   9.189  0.8109 -0.9251 -1.2550
  154SAPE   C2817132   0.465   0.513   9.057  0.3304  0.3238 -0.5617
  154SAPE   H8R17133   0.500   0.409   9.072 -0.5988  0.3295  1.8807
  154SAPE   C2917134   0.410   0.540   8.931  0.1483 -0.1535 -0.9494
  154SAPE   H9R17135   0.414   0.457   8.858  1.3008 -0.8253 -0.1590
  154SAPE  C21017136   0.324   0.652   8.888 -0.3821 -0.0118  0.2100
  154SAPE  H10R17137   0.303   0.705   8.983 -0.4770 -1.3736  0.9687
  154SAPE  H10S17138   0.231   0.601   8.855 -0.8796 -0.1664  1.8263
  154SAPE  C21117139   0.398   0.742   8.793 -0.0240  0.3093  0.0209
  154SAPE  H11R17140   0.486   0.798   8.827  0.7690 -0.7158 -0.3124
  154SAPE  C21217141   0.358   0.776   8.679  0.1415  0.1045  0.1411
  154SAPE  H12R17142   0.428   0.830   8.615  1.3151  0.2633  1.5339
  154SAPE  C21317143   0.232   0.721   8.616 -0.3272  0.2855 -0.4447
  154SAPE  H13R17144   0.170   0.679   8.698 -0.5132  0.4080 -0.5237
  154SAPE  H13S17145   0.268   0.639   8.551  2.2594  1.8631 -1.0862
  154SAPE  C21417146   0.153   0.824   8.539 -0.4099  0.1171  0.2129
  154SAPE  H14R17147   0.094   0.889   8.606  1.0364  0.0643  1.5593
  154SAPE  C21517148   0.148   0.846   8.408  0.0704 -0.2411  0.7907
  154SAPE  H15R17149   0.087   0.929   8.369  1.0650  0.2444  0.2480
  154SAPE  C21617150   0.232   0.768   8.311 -0.0557  0.3621  0.2806
  154SAPE  H16R17151   0.252   0.662   8.340 -0.7883 -0.5265 -2.2583
  154SAPE  H16S17152   0.333   0.813   8.296 -0.5249  1.7018  1.1150
  154SAPE  C21717153   0.156   0.753   8.180 -0.1309 -0.0314  0.7277
  154SAPE  H17R17154   0.062   0.695   8.192  0.3374 -0.9803 -0.0747
  154SAPE  H17S17155   0.227   0.693   8.120 -0.5853 -1.3137  1.4596
  154SAPE  C21817156   0.154   0.886   8.100 -0.7263 -0.2454  0.0880
  154SAPE  H18R17157   0.249   0.943   8.096 -0.8475 -0.0623 -0.2057
  154SAPE  H18S17158   0.081   0.954   8.148  0.3527  2.3081 -1.7817
  154SAPE  C21917159   0.109   0.869   7.953  0.5728  0.0717 -0.1002
  154SAPE  H19R17160   0.190   0.811   7.905 -2.1544 -2.1430 -2.1805
  154SAPE  H19S17161   0.108   0.973   7.914 -1.0238 -0.0916 -0.5286
  154SAPE  C22017162  -0.015   0.792   7.934  0.2284 -0.0456  0.1080
  154SAPE  H20R17163  -0.044   0.789   7.827 -1.4495  1.2584  0.5122
  154SAPE  H20S17164  -0.102   0.849   7.972 -0.3665 -0.4154 -0.6857
  154SAPE  H20T17165  -0.012   0.695   7.988 -1.2582  0.0702  0.4055
  154SAPE   C3317166   0.944   0.361   9.516  0.1452 -0.1465 -0.0970
  154SAPE   H3X17167   0.951   0.256   9.479  0.0383 -1.1508  2.6521
  154SAPE   H3Y17168   1.048   0.397   9.531  0.2530 -0.0600 -0.9719
  154SAPE   C3417169   0.885   0.443   9.405 -0.5126 -0.4205  0.8061
  154SAPE   H4X17170   0.883   0.548   9.442 -2.1268  0.1730 -0.8877
  154SAPE   H4Y17171   0.785   0.407   9.375 -0.5540 -0.8311  1.4382
  154SAPE   C3517172   0.970   0.431   9.281 -0.8963  0.7476  0.1506
  154SAPE   H5X17173   0.984   0.327   9.247 -1.8917  1.1551 -1.5737
  154SAPE   H5Y17174   1.072   0.456   9.316 -0.5468 -1.3817  0.7264
  154SAPE   C3617175   0.921   0.500   9.157  0.1493 -0.6958  0.1888
  154SAPE   H6X17176   0.829   0.450   9.120  0.6370 -1.4447 -0.0320
  154SAPE   H6Y17177   0.982   0.491   9.064  0.0754  1.8912 -0.1477
  154SAPE   C3717178   0.883   0.650   9.174  0.4951  0.3851 -0.4298
  154SAPE   H7X17179   0.973   0.695   9.221  1.4285  0.2971 -2.1027
  154SAPE   H7Y17180   0.807   0.659   9.255  0.9882  2.7070 -0.2132
  154SAPE   C3817181   0.845   0.731   9.047  0.2884  0.6319  0.8735
  154SAPE   H8X17182   0.764   0.678   8.992 -0.9997  3.2192  0.1953
  154SAPE   H8Y17183   0.938   0.724   8.986 -1.6395 -0.8351 -1.9913
  154SAPE   C3917184   0.789   0.869   9.067  0.3915 -0.0685  0.2629
  154SAPE   H9X17185   0.863   0.936   9.116 -0.4417  0.6598  0.5376
  154SAPE   H9Y17186   0.712   0.863   9.147 -0.8321 -0.0626 -0.8948
  154SAPE  C31017187   0.732   0.927   8.940 -0.2554 -0.1913  0.2184
  154SAPE  H10X17188   0.681   1.018   8.978  1.2019  0.1615  1.3772
  154SAPE  H10Y17189   0.656   0.857   8.900  0.5488 -0.5292 -0.7355
  154SAPE  C31117190   0.839   0.960   8.843 -0.8151 -0.6276 -0.0463
  154SAPE  H11X17191   0.905   0.872   8.841  0.7198  0.5113 -0.1505
  154SAPE  H11Y17192   0.890   1.049   8.888 -3.3093  0.0737  1.5226
  154SAPE  C31217193   0.777   0.991   8.709  0.6984 -0.4487  0.5046
  154SAPE  H12X17194   0.718   1.084   8.721  0.5275 -0.4114 -0.5985
  154SAPE  H12Y17195   0.708   0.907   8.687  0.3479 -0.3747  1.2860
  154SAPE  C31317196   0.872   1.001   8.586 -0.3763 -0.1813  0.7771
  154SAPE  H13X17197   0.948   1.078   8.612 -0.4243 -0.9138  3.2431
  154SAPE  H13Y17198   0.806   1.034   8.503  0.0449  0.8863  0.8498
  154SAPE  C31417199   0.947   0.873   8.549  0.6891 -0.6536 -0.6159
  154SAPE  H14X17200   0.872   0.792   8.556 -1.1765  1.2703  2.9226
  154SAPE  H14Y17201   1.020   0.854   8.631  0.6156 -1.3763 -0.7151
  154SAPE  C31517202   1.004   0.872   8.408 -0.4681  0.2977  0.6907
  154SAPE  H15X17203   1.058   0.966   8.380 -1.9207  0.4236 -1.9053
  154SAPE  H15Y17204   0.912   0.863   8.345 -0.5992 -0.2652  0.9654
  154SAPE  C31617205   1.090   0.751   8.374 -0.4246 -0.5864 -1.0180
  154SAPE  H16X17206   1.038   0.666   8.422 -1.2051  0.1919 -0.4714
  154SAPE  H16Y17207   1.189   0.759   8.424  0.7211  0.8621 -3.4262
  154SAPE  C31717208   1.108   0.741   8.222 -0.6785 -0.1053  0.1109
  154SAPE  H17X17209   1.150   0.835   8.180 -2.0888  0.6462  0.3325
  154SAPE  H17Y17210   1.014   0.731   8.164  1.3814 -0.7443 -3.2392
  154SAPE  C31817211   1.184   0.620   8.180  0.1452  0.5304 -0.0332
  154SAPE  H18X17212   1.272   0.646   8.117  0.7516  1.6454  1.2536
  154SAPE  H18Y17213   1.124   0.545   8.123 -0.2981  0.1355  0.9424
  154SAPE  H18Z17214   1.226   0.578   8.273 -0.5016 -0.0973 -0.0220
  155SAPE     N17215   0.833   7.008  10.148  0.1698  0.1496 -0.0657
  155SAPE   HN117216   0.778   6.933  10.196  2.3438 -0.5931  1.3674
  155SAPE   HN217217   0.895   7.047  10.222  1.4560  1.6042 -1.8581
  155SAPE   HN317218   0.771   7.090  10.132 -1.3487 -1.1570 -1.0482
  155SAPE   C1217219   0.920   6.962  10.044 -0.7683 -0.5917  0.4952
  155SAPE  H12A17220   0.870   6.902   9.965  0.1254 -1.2034  0.3930
  155SAPE  H12B17221   0.998   6.894  10.085  0.6480  0.3072 -0.6361
  155SAPE   C1117222   0.977   7.091   9.984  0.2661  0.7870  0.4292
  155SAPE  H11A17223   1.028   7.060   9.890 -0.4604  1.7753 -0.3051
  155SAPE  H11B17224   1.050   7.143  10.048  0.9719  1.0124 -0.5396
  155SAPE     P17225   0.911   7.330   9.908  0.4939 -0.0151  0.0645
  155SAPE   O1317226   0.803   7.382   9.834 -0.2739  0.2785  0.5756
  155SAPE   O1417227   0.944   7.403  10.030 -0.3179 -0.8913  0.3660
  155SAPE   O1217228   0.879   7.182   9.944  0.1172  0.3697  0.0199
  155SAPE   O1117229   1.040   7.321   9.816  0.6535 -0.1600 -1.0453
  155SAPE    C117230   1.035   7.255   9.692 -0.5544  0.4157  0.1403
  155SAPE    HA17231   1.054   7.145   9.694  1.0049  0.6880  1.2384
  155SAPE    HB17232   0.939   7.279   9.643 -1.4678 -1.2432  1.0894
  155SAPE    C217233   1.140   7.318   9.599 -0.9538 -0.0310 -0.3103
  155SAPE    HS17234   1.112   7.425   9.591  0.4111  0.4342  1.0170
  155SAPE   O2117235   1.133   7.243   9.478  0.6351  0.5563 -0.3606
  155SAPE   C2117236   1.160   7.320   9.368  0.1007  0.9652 -0.1598
  155SAPE   O2217237   1.182   7.438   9.375 -0.3145 -0.1562 -0.5591
  155SAPE   C2217238   1.153   7.226   9.242  0.2494 -0.1882 -0.5279
  155SAPE   H2R17239   1.225   7.144   9.262 -0.3119 -0.5766 -0.1019
  155SAPE   H2S17240   1.054   7.178   9.233  0.8281 -1.4072 -0.5012
  155SAPE    C317241   1.282   7.304   9.665 -0.2895 -0.0341 -0.2863
  155SAPE    HX17242   1.305   7.196   9.676  0.7946  0.4616  3.0598
  155SAPE    HY17243   1.270   7.343   9.768  1.8116 -0.1782  0.0300
  155SAPE   O3117244   1.377   7.383   9.603  0.3296 -0.4822  0.2233
  155SAPE   C3117245   1.481   7.323   9.556  0.2240  0.6791  0.1737
  155SAPE   O3217246   1.518   7.209   9.583 -0.5030  0.0371  0.3489
  155SAPE   C3217247   1.541   7.431   9.460  0.0878  0.2702  0.1342
  155SAPE   H2X17248   1.550   7.535   9.498 -0.1908  0.8539 -1.3620
  155SAPE   H2Y17249   1.458   7.432   9.387  0.2354 -0.1963 -0.0420
  155SAPE   C2317250   1.172   7.302   9.109 -0.4380 -0.0810  0.3991
  155SAPE   H3R17251   1.093   7.380   9.100 -0.6593 -0.2219  1.1414
  155SAPE   H3S17252   1.156   7.230   9.026  2.5437  0.6659 -0.8691
  155SAPE   C2417253   1.320   7.358   9.091  0.5047 -0.2441  1.3043
  155SAPE   H4R17254   1.388   7.273   9.113  1.8314  0.7318  1.0530
  155SAPE   H4S17255   1.337   7.434   9.170  1.1187  0.5397  0.4294
  155SAPE   C2517256   1.354   7.418   8.954  0.6155 -0.8221 -0.1315
  155SAPE   H5R17257   1.385   7.343   8.880  0.6468  1.9138 -2.9413
  155SAPE   C2617258   1.359   7.543   8.904  0.5120  0.4520  0.0866
  155SAPE   H6R17259   1.376   7.559   8.797 -0.0972  0.7975  0.0423
  155SAPE   C2717260   1.332   7.677   8.966 -0.9643 -0.5601 -0.2386
  155SAPE   H7R17261   1.222   7.684   8.976 -0.8195  0.8361  0.4197
  155SAPE   H7S17262   1.370   7.752   8.893 -2.0892 -0.2578 -0.5131
  155SAPE   C2817263   1.391   7.710   9.097  0.7414 -1.2416 -0.5091
  155SAPE   H8R17264   1.471   7.641   9.129  2.2281  0.1437 -1.1560
  155SAPE   C2917265   1.368   7.815   9.178 -0.7430 -0.0845 -0.8152
  155SAPE   H9R17266   1.419   7.819   9.275 -0.0298  0.0365 -1.1947
  155SAPE  C21017267   1.271   7.924   9.149 -0.2377 -0.2050 -0.7542
  155SAPE  H10R17268   1.208   7.930   9.240 -2.2205 -0.8120 -2.0452
  155SAPE  H10S17269   1.210   7.885   9.064 -1.2926 -2.2936  0.9089
  155SAPE  C21117270   1.344   8.056   9.135  0.3236 -0.0692  0.1248
  155SAPE  H11R17271   1.402   8.074   9.227  0.2814  1.1998 -0.0966
  155SAPE  C21217272   1.335   8.148   9.039  0.1011  0.6681 -0.3827
  155SAPE  H12R17273   1.410   8.229   9.043 -1.4039  2.0173  0.8864
  155SAPE  C21317274   1.257   8.147   8.916  0.6889 -0.4726  0.3932
  155SAPE  H13R17275   1.170   8.079   8.922 -1.1494  1.5654 -2.0546
  155SAPE  H13S17276   1.324   8.107   8.836 -0.1687  0.9726 -1.0753
  155SAPE  C21417277   1.202   8.285   8.892 -0.1013 -0.8978  0.1617
  155SAPE  H14R17278   1.106   8.305   8.942  0.1362 -2.0440  1.1267
  155SAPE  C21517279   1.258   8.394   8.831 -0.2614 -0.0301  1.7435
  155SAPE  H15R17280   1.200   8.487   8.825  1.0181  0.6863 -0.4861
  155SAPE  C21617281   1.393   8.388   8.761 -0.1216  0.1002 -0.9564
  155SAPE  H16R17282   1.460   8.311   8.805 -0.3974  0.8948  0.9494
  155SAPE  H16S17283   1.445   8.487   8.766 -1.5510  1.0710 -4.0770
  155SAPE  C21717284   1.382   8.362   8.610 -0.1151 -0.5464  0.2540
  155SAPE  H17R17285   1.350   8.256   8.602  0.1413 -0.5197 -1.2330
  155SAPE  H17S17286   1.479   8.376   8.558 -1.7057  1.2193 -2.3279
  155SAPE  C21817287   1.273   8.451   8.535  0.3131 -0.0358 -0.2224
  155SAPE  H18R17288   1.286   8.552   8.580  0.2129  0.7943 -1.9893
  155SAPE  H18S17289   1.173   8.407   8.554  0.4076  0.1404  0.7133
  155SAPE  C21917290   1.289   8.460   8.383  0.5020 -0.2225  0.1518
  155SAPE  H19R17291   1.289   8.355   8.345  1.7160 -0.5244  0.9466
  155SAPE  H19S17292   1.383   8.503   8.343 -0.9788  3.9917  0.9120
  155SAPE  C22017293   1.181   8.547   8.313 -0.3720 -0.4069 -0.3882
  155SAPE  H20R17294   1.183   8.540   8.202 -0.7451 -2.5836 -0.2826
  155SAPE  H20S17295   1.205   8.653   8.339  0.4727 -1.1546  2.0088
  155SAPE  H20T17296   1.082   8.522   8.357 -0.2481  1.4854  1.0313
  155SAPE   C3317297   1.674   7.388   9.394 -0.0903 -0.4201 -0.7352
  155SAPE   H3X17298   1.670   7.280   9.369 -1.0590 -0.6549  0.3966
  155SAPE   H3Y17299   1.758   7.402   9.465  2.1009 -1.3245 -3.0434
  155SAPE   C3417300   1.700   7.464   9.264 -0.3021 -0.0310  0.1789
  155SAPE   H4X17301   1.714   7.572   9.288  3.7232 -0.3806 -0.2854
  155SAPE   H4Y17302   1.613   7.444   9.198 -0.2641 -3.2997  1.0363
  155SAPE   C3517303   1.830   7.414   9.204 -1.0413  1.3473  0.6344
  155SAPE   H5X17304   1.829   7.303   9.209 -0.9126  1.2816 -0.6127
  155SAPE   H5Y17305   1.911   7.459   9.264  1.4900  0.7233 -2.2185
  155SAPE   C3617306   1.838   7.440   9.050  0.2819 -0.1760 -0.2309
  155SAPE   H6X17307   1.939   7.423   9.007 -0.4941 -1.8468 -1.4413
  155SAPE   H6Y17308   1.821   7.549   9.035  0.8592  0.0961  1.0224
  155SAPE   C3717309   1.737   7.361   8.962 -0.0023  0.0459  0.2156
  155SAPE   H7X17310   1.632   7.376   8.993  0.2116  1.3930  0.3165
  155SAPE   H7Y17311   1.761   7.252   8.966  1.6956  0.3280 -1.3723
  155SAPE   C3817312   1.757   7.407   8.817  0.3183  0.4245  0.3391
  155SAPE   H8X17313   1.863   7.407   8.783  0.0146  0.4586 -0.6218
  155SAPE   H8Y17314   1.715   7.510   8.817 -3.8206 -1.1856  0.8030
  155SAPE   C3917315   1.671   7.326   8.718 -0.1507  0.3529 -0.3451
  155SAPE   H9X17316   1.564   7.331   8.747 -0.6708  1.2660 -2.3649
  155SAPE   H9Y17317   1.712   7.224   8.729 -0.1465  0.0336 -3.1897
  155SAPE  C31017318   1.694   7.379   8.574  0.1220  0.0655  0.4046
  155SAPE  H10X17319   1.802   7.379   8.550 -0.3532  1.3710 -1.9574
  155SAPE  H10Y17320   1.671   7.488   8.575 -0.0637  0.0884 -2.0078
  155SAPE  C31117321   1.599   7.325   8.462  0.0187  0.3444  0.0857
  155SAPE  H11X17322   1.597   7.379   8.365 -0.4988  0.8787  0.3932
  155SAPE  H11Y17323   1.497   7.324   8.507  0.0008  0.7368  0.0538
  155SAPE  C31217324   1.631   7.181   8.424  0.5039  0.9613  0.1330
  155SAPE  H12X17325   1.682   7.122   8.503  1.0068 -1.4221 -1.9000
  155SAPE  H12Y17326   1.705   7.172   8.342  1.7054 -0.4144  1.3343
  155SAPE  C31317327   1.510   7.109   8.373  0.0305  0.5774  0.1525
  155SAPE  H13X17328   1.471   7.172   8.291 -2.9796 -0.4150  0.7768
  155SAPE  H13Y17329   1.431   7.096   8.449  0.4889  1.1382  0.7289
  155SAPE  C31417330   1.533   6.971   8.301 -0.1202 -0.2870 -0.2090
  155SAPE  H14X17331   1.586   6.905   8.373  0.6897  1.5223  0.8676
  155SAPE  H14Y17332   1.597   6.969   8.211 -0.3152 -2.8625 -0.3217
  155SAPE  C31517333   1.402   6.894   8.275  0.4996  0.0030  0.0181
  155SAPE  H15X17334   1.354   6.873   8.373  0.8374 -0.9542 -0.0151
  155SAPE  H15Y17335   1.430   6.800   8.222  0.3848  0.5590 -1.0469
  155SAPE  C31617336   1.304   6.956   8.179  0.5086  0.4704 -0.8281
  155SAPE  H16X17337   1.368   6.987   8.094 -0.0200 -3.7096 -2.8729
  155SAPE  H16Y17338   1.251   7.047   8.214  2.2409  1.4766 -0.7922
  155SAPE  C31717339   1.194   6.862   8.141  0.6484 -0.6294 -0.0188
  155SAPE  H17X17340   1.224   6.777   8.076  1.1716  2.0586 -3.3730
  155SAPE  H17Y17341   1.141   6.921   8.064  0.0974 -0.6641  0.3272
  155SAPE  C31817342   1.088   6.815   8.247 -0.1477  0.4254 -0.2143
  155SAPE  H18X17343   1.132   6.768   8.337  0.6914  0.5868 -0.5371
  155SAPE  H18Y17344   1.017   6.742   8.203  2.3407 -2.2571  0.0043
  155SAPE  H18Z17345   1.026   6.900   8.281 -2.1098 -1.0367 -0.0394
  156SAPE     N17346   7.008   5.548  10.172 -0.1655  0.6634 -0.3082
  156SAPE   HN117347   6.933   5.525  10.104 -0.6972  1.0312  0.1420
  156SAPE   HN217348   6.997   5.501  10.264 -0.8294 -0.7951 -1.1244
  156SAPE   HN317349   7.004   5.650  10.192 -2.5585  0.7194 -0.9166
  156SAPE   C1217350   7.130   5.502  10.097 -0.3397 -0.5550  0.3126
  156SAPE  H12A17351   7.124   5.397  10.064 -1.0606 -0.0746 -1.1080
  156SAPE  H12B17352   7.219   5.507  10.164  1.4713 -1.6436 -1.9617
  156SAPE   C1117353   7.162   5.591   9.975 -0.8693  0.1203 -0.0212
  156SAPE  H11A17354   7.073   5.611   9.913  0.6091  3.4447 -1.1823
  156SAPE  H11B17355   7.237   5.531   9.919  0.3780  0.9998  0.6721
  156SAPE     P17356   7.225   5.846   9.945  0.0155  0.0893  0.2447
  156SAPE   O1317357   7.086   5.892   9.942  0.3310 -0.8266  0.0782
  156SAPE   O1417358   7.327   5.928  10.009  0.3243 -0.0693 -0.1616
  156SAPE   O1217359   7.226   5.705  10.019 -0.0301  0.3604 -0.5988
  156SAPE   O1117360   7.268   5.815   9.797  0.2163  0.0158  0.1069
  156SAPE    C117361   7.379   5.730   9.767  0.2090  0.2950  0.1756
  156SAPE    HA17362   7.448   5.715   9.853 -1.8523 -1.0506  1.6484
  156SAPE    HB17363   7.335   5.634   9.732 -2.4287  0.8632  1.7718
  156SAPE    C217364   7.453   5.776   9.639 -0.2973  0.1583  0.1260
  156SAPE    HS17365   7.522   5.860   9.662  0.7481 -1.3497  2.6788
  156SAPE   O2117366   7.351   5.791   9.541  0.3095  0.4386  0.1881
  156SAPE   C2117367   7.321   5.923   9.517  0.0063 -0.6425 -0.3250
  156SAPE   O2217368   7.372   6.013   9.578 -0.2039 -0.2873 -0.1116
  156SAPE   C2217369   7.227   5.939   9.406  0.0002  0.1418 -0.8797
  156SAPE   H2R17370   7.248   5.855   9.337  1.6836  0.5963 -0.9361
  156SAPE   H2S17371   7.123   5.930   9.444 -0.2553  0.6778 -1.4338
  156SAPE    C317372   7.554   5.672   9.591  0.3357 -0.3012  0.1463
  156SAPE    HX17373   7.495   5.578   9.594 -1.7387  0.9381 -0.4635
  156SAPE    HY17374   7.638   5.675   9.663  1.0819  0.8452 -0.7582
  156SAPE   O3117375   7.591   5.706   9.457 -0.6272 -0.8001 -0.9948
  156SAPE   C3117376   7.685   5.796   9.442 -0.2138  0.4507  0.6841
  156SAPE   O3217377   7.760   5.839   9.535 -0.3591  0.3088  0.2506
  156SAPE   C3217378   7.700   5.842   9.299 -0.0252 -0.1153 -0.0918
  156SAPE   H2X17379   7.798   5.890   9.278  0.0285 -1.1756 -2.3656
  156SAPE   H2Y17380   7.631   5.928   9.292 -1.3856 -1.2778 -1.1483
  156SAPE   C2317381   7.248   6.065   9.321  0.1921 -0.2714  0.3434
  156SAPE   H3R17382   7.354   6.078   9.290 -0.0672  0.0307 -0.4212
  156SAPE   H3S17383   7.225   6.158   9.376  2.5836 -0.2794  1.4183
  156SAPE   C2417384   7.174   6.060   9.182  0.2784 -0.4951 -0.5754
  156SAPE   H4R17385   7.072   6.020   9.201  0.8277 -1.5662  0.1425
  156SAPE   H4S17386   7.231   5.993   9.114 -0.6247 -0.3175 -1.5252
  156SAPE   C2517387   7.148   6.192   9.110 -0.4884  0.4436 -0.2849
  156SAPE   H5R17388   7.113   6.278   9.170 -1.4128  0.4706 -0.8557
  156SAPE   C2617389   7.155   6.218   8.978  0.3661  0.0332  0.3564
  156SAPE   H6R17390   7.116   6.314   8.943  1.5739  0.9827  1.5889
  156SAPE   C2717391   7.196   6.130   8.867 -0.3110 -0.0791  0.5161
  156SAPE   H7R17392   7.242   6.036   8.905  0.1535  0.3173  0.9456
  156SAPE   H7S17393   7.271   6.183   8.805 -0.7833 -0.8001 -0.7037
  156SAPE   C2817394   7.077   6.089   8.786 -0.5691  0.1908 -0.4050
  156SAPE   H8R17395   6.987   6.146   8.815  1.6586  3.7918 -0.2376
  156SAPE   C2917396   7.072   5.999   8.688 -0.4745  1.4157  0.3549
  156SAPE   H9R17397   6.972   5.986   8.644  0.0217 -0.0706 -0.3377
  156SAPE  C21017398   7.183   5.910   8.635 -0.0843 -0.3440  0.4242
  156SAPE  H10R17399   7.132   5.817   8.602  1.3922 -0.4720 -1.5471
  156SAPE  H10S17400   7.261   5.872   8.704  0.8399  0.0299 -0.4079
  156SAPE  C21117401   7.256   5.963   8.514  0.1982  0.2586 -0.0574
  156SAPE  H11R17402   7.193   6.018   8.442 -0.8497 -0.3867  0.3517
  156SAPE  C21217403   7.384   5.956   8.478 -0.8753 -0.1072 -0.4610
  156SAPE  H12R17404   7.419   5.997   8.382  0.0380  0.6227  0.1749
  156SAPE  C21317405   7.496   5.885   8.556  0.3494 -1.0271 -0.1767
  156SAPE  H13R17406   7.501   5.776   8.534  0.1414 -1.4340  1.7211
  156SAPE  H13S17407   7.474   5.904   8.663 -3.1702 -0.1967 -0.9523
  156SAPE  C21417408   7.635   5.952   8.533  0.1715  0.0530  0.1525
  156SAPE  H14R17409   7.631   6.062   8.531  0.7279  0.0840  0.5666
  156SAPE  C21517410   7.747   5.882   8.497  0.1393 -0.0959 -0.2740
  156SAPE  H15R17411   7.842   5.935   8.483 -0.8872  1.9963  0.4250
  156SAPE  C21617412   7.747   5.732   8.473 -0.4505 -0.8205 -0.2240
  156SAPE  H16R17413   7.837   5.711   8.411  0.7764  0.1014  1.2288
  156SAPE  H16S17414   7.666   5.709   8.400  1.6582 -1.9239 -2.3213
  156SAPE  C21717415   7.735   5.639   8.591  0.4734 -0.6293  0.5708
  156SAPE  H17R17416   7.741   5.530   8.568  0.9788 -1.0437  2.5714
  156SAPE  H17S17417   7.642   5.651   8.651 -0.4382  0.0288 -0.9652
  156SAPE  C21817418   7.848   5.655   8.696  0.2830 -0.5062  0.0596
  156SAPE  H18R17419   7.820   5.576   8.770 -2.2601 -1.1903 -1.5794
  156SAPE  H18S17420   7.840   5.754   8.746 -0.4739 -0.4508 -0.1676
  156SAPE  C21917421   7.996   5.648   8.671  0.0855  0.3650 -0.0656
  156SAPE  H19R17422   8.051   5.678   8.763 -0.6530  2.7744 -0.3772
  156SAPE  H19S17423   8.024   5.722   8.593 -0.0711  1.2350  0.7050
  156SAPE  C22017424   8.047   5.508   8.635 -0.0097 -0.1530 -0.4772
  156SAPE  H20R17425   7.996   5.479   8.541  0.9208  0.9896 -1.3438
  156SAPE  H20S17426   8.025   5.432   8.713  2.5927  0.2721  0.7395
  156SAPE  H20T17427   8.158   5.507   8.624  0.0652 -0.4832  0.2319
  156SAPE   C3317428   7.663   5.737   9.189  0.4811  0.3043 -0.1793
  156SAPE   H3X17429   7.592   5.654   9.209  1.2148 -0.1452  0.5678
  156SAPE   H3Y17430   7.748   5.678   9.150  0.3460  1.2471 -1.9704
  156SAPE   C3417431   7.628   5.821   9.061 -0.1452  0.0011 -0.0259
  156SAPE   H4X17432   7.715   5.868   9.010 -0.2378 -1.1453 -1.2688
  156SAPE   H4Y17433   7.561   5.903   9.093  1.2901  1.2915 -0.2448
  156SAPE   C3517434   7.556   5.748   8.946  0.2947 -0.3229 -0.4603
  156SAPE   H5X17435   7.627   5.670   8.911 -0.2310 -1.7264  1.4863
  156SAPE   H5Y17436   7.531   5.817   8.863  0.7517 -0.8704 -1.0530
  156SAPE   C3617437   7.434   5.676   8.993  0.1146 -0.1499  0.2902
  156SAPE   H6X17438   7.369   5.748   9.048 -0.4555  0.3436 -1.0223
  156SAPE   H6Y17439   7.457   5.598   9.069 -1.1083  0.3908  1.2365
  156SAPE   C3717440   7.342   5.627   8.877 -0.2096  0.4961 -0.7007
  156SAPE   H7X17441   7.406   5.572   8.804  0.3025 -0.5377  0.5080
  156SAPE   H7Y17442   7.302   5.719   8.830 -2.0108 -0.9364 -2.0542
  156SAPE   C3817443   7.222   5.551   8.924 -0.5504  0.1003  0.0800
  156SAPE   H8X17444   7.174   5.619   8.997  2.1542  0.3082  1.6947
  156SAPE   H8Y17445   7.256   5.477   8.999  2.4753  1.2853 -0.0743
  156SAPE   C3917446   7.141   5.481   8.822  0.1477 -0.5725  0.1162
  156SAPE   H9X17447   7.048   5.539   8.802  0.7497  0.0103 -1.0763
  156SAPE   H9Y17448   7.099   5.384   8.856 -2.5497 -0.3514 -2.3458
  156SAPE  C31017449   7.206   5.454   8.684  0.9886  1.2533  0.5347
  156SAPE  H10X17450   7.299   5.394   8.693 -0.0608 -0.4726  0.0158
  156SAPE  H10Y17451   7.224   5.556   8.642 -1.4176  1.1273 -0.8707
  156SAPE  C31117452   7.116   5.369   8.592  0.5093 -0.0768  0.4973
  156SAPE  H11X17453   7.014   5.412   8.585  1.4625  2.1679 -0.1491
  156SAPE  H11Y17454   7.096   5.268   8.635 -2.4836 -0.2829 -1.2381
  156SAPE  C31217455   7.178   5.365   8.451  0.3470 -0.6366  0.5690
  156SAPE  H12X17456   7.270   5.303   8.456  1.7652  1.3895 -0.0063
  156SAPE  H12Y17457   7.207   5.471   8.435 -0.3155 -0.3854  1.0174
  156SAPE  C31317458   7.088   5.329   8.333 -0.2177 -0.1902  0.2423
  156SAPE  H13X17459   6.992   5.287   8.369  0.9757 -1.0064  2.6396
  156SAPE  H13Y17460   7.144   5.253   8.275 -0.2413  0.7411 -1.0111
  156SAPE  C31417461   7.051   5.448   8.244  0.3765 -0.0913 -0.1444
  156SAPE  H14X17462   7.009   5.412   8.148  0.1654 -1.4044  0.4372
  156SAPE  H14Y17463   7.144   5.506   8.224 -0.6232  2.4111  2.0647
  156SAPE  C31517464   6.953   5.558   8.305 -0.6379  0.1824 -0.2750
  156SAPE  H15X17465   6.934   5.637   8.230 -1.5434  0.9658  0.7614
  156SAPE  H15Y17466   7.006   5.606   8.389 -2.4805  4.2015 -1.3096
  156SAPE  C31617467   6.819   5.501   8.360 -0.3138 -0.3699 -0.4426
  156SAPE  H16X17468   6.841   5.427   8.440 -1.7790  0.9517  1.2498
  156SAPE  H16Y17469   6.770   5.433   8.287 -0.2650  0.3860 -1.1811
  156SAPE  C31717470   6.727   5.606   8.423 -0.1504  0.1959 -0.5073
  156SAPE  H17X17471   6.714   5.680   8.342 -3.9430  0.2163 -0.0004
  156SAPE  H17Y17472   6.782   5.668   8.497 -0.6559 -0.6684  0.6148
  156SAPE  C31817473   6.601   5.560   8.498 -0.0987  0.7280 -0.7087
  156SAPE  H18X17474   6.530   5.509   8.429  0.9576 -1.3132 -0.3223
  156SAPE  H18Y17475   6.542   5.646   8.536  1.1110  1.9357 -1.5259
  156SAPE  H18Z17476   6.621   5.491   8.582 -1.2775 -0.6999 -1.5811
  157SAPE     N17477   6.305   6.407  10.022  0.3774 -0.3964 -0.6014
  157SAPE   HN117478   6.324   6.452   9.931 -0.0163 -0.1642 -0.5716
  157SAPE   HN217479   6.249   6.320  10.009  1.3656 -1.3271  1.1127
  157SAPE   HN317480   6.247   6.467  10.085 -3.5436 -1.5970 -2.8736
  157SAPE   C1217481   6.438   6.384  10.071 -0.0554 -0.2696  0.1233
  157SAPE  H12A17482   6.427   6.308  10.152  0.5520 -0.9548 -0.4348
  157SAPE  H12B17483   6.493   6.465  10.123 -2.7971  0.9333  1.2201
  157SAPE   C1117484   6.538   6.340   9.959 -0.3269 -0.2322 -0.2681
  157SAPE  H11A17485   6.543   6.416   9.879 -3.4357 -1.7170 -1.9984
  157SAPE  H11B17486   6.489   6.248   9.920 -0.4807 -0.1600 -0.2431
  157SAPE     P17487   6.772   6.429  10.016 -0.2567 -0.0568 -0.0582
  157SAPE   O1317488   6.702   6.556  10.047  0.0647 -0.1197 -0.2311
  157SAPE   O1417489   6.882   6.398  10.106 -0.0764 -0.4225 -0.2621
  157SAPE   O1217490   6.662   6.313  10.019  0.4963  0.9203 -0.6135
  157SAPE   O1117491   6.819   6.438   9.870  0.0381 -0.3066 -0.4526
  157SAPE    C117492   6.851   6.331   9.779 -0.0860  0.1933  0.2392
  157SAPE    HA17493   6.949   6.349   9.729  0.4589  0.2996  1.3214
  157SAPE    HB17494   6.851   6.233   9.831 -0.0314 -0.2394 -0.5849
  157SAPE    C217495   6.751   6.324   9.661 -0.4810  0.4504 -0.5679
  157SAPE    HS17496   6.653   6.287   9.698  0.1123 -0.4305  0.1643
  157SAPE   O2117497   6.806   6.231   9.563  0.0543 -0.1957 -0.0204
  157SAPE   C2117498   6.757   6.106   9.565 -0.1456 -0.7178  0.2319
  157SAPE   O2217499   6.673   6.065   9.644 -0.6648 -0.3838 -0.4539
  157SAPE   C2217500   6.831   6.020   9.456 -1.2725 -0.0558 -0.4737
  157SAPE   H2R17501   6.924   6.075   9.430 -0.3390 -0.1045  2.5458
  157SAPE   H2S17502   6.872   5.929   9.506 -0.3552  0.0414 -1.0349
  157SAPE    C317503   6.726   6.457   9.593 -0.4469  0.7638  0.3878
  157SAPE    HX17504   6.823   6.500   9.561  0.5796 -1.4449  0.4876
  157SAPE    HY17505   6.685   6.530   9.667 -0.1752  1.3117 -0.0003
  157SAPE   O3117506   6.621   6.455   9.497 -0.1008  0.3909  0.3660
  157SAPE   C3117507   6.652   6.515   9.376  0.2324 -1.0160 -0.0142
  157SAPE   O3217508   6.761   6.564   9.352  0.3161 -0.0638  0.0557
  157SAPE   C3217509   6.522   6.513   9.292 -1.3476 -0.0534 -0.3056
  157SAPE   H2X17510   6.430   6.541   9.348 -1.2953  1.2089 -0.8353
  157SAPE   H2Y17511   6.506   6.405   9.274 -2.1463  0.1628 -0.9089
  157SAPE   C2317512   6.734   5.987   9.346  0.0186 -0.5407 -0.8516
  157SAPE   H3R17513   6.653   5.928   9.393  1.4874 -0.8597  1.3483
  157SAPE   H3S17514   6.778   5.916   9.272  0.9542 -1.3243  0.4401
  157SAPE   C2417515   6.667   6.104   9.279 -0.1747 -0.1652 -0.1572
  157SAPE   H4R17516   6.587   6.144   9.345 -0.4354 -0.9228 -0.0063
  157SAPE   H4S17517   6.613   6.070   9.188 -0.5659  1.0876 -0.4009
  157SAPE   C2517518   6.762   6.213   9.238  0.6937 -0.4489 -0.5291
  157SAPE   H5R17519   6.831   6.243   9.318  1.3686 -1.0090 -0.8969
  157SAPE   C2617520   6.778   6.272   9.118 -1.2403 -0.0374  0.5245
  157SAPE   H6R17521   6.854   6.352   9.113 -1.5119  0.0936 -2.2681
  157SAPE   C2717522   6.716   6.241   8.990 -0.3354 -0.2062  0.4018
  157SAPE   H7R17523   6.615   6.284   9.009 -0.4431 -1.9297  4.1853
  157SAPE   H7S17524   6.692   6.134   8.970 -0.2926  0.0688 -1.1930
  157SAPE   C2817525   6.773   6.313   8.870  0.2099  0.2845 -0.4085
  157SAPE   H8R17526   6.814   6.411   8.900  1.8261 -0.9199  1.4251
  157SAPE   C2917527   6.771   6.282   8.742 -0.3404  1.0239  0.4432
  157SAPE   H9R17528   6.822   6.350   8.672 -0.6290  2.1307  1.2861
  157SAPE  C21017529   6.720   6.156   8.680  0.1755 -0.0972 -0.1367
  157SAPE  H10R17530   6.660   6.100   8.754 -0.8722  0.0806 -0.8436
  157SAPE  H10S17531   6.806   6.093   8.650  2.1073  2.3995 -0.0556
  157SAPE  C21117532   6.625   6.184   8.571 -0.7543 -0.2759  0.6122
  157SAPE  H11R17533   6.536   6.239   8.607  0.4483  0.5640  2.3808
  157SAPE  C21217534   6.630   6.131   8.445  0.3192  0.0527 -0.5497
  157SAPE  H12R17535   6.541   6.150   8.383 -0.3516 -0.9497  0.0962
  157SAPE  C21317536   6.738   6.039   8.399  0.2001  0.0791  0.5921
  157SAPE  H13R17537   6.728   5.946   8.459  1.5386  0.6717  1.7639
  157SAPE  H13S17538   6.840   6.074   8.426 -0.4534  1.8742  0.8237
  157SAPE  C21417539   6.722   6.016   8.254 -0.6984  0.3319  0.1903
  157SAPE  H14R17540   6.652   5.936   8.225 -1.6354  1.9791 -2.3230
  157SAPE  C21517541   6.770   6.100   8.160  0.1183  0.0330  1.0142
  157SAPE  H15R17542   6.751   6.067   8.057 -0.6398  2.6219  0.2741
  157SAPE  C21617543   6.849   6.229   8.172  0.3733  0.7126 -0.0966
  157SAPE  H16R17544   6.853   6.247   8.282  0.0393 -1.3836  0.2803
  157SAPE  H16S17545   6.782   6.312   8.140  1.2960  1.8037  0.7452
  157SAPE  C21717546   6.990   6.244   8.111 -0.2413 -1.0231  0.5804
  157SAPE  H17R17547   7.025   6.346   8.139 -1.0334  0.0669 -2.2262
  157SAPE  H17S17548   6.988   6.239   8.000 -1.2770  2.1783  0.4003
  157SAPE  C21817549   7.094   6.150   8.177 -1.1156  0.0163 -0.1188
  157SAPE  H18R17550   7.051   6.048   8.174  4.3707 -2.5502  2.4410
  157SAPE  H18S17551   7.093   6.173   8.286  0.2578 -1.0203  0.1129
  157SAPE  C21917552   7.241   6.146   8.132 -0.5047 -0.5664 -0.5038
  157SAPE  H19R17553   7.305   6.074   8.187  1.9263  0.8817 -1.3610
  157SAPE  H19S17554   7.281   6.249   8.138  0.0111 -0.6239 -2.4393
  157SAPE  C22017555   7.264   6.109   7.980  0.2456  0.1682 -0.5823
  157SAPE  H20R17556   7.188   6.153   7.913 -1.5886 -0.4691  1.0212
  157SAPE  H20S17557   7.249   5.999   7.975  1.1614  0.0189 -0.2649
  157SAPE  H20T17558   7.367   6.135   7.948  0.1245 -0.6754 -1.6535
  157SAPE   C3317559   6.536   6.574   9.143 -0.1462  0.6682  0.4259
  157SAPE   H3X17560   6.625   6.524   9.100 -0.6909  0.2740 -0.2521
  157SAPE   H3Y17561   6.562   6.682   9.142  0.4823  0.5125  0.0713
  157SAPE   C3417562   6.405   6.562   9.055  0.1445  0.4073  0.9468
  157SAPE   H4X17563   6.344   6.654   9.071 -0.5999  0.3932 -1.6337
  157SAPE   H4Y17564   6.338   6.482   9.093 -1.3569 -0.3429 -3.0417
  157SAPE   C3517565   6.424   6.534   8.907  0.0103 -0.1760  0.6612
  157SAPE   H5X17566   6.329   6.505   8.857  1.3620 -3.0759 -0.3172
  157SAPE   H5Y17567   6.489   6.445   8.896 -0.2739 -0.3669  0.5189
  157SAPE   C3617568   6.482   6.645   8.812 -0.8924  0.0546  0.1281
  157SAPE   H6X17569   6.576   6.693   8.848 -1.1283  0.4413  0.2313
  157SAPE   H6Y17570   6.413   6.732   8.811  0.1498  0.8894 -0.9550
  157SAPE   C3717571   6.520   6.598   8.672 -0.0313  0.0321 -0.0770
  157SAPE   H7X17572   6.428   6.582   8.612  1.5425 -1.5695 -2.1189
  157SAPE   H7Y17573   6.558   6.495   8.685  1.6550  0.6292 -0.1471
  157SAPE   C3817574   6.623   6.689   8.593  0.3955  0.1615  0.1413
  157SAPE   H8X17575   6.714   6.716   8.652  0.0699 -3.6811  2.5570
  157SAPE   H8Y17576   6.579   6.788   8.568 -0.8023 -0.7772 -1.5528
  157SAPE   C3917577   6.682   6.617   8.472  0.3404  0.3714 -0.1333
  157SAPE   H9X17578   6.602   6.622   8.395  1.1341  0.2475 -0.9778
  157SAPE   H9Y17579   6.716   6.514   8.497  1.5753  1.7387  4.1637
  157SAPE  C31017580   6.800   6.696   8.417  0.1606  0.1620 -0.5046
  157SAPE  H10X17581   6.802   6.801   8.454  0.6839  0.5386 -1.5980
  157SAPE  H10Y17582   6.790   6.702   8.307 -1.3191  0.6136 -0.3565
  157SAPE  C31117583   6.936   6.643   8.463 -0.3545 -0.7728  0.1553
  157SAPE  H11X17584   6.949   6.542   8.418  1.1137 -0.8926  0.8413
  157SAPE  H11Y17585   6.926   6.633   8.573 -0.4637  1.4228  0.3644
  157SAPE  C31217586   7.053   6.737   8.431  0.4842  0.1843  0.7750
  157SAPE  H12X17587   7.029   6.834   8.479  1.0528  0.1426  1.1545
  157SAPE  H12Y17588   7.070   6.728   8.322 -1.3787  0.9158  0.4143
  157SAPE  C31317589   7.182   6.686   8.501  0.1691  0.0587  0.4242
  157SAPE  H13X17590   7.160   6.652   8.605  0.1481  2.5892  1.2773
  157SAPE  H13Y17591   7.262   6.762   8.515 -1.1943  1.3314  1.4843
  157SAPE  C31417592   7.251   6.573   8.424 -0.6417  0.1717  0.4991
  157SAPE  H14X17593   7.171   6.504   8.390 -0.9742  0.7528  0.1028
  157SAPE  H14Y17594   7.312   6.513   8.495  0.1662  2.3427  1.6797
  157SAPE  C31517595   7.334   6.624   8.302 -0.4608 -0.2691 -0.3804
  157SAPE  H15X17596   7.429   6.668   8.339  0.3625 -3.0135  0.8958
  157SAPE  H15Y17597   7.277   6.706   8.254  1.1066  0.5359 -0.9301
  157SAPE  C31617598   7.363   6.514   8.201  0.1789  0.0071  0.4626
  157SAPE  H16X17599   7.275   6.497   8.137  1.1385 -2.0482 -0.3388
  157SAPE  H16Y17600   7.383   6.421   8.258 -0.6995  0.7020  1.9434
  157SAPE  C31717601   7.484   6.558   8.118  0.5930  0.2993 -0.1112
  157SAPE  H17X17602   7.509   6.472   8.053  0.0647  0.1608 -0.1396
  157SAPE  H17Y17603   7.573   6.563   8.183 -0.3976 -2.5142  1.5092
  157SAPE  C31817604   7.478   6.676   8.027  0.0457  0.1072 -0.4255
  157SAPE  H18X17605   7.577   6.679   7.976  1.1715 -0.2172  1.7095
  157SAPE  H18Y17606   7.466   6.767   8.090  2.7267 -0.9023  1.6208
  157SAPE  H18Z17607   7.402   6.668   7.946 -1.7895 -0.0005  1.2654
  158SAPE     N17608   0.080   6.184   9.816  0.2985 -0.3176  0.0623
  158SAPE   HN117609   0.096   6.133   9.727  2.2152  0.0736  0.1567
  158SAPE   HN217610   0.017   6.135   9.881  1.5668 -3.7609 -1.1727
  158SAPE   HN317611   0.039   6.276   9.790  0.1733  0.5504  3.1035
  158SAPE   C1217612   0.211   6.193   9.895 -0.2694 -0.5097 -0.5224
  158SAPE  H12A17613   0.284   6.259   9.844  0.4264 -0.2011  0.8505
  158SAPE  H12B17614   0.258   6.092   9.894  1.0583  0.1049 -1.7955
  158SAPE   C1117615   0.184   6.243  10.033  0.3715  0.1572 -0.9064
  158SAPE  H11A17616   0.286   6.257  10.075 -0.0584 -0.6871  0.4731
  158SAPE  H11B17617   0.138   6.168  10.101 -1.3388  0.9096 -1.2247
  158SAPE     P17618  -0.008   6.404  10.112 -0.4387  0.1301  0.0887
  158SAPE   O1317619  -0.068   6.284  10.177 -0.1553 -0.2378  0.8966
  158SAPE   O1417620   0.025   6.526  10.191  0.5749  0.3943 -0.2149
  158SAPE   O1217621   0.124   6.372  10.042  0.4285  0.4173  0.3347
  158SAPE   O1117622  -0.088   6.446   9.991  0.0027  0.0249 -0.5864
  158SAPE    C117623  -0.159   6.567   9.974 -0.5288 -0.2487  0.6760
  158SAPE    HA17624  -0.235   6.550   9.895 -0.4391  2.7621 -0.1425
  158SAPE    HB17625  -0.217   6.604  10.062  0.3843  1.4579  0.5788
  158SAPE    C217626  -0.076   6.690   9.922 -0.2390  0.2030  0.4628
  158SAPE    HS17627  -0.011   6.722  10.006  1.3672  1.3530 -1.1565
  158SAPE   O2117628  -0.174   6.793   9.877 -0.3903  0.1010  0.1344
  158SAPE   C2117629  -0.120   6.917   9.880 -0.4191 -0.2997 -0.0015
  158SAPE   O2217630  -0.017   6.943   9.935  1.2228 -0.1260 -0.8671
  158SAPE   C2217631  -0.220   7.000   9.802 -0.3875 -0.0940  0.4830
  158SAPE   H2R17632  -0.272   6.934   9.729  1.3918 -0.6357 -0.3226
  158SAPE   H2S17633  -0.295   7.059   9.859  1.3747  1.7727  0.9327
  158SAPE    C317634   0.016   6.669   9.802  0.7309 -0.2250 -0.2322
  158SAPE    HX17635   0.093   6.595   9.834  0.2857 -0.5785  0.0397
  158SAPE    HY17636   0.075   6.760   9.781 -1.6697  1.5564  0.5069
  158SAPE   O3117637  -0.050   6.639   9.682 -0.1441  0.1426 -0.3630
  158SAPE   C3117638  -0.054   6.516   9.632  0.3170  0.2473  0.1045
  158SAPE   O3217639   0.004   6.421   9.673 -0.6162  0.2474 -0.4027
  158SAPE   C3217640  -0.151   6.503   9.518 -0.1041 -0.2839 -0.1652
  158SAPE   H2X17641  -0.253   6.526   9.554 -0.6197 -0.5721 -1.4503
  158SAPE   H2Y17642  -0.143   6.402   9.473 -2.3176  0.1636 -1.6282
  158SAPE   C2317643  -0.151   7.109   9.710  0.2202  0.1675 -0.3410
  158SAPE   H3R17644  -0.110   7.200   9.759  1.9126 -1.0647  0.5840
  158SAPE   H3S17645  -0.230   7.152   9.644 -0.2279  0.9964  0.7219
  158SAPE   C2417646  -0.047   7.051   9.614 -0.3262 -0.3033  0.4057
  158SAPE   H4R17647   0.025   6.980   9.660 -1.8439 -1.2092  1.4546
  158SAPE   H4S17648   0.005   7.145   9.585 -0.9766 -0.7717 -2.5141
  158SAPE   C2517649  -0.103   6.982   9.494  0.0677  0.0420 -0.6424
  158SAPE   H5R17650  -0.147   6.883   9.509 -0.1821  0.2917  0.2825
  158SAPE   C2617651  -0.092   7.029   9.372 -0.1766 -0.0751 -0.2820
  158SAPE   H6R17652  -0.128   6.966   9.290  0.6786 -1.8222  0.6525
  158SAPE   C2717653  -0.031   7.158   9.330 -0.4553  0.1344  0.5950
  158SAPE   H7R17654   0.058   7.131   9.268  0.2764  0.0597  1.6604
  158SAPE   H7S17655   0.019   7.216   9.410 -1.7859  2.3558 -0.1516
  158SAPE   C2817656  -0.118   7.254   9.253  0.1965  0.3792  1.1390
  158SAPE   H8R17657  -0.224   7.261   9.281 -0.7358  1.1275 -2.3308
  158SAPE   C2917658  -0.093   7.323   9.134 -0.0423  0.0666  0.0330
  158SAPE   H9R17659  -0.154   7.406   9.097 -0.3025 -0.3868 -0.5651
  158SAPE  C21017660   0.037   7.319   9.060 -0.6243 -0.2266  0.3556
  158SAPE  H10R17661   0.038   7.311   8.949 -0.8044  1.7572  0.1957
  158SAPE  H10S17662   0.097   7.228   9.083 -0.8240 -1.0355 -2.1867
  158SAPE  C21117663   0.118   7.440   9.086  0.5921 -0.1033 -0.0352
  158SAPE  H11R17664   0.102   7.471   9.190 -0.2554 -0.1981 -0.1371
  158SAPE  C21217665   0.208   7.495   8.994  0.3595 -0.0008 -0.0068
  158SAPE  H12R17666   0.267   7.585   9.015  2.7252 -0.9947 -2.0544
  158SAPE  C21317667   0.242   7.440   8.853  0.7194  0.9798 -0.3997
  158SAPE  H13R17668   0.147   7.395   8.818  1.9941 -1.4390 -0.9113
  158SAPE  H13S17669   0.314   7.356   8.865 -0.5752  0.0127  0.9152
  158SAPE  C21417670   0.286   7.547   8.759  0.0795  0.5643  0.2092
  158SAPE  H14R17671   0.218   7.634   8.752  0.1336  0.7917  2.1802
  158SAPE  C21517672   0.405   7.565   8.699 -0.8005 -0.2001  0.1710
  158SAPE  H15R17673   0.408   7.640   8.619  3.9858 -0.0934  0.2975
  158SAPE  C21617674   0.524   7.479   8.704 -0.4922  0.6262 -0.0133
  158SAPE  H16R17675   0.542   7.427   8.608  0.1398 -0.6460  0.7722
  158SAPE  H16S17676   0.507   7.398   8.779 -0.6920 -0.7521 -1.5197
  158SAPE  C21717677   0.658   7.552   8.741 -0.4123 -0.0664 -0.4858
  158SAPE  H17R17678   0.734   7.475   8.768  1.7754  1.6259 -1.6432
  158SAPE  H17S17679   0.636   7.613   8.831 -1.0413 -0.4657 -0.3685
  158SAPE  C21817680   0.724   7.638   8.633 -0.0862 -0.1962  0.0875
  158SAPE  H18R17681   0.694   7.745   8.646 -0.0992 -0.1556 -0.2582
  158SAPE  H18S17682   0.679   7.595   8.541 -0.0233  0.1607 -0.1147
  158SAPE  C21917683   0.876   7.624   8.625 -0.1700  0.0828  0.4810
  158SAPE  H19R17684   0.893   7.515   8.641 -1.5874 -0.1953  0.1286
  158SAPE  H19S17685   0.926   7.672   8.711  3.6188 -1.3068 -0.8211
  158SAPE  C22017686   0.935   7.692   8.498  0.6660 -0.0940 -0.7610
  158SAPE  H20R17687   1.045   7.677   8.486  0.1442 -3.4233 -1.8015
  158SAPE  H20S17688   0.922   7.803   8.496 -1.7088 -0.3626 -0.9230
  158SAPE  H20T17689   0.896   7.638   8.409 -1.8888 -2.9042  1.9756
  158SAPE   C3317690  -0.133   6.605   9.397 -0.1661 -0.1315  0.6865
  158SAPE   H3X17691  -0.029   6.643   9.408  0.7075 -2.1389 -0.4078
  158SAPE   H3Y17692  -0.192   6.699   9.404  0.9145  0.8104 -2.0974
  158SAPE   C3417693  -0.145   6.539   9.257 -0.5107  0.2970  0.3706
  158SAPE   H4X17694  -0.253   6.520   9.244 -0.8640  1.0881  1.9250
  158SAPE   H4Y17695  -0.090   6.443   9.253 -3.3005 -1.4010  1.3133
  158SAPE   C3517696  -0.073   6.628   9.159 -0.2635 -0.3640  0.4800
  158SAPE   H5X17697   0.032   6.625   9.196 -0.9427 -0.1657  2.4840
  158SAPE   H5Y17698  -0.110   6.731   9.176 -1.0197 -0.5356 -0.0827
  158SAPE   C3617699  -0.093   6.585   9.014  0.0030  0.1429  0.0934
  158SAPE   H6X17700  -0.200   6.562   8.995 -0.1917  0.2456  1.0420
  158SAPE   H6Y17701  -0.022   6.500   9.006 -0.5521 -0.2736 -0.5421
  158SAPE   C3717702  -0.065   6.692   8.908  0.1870  0.7520 -0.6384
  158SAPE   H7X17703  -0.139   6.774   8.926  0.3673  0.9418 -0.7608
  158SAPE   H7Y17704  -0.097   6.646   8.812  0.3850 -0.0759 -0.3094
  158SAPE   C3817705   0.085   6.748   8.895 -0.5108  0.4482  0.2254
  158SAPE   H8X17706   0.168   6.675   8.902 -1.7303 -1.0305 -0.3889
  158SAPE   H8Y17707   0.096   6.817   8.981  1.5915  0.8181 -0.3210
  158SAPE   C3917708   0.105   6.830   8.768  0.2397 -0.2623  0.2560
  158SAPE   H9X17709   0.028   6.907   8.749  0.4203  0.8146  3.6097
  158SAPE   H9Y17710   0.103   6.769   8.674 -1.7265 -1.4937  1.0609
  158SAPE  C31017711   0.243   6.899   8.770 -0.5061  0.1057  0.2982
  158SAPE  H10X17712   0.309   6.820   8.810 -0.1959  0.8982  1.3833
  158SAPE  H10Y17713   0.241   6.975   8.851 -0.8556  0.6586 -0.2196
  158SAPE  C31117714   0.290   6.948   8.632 -0.2231 -0.5285  0.2296
  158SAPE  H11X17715   0.232   7.039   8.605  0.8476  0.1825  0.2988
  158SAPE  H11Y17716   0.262   6.871   8.557 -1.3265 -1.9039  2.0145
  158SAPE  C31217717   0.435   6.979   8.613 -0.3564 -0.7351  0.1742
  158SAPE  H12X17718   0.506   6.897   8.592  0.7789  1.0051 -3.1564
  158SAPE  H12Y17719   0.475   7.025   8.706  0.0727  1.7135 -1.1760
  158SAPE  C31317720   0.463   7.081   8.497  0.6700  0.4362  0.2644
  158SAPE  H13X17721   0.383   7.158   8.494  0.9555  0.6855 -1.1281
  158SAPE  H13Y17722   0.458   7.010   8.412  0.6030 -1.6050  1.9474
  158SAPE  C31417723   0.608   7.141   8.507  0.5193 -0.5289  0.0723
  158SAPE  H14X17724   0.678   7.055   8.512  1.7494  0.4428 -0.2451
  158SAPE  H14Y17725   0.624   7.200   8.599 -1.6379 -0.6336  0.5321
  158SAPE  C31517726   0.635   7.237   8.386  0.2851 -0.1425  0.2179
  158SAPE  H15X17727   0.565   7.323   8.383 -0.8087 -1.0904 -2.3481
  158SAPE  H15Y17728   0.632   7.176   8.293  1.1547 -1.2504  0.9013
  158SAPE  C31617729   0.776   7.293   8.390 -0.0414 -0.1267 -0.2332
  158SAPE  H16X17730   0.845   7.222   8.440 -0.4479 -0.5478 -0.2662
  158SAPE  H16Y17731   0.778   7.387   8.449 -0.6407  1.0339 -2.0024
  158SAPE  C31717732   0.852   7.302   8.258  1.0785  0.2752  0.6202
  158SAPE  H17X17733   0.935   7.373   8.276  0.4573  1.0451  0.4670
  158SAPE  H17Y17734   0.787   7.353   8.184 -0.2284 -1.6899  0.3792
  158SAPE  C31817735   0.907   7.168   8.211  0.1555 -0.0877 -0.5629
  158SAPE  H18X17736   0.948   7.163   8.108 -1.2644 -1.3118 -1.1003
  158SAPE  H18Y17737   0.828   7.091   8.225  1.1336 -0.8981  0.6307
  158SAPE  H18Z17738   0.987   7.133   8.280 -0.3679  0.5443  0.3801
  159SAPE     N17739   3.550   2.670   5.764  0.0261 -0.3559  0.3550
  159SAPE   HN117740   3.448   2.690   5.761  0.0574 -0.4243 -1.7732
  159SAPE   HN217741   3.596   2.699   5.675  0.3985  0.2709  0.7496
  159SAPE   HN317742   3.568   2.568   5.776 -3.0882 -0.8991  0.8941
  159SAPE   C1217743   3.602   2.753   5.872 -0.0197  0.4729 -0.2132
  159SAPE  H12A17744   3.709   2.725   5.888 -0.8632 -1.2972  2.7976
  159SAPE  H12B17745   3.536   2.731   5.958  0.0681 -0.6755 -0.4253
  159SAPE   C1117746   3.591   2.899   5.829  0.6332 -0.6562 -0.0890
  159SAPE  H11A17747   3.671   2.910   5.753  0.2583 -1.0414 -0.5429
  159SAPE  H11B17748   3.622   2.959   5.918 -0.5629 -0.3191  0.1168
  159SAPE     P17749   3.361   3.007   5.853  0.1568  0.2437 -0.2536
  159SAPE   O1317750   3.410   3.131   5.918 -0.0673 -0.4246  0.2837
  159SAPE   O1417751   3.233   3.026   5.781 -0.2276  0.2102 -0.0852
  159SAPE   O1217752   3.474   2.948   5.761 -0.1572  0.4053 -0.3538
  159SAPE   O1117753   3.341   2.894   5.958  0.2004  0.0246  0.0719
  159SAPE    C117754   3.343   2.918   6.097  0.2043  0.7085 -0.9493
  159SAPE    HA17755   3.443   2.900   6.141 -0.5621  0.2959  0.6764
  159SAPE    HB17756   3.309   3.021   6.121 -0.3723  0.0128  1.3870
  159SAPE    C217757   3.255   2.815   6.166  0.2517 -0.6213 -0.9984
  159SAPE    HS17758   3.156   2.840   6.123 -0.6803 -1.5623  0.5534
  159SAPE   O2117759   3.252   2.843   6.303 -0.5624 -0.0529 -0.1898
  159SAPE   C2117760   3.188   2.756   6.383  0.5787  0.5321  0.4325
  159SAPE   O2217761   3.103   2.678   6.348  0.1707  0.1427 -0.5867
  159SAPE   C2217762   3.236   2.770   6.524  0.5827  1.1225 -0.0996
  159SAPE   H2R17763   3.342   2.737   6.532  0.6190  1.1895 -0.3050
  159SAPE   H2S17764   3.227   2.878   6.550  1.1558  0.7102  1.8728
  159SAPE    C317765   3.300   2.673   6.126 -0.4295  0.3184 -0.2025
  159SAPE    HX17766   3.280   2.673   6.016  0.2229 -0.0797 -0.3188
  159SAPE    HY17767   3.234   2.597   6.172  0.1899 -0.8477 -1.1984
  159SAPE   O3117768   3.443   2.641   6.136  0.1193 -0.6530  0.6651
  159SAPE   C3117769   3.485   2.569   6.232 -0.3085 -0.8678 -0.2679
  159SAPE   O3217770   3.422   2.511   6.316  0.4673 -0.4291  0.6753
  159SAPE   C3217771   3.633   2.596   6.244  0.3688 -0.4350 -0.2693
  159SAPE   H2X17772   3.683   2.555   6.154  1.6897  0.5175  0.0209
  159SAPE   H2Y17773   3.674   2.545   6.334 -1.5579  0.1357  0.9531
  159SAPE   C2317774   3.154   2.694   6.635 -1.3849 -0.2953  0.7824
  159SAPE   H3R17775   3.196   2.592   6.633  0.3229  0.4025 -1.4781
  159SAPE   H3S17776   3.049   2.697   6.596 -1.4720 -0.9074  0.9701
  159SAPE   C2417777   3.152   2.770   6.771  0.4674  0.5151  0.0609
  159SAPE   H4R17778   3.070   2.722   6.829 -0.8506  0.7282 -1.5552
  159SAPE   H4S17779   3.105   2.865   6.738  0.5496  0.6465  0.3284
  159SAPE   C2517780   3.286   2.776   6.846 -0.3563  0.3650 -0.0535
  159SAPE   H5R17781   3.335   2.678   6.850  2.9942  1.9803 -0.1850
  159SAPE   C2617782   3.336   2.883   6.905  0.7238 -0.5742  0.1567
  159SAPE   H6R17783   3.430   2.885   6.963  1.0263 -1.3638 -0.3068
  159SAPE   C2717784   3.273   3.021   6.908  0.6223  0.1373 -0.2198
  159SAPE   H7R17785   3.239   3.057   6.808 -1.0519 -0.8568 -0.0261
  159SAPE   H7S17786   3.346   3.099   6.937 -0.3274  0.2705  1.9051
  159SAPE   C2817787   3.145   3.034   6.990  0.3555  0.8763  0.6523
  159SAPE   H8R17788   3.054   3.030   6.929  0.2886  0.3231  0.7813
  159SAPE   C2917789   3.131   3.048   7.125 -0.1231  1.2931 -0.0475
  159SAPE   H9R17790   3.032   3.073   7.164 -0.3321  0.7235 -0.2047
  159SAPE  C21017791   3.244   3.050   7.228 -0.8288 -0.3813 -0.1801
  159SAPE  H10R17792   3.226   3.143   7.286  1.5528 -0.0790  0.1175
  159SAPE  H10S17793   3.342   3.066   7.179  0.0408  1.3539  2.0470
  159SAPE  C21117794   3.236   2.930   7.325 -0.8839  0.0552  0.1095
  159SAPE  H11R17795   3.197   2.837   7.279 -0.3525 -0.4122  0.6060
  159SAPE  C21217796   3.290   2.931   7.452 -0.6265 -0.4238  0.1327
  159SAPE  H12R17797   3.282   2.841   7.515  0.7075  0.7232  2.0205
  159SAPE  C21317798   3.361   3.050   7.515  0.2355  0.1252 -0.4124
  159SAPE  H13R17799   3.333   3.152   7.480  0.0998 -0.2691 -1.4714
  159SAPE  H13S17800   3.471   3.034   7.504  0.1930 -0.8204  0.4941
  159SAPE  C21417801   3.325   3.056   7.660  0.0096 -0.4238 -0.3471
  159SAPE  H14R17802   3.220   3.086   7.677  0.6022  1.8204 -0.5874
  159SAPE  C21517803   3.407   3.035   7.766 -0.7339 -0.9320  0.1451
  159SAPE  H15R17804   3.357   3.029   7.864 -1.9041 -1.6137 -0.4777
  159SAPE  C21617805   3.556   3.008   7.775 -0.0586  1.2734  0.6520
  159SAPE  H16R17806   3.602   3.019   7.674 -0.6161 -0.2523  0.2162
  159SAPE  H16S17807   3.580   2.905   7.807 -1.0904  0.8904  0.2164
  159SAPE  C21717808   3.620   3.100   7.882  0.4253  0.2767  0.6413
  159SAPE  H17R17809   3.553   3.121   7.968 -1.0071 -2.4305  0.2382
  159SAPE  H17S17810   3.634   3.202   7.838 -0.4554 -0.2711 -0.9638
  159SAPE  C21817811   3.756   3.048   7.932  0.0072  0.1150  0.7416
  159SAPE  H18R17812   3.831   3.018   7.856 -1.1497 -1.1328  0.0711
  159SAPE  H18S17813   3.729   2.963   7.998  1.5994 -0.5325  0.5599
  159SAPE  C21917814   3.840   3.139   8.021 -0.5293 -0.4064 -0.2177
  159SAPE  H19R17815   3.776   3.166   8.108 -0.8797  1.0441 -0.9083
  159SAPE  H19S17816   3.853   3.237   7.970 -0.1177 -0.2353  0.2150
  159SAPE  C22017817   3.976   3.075   8.059 -0.0177 -0.1816 -0.0221
  159SAPE  H20R17818   4.015   3.150   8.131 -1.2752 -3.2317  4.0288
  159SAPE  H20S17819   4.040   3.072   7.969  2.1129 -1.5738  1.5090
  159SAPE  H20T17820   3.965   2.974   8.106  2.7434  0.3048  1.7586
  159SAPE   C3317821   3.666   2.744   6.276 -0.0493 -0.3699  0.1986
  159SAPE   H3X17822   3.615   2.813   6.205 -3.2285 -1.4933  1.2911
  159SAPE   H3Y17823   3.776   2.756   6.265  0.2825 -2.6298  0.8711
  159SAPE   C3417824   3.628   2.782   6.420 -0.2138 -0.4087  0.1679
  159SAPE   H4X17825   3.690   2.732   6.497 -0.1391 -0.0407  0.3470
  159SAPE   H4Y17826   3.524   2.755   6.449  0.1526  0.1696  2.1025
  159SAPE   C3517827   3.642   2.935   6.437 -0.6407  0.0658  0.0857
  159SAPE   H5X17828   3.614   2.992   6.345 -0.5786  2.2556  1.3790
  159SAPE   H5Y17829   3.744   2.960   6.472 -0.7686 -0.5204  0.8852
  159SAPE   C3617830   3.547   2.995   6.542  0.2024 -0.3945 -0.4877
  159SAPE   H6X17831   3.548   2.923   6.627  0.2188 -0.7915 -0.8204
  159SAPE   H6Y17832   3.444   2.982   6.501 -0.3627 -0.9122  1.0657
  159SAPE   C3717833   3.596   3.134   6.585 -0.2667  0.2388  0.3266
  159SAPE   H7X17834   3.522   3.184   6.651 -2.0551 -0.0232 -1.4430
  159SAPE   H7Y17835   3.603   3.201   6.497 -0.7540 -0.8845 -0.5904
  159SAPE   C3817836   3.735   3.133   6.651  0.4172  0.4603 -0.0147
  159SAPE   H8X17837   3.812   3.103   6.577 -2.0796 -1.7516 -1.7986
  159SAPE   H8Y17838   3.730   3.064   6.738  0.9225  2.0126  1.2687
  159SAPE   C3917839   3.800   3.265   6.694 -0.1117  0.1283  0.4816
  159SAPE   H9X17840   3.751   3.304   6.785 -1.4740  0.8134 -0.5263
  159SAPE   H9Y17841   3.803   3.353   6.626  0.7699 -0.6009 -0.4473
  159SAPE  C31017842   3.951   3.241   6.730 -0.2367  0.3188  0.2687
  159SAPE  H10X17843   3.996   3.343   6.733 -0.7692  0.5634  0.0104
  159SAPE  H10Y17844   3.998   3.186   6.646 -0.6528 -0.5995  0.6229
  159SAPE  C31117845   3.988   3.175   6.866  0.5587  0.4319 -0.4007
  159SAPE  H11X17846   4.099   3.182   6.865  0.4706  3.3895  1.7824
  159SAPE  H11Y17847   3.961   3.067   6.873 -0.9499  0.7005 -1.7983
  159SAPE  C31217848   3.938   3.264   6.986 -0.1707  0.5024  0.6421
  159SAPE  H12X17849   3.828   3.249   6.997 -0.2741  0.4273 -0.4240
  159SAPE  H12Y17850   3.945   3.368   6.950  0.2929  0.8696  1.7610
  159SAPE  C31317851   4.016   3.249   7.115 -0.8072  0.3819  1.0527
  159SAPE  H13X17852   3.982   3.327   7.186  0.3360  0.3910  1.5918
  159SAPE  H13Y17853   4.123   3.259   7.088 -1.3205 -1.0146 -1.7717
  159SAPE  C31417854   3.991   3.117   7.174 -0.0250 -0.7853  0.4124
  159SAPE  H14X17855   4.052   3.052   7.109  2.5707  1.1729  0.8004
  159SAPE  H14Y17856   3.887   3.081   7.160 -0.3975 -0.4781  2.2391
  159SAPE  C31517857   4.019   3.092   7.323 -0.6083 -0.2618  0.5180
  159SAPE  H15X17858   4.127   3.094   7.348 -0.7587 -1.7506  1.3594
  159SAPE  H15Y17859   3.983   2.990   7.347  0.9572 -0.7986  0.6201
  159SAPE  C31617860   3.940   3.196   7.410 -0.3757  0.4856 -0.2149
  159SAPE  H16X17861   3.840   3.209   7.363 -0.4191 -0.1574 -0.3131
  159SAPE  H16Y17862   4.002   3.287   7.416  1.5876 -0.7277 -1.4398
  159SAPE  C31717863   3.921   3.147   7.557 -0.2497 -0.6667  0.1510
  159SAPE  H17X17864   3.860   3.054   7.563 -1.3289  0.0784  0.8624
  159SAPE  H17Y17865   3.852   3.224   7.597 -1.3092 -1.8206  0.5791
  159SAPE  C31817866   4.050   3.141   7.645 -0.1270 -0.2031  0.3798
  159SAPE  H18X17867   4.099   3.240   7.632 -0.4485 -0.4545 -3.3894
  159SAPE  H18Y17868   4.122   3.071   7.597  0.0603  1.1948 -1.4707
  159SAPE  H18Z17869   4.030   3.114   7.750 -2.8012 -1.1921 -0.3481
  160SAPE     N17870   3.087   4.347   5.939 -0.2635 -0.1099  0.5631
  160SAPE   HN117871   3.045   4.333   6.033  3.1887 -1.4710  1.9525
  160SAPE   HN217872   3.155   4.425   5.943  1.3508 -1.5360  1.8558
  160SAPE   HN317873   3.016   4.373   5.867 -1.2868 -0.4498  1.4282
  160SAPE   C1217874   3.160   4.221   5.902 -0.0764 -0.1358  0.2426
  160SAPE  H12A17875   3.259   4.208   5.951  1.4028  0.6248 -2.4766
  160SAPE  H12B17876   3.187   4.230   5.795  1.4042 -1.5592  0.4821
  160SAPE   C1117877   3.081   4.096   5.946 -0.1127 -0.9610 -0.6552
  160SAPE  H11A17878   3.078   4.101   6.056  2.0474 -0.7699 -0.5755
  160SAPE  H11B17879   3.141   4.012   5.904 -0.0281 -0.7080 -1.0502
  160SAPE     P17880   2.859   3.972   5.859 -0.4263  0.0614 -0.2560
  160SAPE   O1317881   2.726   4.020   5.812 -0.2390 -0.6492  0.2486
  160SAPE   O1417882   2.939   3.891   5.763 -0.5505 -0.5721  0.1598
  160SAPE   O1217883   2.946   4.098   5.900 -0.9609 -0.1568 -0.4929
  160SAPE   O1117884   2.853   3.909   6.004 -0.1514 -0.1032  0.2540
  160SAPE    C117885   2.728   3.873   6.067 -0.0342 -0.3869  0.6141
  160SAPE    HA17886   2.638   3.884   6.002 -0.1326 -1.6151  0.5275
  160SAPE    HB17887   2.729   3.765   6.093  1.9697 -0.5831 -0.2280
  160SAPE    C217888   2.725   3.944   6.203 -0.0892  0.8339 -0.0658
  160SAPE    HS17889   2.626   3.925   6.250 -0.3471 -0.3566 -1.0721
  160SAPE   O2117890   2.746   4.085   6.184  0.1102  0.8721 -0.4998
  160SAPE   C2117891   2.637   4.134   6.129 -0.4340 -0.7967 -0.4571
  160SAPE   O2217892   2.530   4.081   6.106 -0.0606  0.8619 -0.7720
  160SAPE   C2217893   2.641   4.285   6.135 -0.2490  0.8847 -0.0012
  160SAPE   H2R17894   2.737   4.310   6.085  1.0957  0.3389  2.2360
  160SAPE   H2S17895   2.553   4.323   6.079 -1.5214 -0.0758  1.3021
  160SAPE    C317896   2.836   3.908   6.306  0.3606 -0.2210  0.3149
  160SAPE    HX17897   2.836   3.986   6.385  2.7560 -0.3770  0.4856
  160SAPE    HY17898   2.935   3.905   6.256  0.2552  2.4601 -0.0868
  160SAPE   O3117899   2.796   3.781   6.367 -0.4517  0.0443 -0.4338
  160SAPE   C3117900   2.864   3.680   6.328 -0.2510  0.5439 -0.4142
  160SAPE   O3217901   2.931   3.672   6.224  0.1275 -0.0622  0.6632
  160SAPE   C3217902   2.864   3.570   6.427  0.9317 -0.0353  0.1862
  160SAPE   H2X17903   2.856   3.470   6.378 -0.3229  1.4648 -2.7763
  160SAPE   H2Y17904   2.764   3.579   6.473  1.5824  0.3634  1.5383
  160SAPE   C2317905   2.665   4.343   6.277  0.3791  0.3541  0.8413
  160SAPE   H3R17906   2.713   4.442   6.264 -1.4853  0.9657 -1.9251
  160SAPE   H3S17907   2.722   4.271   6.339 -0.5092 -2.0314 -1.0170
  160SAPE   C2417908   2.523   4.379   6.331  0.0750  0.2845 -0.4856
  160SAPE   H4R17909   2.473   4.455   6.267  0.8136  0.3554 -0.9977
  160SAPE   H4S17910   2.544   4.432   6.426  0.8193  0.5087 -0.7670
  160SAPE   C2517911   2.434   4.255   6.351  0.1518 -0.2290  0.0359
  160SAPE   H5R17912   2.351   4.252   6.279 -0.3916  1.2567  0.5751
  160SAPE   C2617913   2.436   4.164   6.447  0.1360  0.7444  0.5328
  160SAPE   H6R17914   2.358   4.089   6.429  0.0570  1.3737 -2.0540
  160SAPE   C2717915   2.518   4.145   6.574 -1.3608  0.4566  0.1570
  160SAPE   H7R17916   2.447   4.160   6.657 -2.4477 -2.3040 -0.2418
  160SAPE   H7S17917   2.597   4.223   6.584 -1.2536  0.3872 -0.1328
  160SAPE   C2817918   2.580   4.012   6.595  0.6088  0.3208  0.3315
  160SAPE   H8R17919   2.587   3.948   6.505  0.2170  1.3962 -0.4679
  160SAPE   C2917920   2.616   3.975   6.723  0.1138 -0.3808  0.1616
  160SAPE   H9R17921   2.627   3.867   6.742  0.5098 -0.1934  0.9999
  160SAPE  C21017922   2.601   4.063   6.847  0.3235 -0.3016  1.0422
  160SAPE  H10R17923   2.506   4.038   6.900 -1.1972  0.0856 -1.4099
  160SAPE  H10S17924   2.587   4.166   6.805 -2.2337 -0.9457  0.2216
  160SAPE  C21117925   2.724   4.062   6.933  0.1181  0.4832 -0.2726
  160SAPE  H11R17926   2.818   4.036   6.882  0.1051  1.7340 -0.9517
  160SAPE  C21217927   2.721   4.084   7.063  0.6937 -0.6650 -0.1304
  160SAPE  H12R17928   2.816   4.091   7.118  0.3078 -0.1845  0.4754
  160SAPE  C21317929   2.605   4.113   7.151  0.1692  0.5229  0.7444
  160SAPE  H13R17930   2.564   4.014   7.181  0.6116 -0.2510 -1.1703
  160SAPE  H13S17931   2.527   4.156   7.085  0.5533  3.3642  2.0606
  160SAPE  C21417932   2.625   4.207   7.268  0.3028  1.4202  0.0734
  160SAPE  H14R17933   2.562   4.297   7.272 -1.5985  0.0479  2.5247
  160SAPE  C21517934   2.704   4.195   7.374  0.2040 -0.5230 -0.8063
  160SAPE  H15R17935   2.714   4.275   7.448  0.7906 -0.6564 -0.7421
  160SAPE  C21617936   2.798   4.080   7.397 -0.4149  0.1458  0.4069
  160SAPE  H16R17937   2.895   4.118   7.356 -0.9052  1.4693  0.4481
  160SAPE  H16S17938   2.772   3.996   7.330  0.0000  2.3677 -2.6737
  160SAPE  C21717939   2.823   4.030   7.539 -0.0346 -0.3196 -0.4975
  160SAPE  H17R17940   2.905   3.958   7.518 -0.6641 -0.8530 -1.1746
  160SAPE  H17S17941   2.734   3.978   7.581  0.7374 -0.9152  0.4073
  160SAPE  C21817942   2.860   4.141   7.637  0.5744  0.7577  0.2584
  160SAPE  H18R17943   2.763   4.188   7.661  0.8038  2.2230 -1.5981
  160SAPE  H18S17944   2.925   4.214   7.584 -0.9917  1.4744 -0.6724
  160SAPE  C21917945   2.928   4.075   7.758  0.1541  1.4856 -0.2123
  160SAPE  H19R17946   3.025   4.026   7.735  0.9282  1.9761  1.8930
  160SAPE  H19S17947   2.859   4.003   7.806  0.3574 -0.1337 -2.2431
  160SAPE  C22017948   2.954   4.169   7.875 -0.4084 -0.1703 -0.2862
  160SAPE  H20R17949   2.867   4.236   7.894 -0.8396  0.1891 -3.3576
  160SAPE  H20S17950   3.046   4.230   7.859 -0.5749 -0.3266 -1.8997
  160SAPE  H20T17951   2.973   4.109   7.966 -2.5665  0.9630  0.9585
  160SAPE   C3317952   2.977   3.572   6.524  0.6738 -0.0816 -0.0247
  160SAPE   H3X17953   3.068   3.582   6.461 -1.3866  1.5697 -2.8346
  160SAPE   H3Y17954   2.993   3.474   6.574  0.4371 -0.1846 -0.1515
  160SAPE   C3417955   2.953   3.680   6.633 -0.2100  0.8539  0.2051
  160SAPE   H4X17956   2.873   3.642   6.700 -1.3280  1.1462 -0.9563
  160SAPE   H4Y17957   2.915   3.774   6.588  2.7446  0.9955 -2.0986
  160SAPE   C3517958   3.078   3.706   6.720  0.2702  0.5631 -0.2623
  160SAPE   H5X17959   3.167   3.736   6.660 -0.1070  0.4401 -0.8850
  160SAPE   H5Y17960   3.110   3.617   6.779  0.4079  0.9028  0.1815
  160SAPE   C3617961   3.059   3.814   6.839  0.4426  0.1124 -0.9315
  160SAPE   H6X17962   2.960   3.797   6.887  0.9499 -0.8832 -0.2086
  160SAPE   H6Y17963   3.059   3.912   6.788  0.2155  0.3038 -0.5666
  160SAPE   C3717964   3.171   3.820   6.945 -0.1071  0.6845  1.0797
  160SAPE   H7X17965   3.264   3.857   6.897  0.1878  1.0705  1.9358
  160SAPE   H7Y17966   3.193   3.715   6.973 -0.9493 -0.4702 -2.3184
  160SAPE   C3817967   3.128   3.894   7.071  0.0996 -0.3792  0.1596
  160SAPE   H8X17968   3.105   3.815   7.145  2.5065  0.7599  2.1855
  160SAPE   H8Y17969   3.038   3.960   7.063  0.0638  0.1316  3.9809
  160SAPE   C3917970   3.243   3.979   7.129  0.6256 -0.7172 -0.0820
  160SAPE   H9X17971   3.276   4.060   7.061 -2.2581 -0.3598 -1.1171
  160SAPE   H9Y17972   3.327   3.907   7.123  1.9033  0.7638 -0.2278
  160SAPE  C31017973   3.218   4.029   7.267 -0.6672 -0.0699 -0.4549
  160SAPE  H10X17974   3.196   3.938   7.327  2.8213 -0.5115  0.2586
  160SAPE  H10Y17975   3.130   4.097   7.270  0.3783  1.2613  2.2150
  160SAPE  C31117976   3.331   4.111   7.324 -0.0591 -0.2372  0.4810
  160SAPE  H11X17977   3.340   4.202   7.260 -0.5096 -0.8148 -0.4130
  160SAPE  H11Y17978   3.422   4.048   7.313  0.7525  1.0893 -0.5475
  160SAPE  C31217979   3.314   4.149   7.470  0.0995 -0.0675 -0.0456
  160SAPE  H12X17980   3.294   4.061   7.535  0.2023  0.8447  1.2631
  160SAPE  H12Y17981   3.218   4.204   7.481  0.4436  0.0325  2.9222
  160SAPE  C31317982   3.423   4.222   7.536 -0.6623  1.1800  0.6004
  160SAPE  H13X17983   3.448   4.296   7.457  0.8919  0.8529  0.7747
  160SAPE  H13Y17984   3.508   4.151   7.549 -0.5969  1.2101  0.3517
  160SAPE  C31417985   3.391   4.276   7.676 -0.3066  0.3560  0.2549
  160SAPE  H14X17986   3.368   4.197   7.750  1.6927 -1.1895 -0.7096
  160SAPE  H14Y17987   3.300   4.339   7.666 -0.1444  0.4901 -0.4163
  160SAPE  C31517988   3.509   4.364   7.736 -0.0279 -0.3788 -0.6025
  160SAPE  H15X17989   3.520   4.458   7.678 -1.2314 -0.9924 -1.8691
  160SAPE  H15Y17990   3.606   4.315   7.714  0.4107  0.7257 -1.1449
  160SAPE  C31617991   3.488   4.387   7.891  0.2810  0.0100  0.8528
  160SAPE  H16X17992   3.578   4.444   7.921 -0.6152  1.6795  0.4491
  160SAPE  H16Y17993   3.490   4.294   7.951  0.7994 -0.4799  0.0911
  160SAPE  C31717994   3.361   4.464   7.929 -0.4904  0.2217 -0.5403
  160SAPE  H17X17995   3.273   4.407   7.891 -1.6218  0.2364  1.9857
  160SAPE  H17Y17996   3.375   4.556   7.868 -2.9869  0.5128 -0.7106
  160SAPE  C31817997   3.344   4.498   8.077 -0.5258  0.5488  0.9948
  160SAPE  H18X17998   3.437   4.535   8.125 -0.0939  1.0615 -0.2166
  160SAPE  H18Y17999   3.306   4.408   8.130 -1.2377  0.4706  0.3534
  160SAPE  H18Z18000   3.271   4.581   8.080 -1.2688 -0.1177  1.6262
  161SAPE     N18001   3.442   1.688   5.909  0.5815  0.1862 -0.2707
  161SAPE   HN118002   3.471   1.589   5.896 -1.2685 -0.2304 -1.3733
  161SAPE   HN218003   3.397   1.723   5.822 -1.4460  1.7525  1.3997
  161SAPE   HN318004   3.532   1.740   5.919  1.4621 -0.7783 -2.7269
  161SAPE   C1218005   3.371   1.702   6.034  0.0141  0.0201 -0.5201
  161SAPE  H12A18006   3.413   1.635   6.112 -2.5013 -0.2310  0.6724
  161SAPE  H12B18007   3.267   1.666   6.016  1.0157 -3.3499 -0.0652
  161SAPE   C1118008   3.385   1.844   6.086  0.1614  0.2998  0.9255
  161SAPE  H11A18009   3.298   1.871   6.150  0.6979  1.1403  1.3159
  161SAPE  H11B18010   3.368   1.915   6.003  0.1348  0.9524  1.4889
  161SAPE     P18011   3.625   1.948   6.069  0.2253  0.0238  0.1333
  161SAPE   O1318012   3.624   1.896   5.929  0.7483 -0.1393  0.0708
  161SAPE   O1418013   3.610   2.088   6.097  0.5215  0.3515 -0.2232
  161SAPE   O1218014   3.507   1.873   6.146  0.2942  0.6204 -0.5620
  161SAPE   O1118015   3.750   1.895   6.149 -0.1919 -0.4459 -0.0784
  161SAPE    C118016   3.744   1.862   6.290  0.3749 -0.5432  0.1001
  161SAPE    HA18017   3.642   1.824   6.307 -1.7172  4.3062 -0.7971
  161SAPE    HB18018   3.823   1.786   6.309  1.2758  0.8719  2.2520
  161SAPE    C218019   3.770   1.984   6.384 -0.9121  0.0972 -0.0302
  161SAPE    HS18020   3.791   1.941   6.484 -0.3630 -1.3041 -0.7280
  161SAPE   O2118021   3.656   2.075   6.386 -0.1268 -0.1894  0.2017
  161SAPE   C2118022   3.538   2.032   6.422  1.1459 -0.3105  0.1670
  161SAPE   O2218023   3.508   1.932   6.484 -0.3882  0.0827 -0.2140
  161SAPE   C2218024   3.428   2.138   6.375 -0.1197 -0.1360  0.0027
  161SAPE   H2R18025   3.481   2.233   6.399  0.0542  0.2441 -1.8190
  161SAPE   H2S18026   3.412   2.132   6.265 -1.8944  1.8615  0.1235
  161SAPE    C318027   3.887   2.070   6.342  0.0482  0.5559 -0.1430
  161SAPE    HX18028   3.888   2.066   6.231  3.1544  0.6018 -0.1614
  161SAPE    HY18029   3.990   2.032   6.359 -0.7426 -0.8321  1.6910
  161SAPE   O3118030   3.887   2.208   6.387 -0.6908  0.3365 -0.1885
  161SAPE   C3118031   3.921   2.227   6.520  0.0480 -0.2217 -0.8724
  161SAPE   O3218032   3.996   2.154   6.581  0.5324 -0.0926  0.0181
  161SAPE   C3218033   3.854   2.360   6.564 -0.6013  0.4827  0.5390
  161SAPE   H2X18034   3.752   2.359   6.520 -1.2040  1.7309  1.8772
  161SAPE   H2Y18035   3.926   2.438   6.533  0.2484 -0.2500  0.6528
  161SAPE   C2318036   3.298   2.132   6.455 -0.3887  0.1998 -0.3965
  161SAPE   H3R18037   3.254   2.030   6.455 -0.3355  0.1724 -1.1465
  161SAPE   H3S18038   3.225   2.188   6.393 -1.1652 -1.4940 -1.0328
  161SAPE   C2418039   3.316   2.190   6.597 -0.3507 -0.0512  0.5332
  161SAPE   H4R18040   3.356   2.293   6.590  2.4742 -1.2251 -1.6706
  161SAPE   H4S18041   3.394   2.133   6.652 -1.2034 -2.0918 -0.2905
  161SAPE   C2518042   3.180   2.186   6.668 -0.1461 -0.1030 -0.2986
  161SAPE   H5R18043   3.098   2.143   6.608 -0.9504 -0.6571  1.1739
  161SAPE   C2618044   3.143   2.248   6.782 -0.0888 -0.1825 -0.2980
  161SAPE   H6R18045   3.042   2.239   6.824  0.2472  2.1393  1.1438
  161SAPE   C2718046   3.246   2.325   6.861  0.4983 -0.0282  0.0163
  161SAPE   H7R18047   3.215   2.431   6.858 -1.6426 -0.6735 -4.1403
  161SAPE   H7S18048   3.340   2.330   6.802  1.0288 -0.0829  0.8502
  161SAPE   C2818049   3.299   2.267   6.991  0.1485  0.4343  0.2037
  161SAPE   H8R18050   3.301   2.158   6.999 -1.0094  0.4686  1.0438
  161SAPE   C2918051   3.334   2.334   7.100  0.1495  0.0202  0.1792
  161SAPE   H9R18052   3.337   2.279   7.195  0.7029 -1.5498 -0.7461
  161SAPE  C21018053   3.330   2.486   7.118 -0.1864 -0.6417 -0.0285
  161SAPE  H10R18054   3.395   2.531   7.040 -0.6331 -0.9477 -0.5829
  161SAPE  H10S18055   3.376   2.504   7.218 -0.7261 -2.0277  0.4904
  161SAPE  C21118056   3.190   2.549   7.117 -0.5200 -0.1801  0.3059
  161SAPE  H11R18057   3.148   2.541   7.016  1.3831 -1.5999 -0.4154
  161SAPE  C21218058   3.119   2.592   7.228 -0.2649  0.6106  0.0262
  161SAPE  H12R18059   3.025   2.648   7.226  0.4112  1.7230 -1.7963
  161SAPE  C21318060   3.164   2.572   7.373 -0.6767  0.5083  0.5450
  161SAPE  H13R18061   3.113   2.651   7.431 -3.5651  1.1562 -2.7210
  161SAPE  H13S18062   3.272   2.596   7.378 -0.8429  1.0987  1.3252
  161SAPE  C21418063   3.149   2.431   7.420  0.8202  0.4900 -0.3861
  161SAPE  H14R18064   3.174   2.346   7.354  0.8704 -0.5363  0.9274
  161SAPE  C21518065   3.112   2.391   7.544 -0.1701  0.5145  0.1417
  161SAPE  H15R18066   3.094   2.285   7.566  0.6624  0.4147  0.3680
  161SAPE  C21618067   3.085   2.486   7.656  0.1615  0.2120  0.3908
  161SAPE  H16R18068   3.018   2.443   7.734  0.1532  1.3113  0.9862
  161SAPE  H16S18069   3.039   2.583   7.627 -1.1198 -0.4554  0.1479
  161SAPE  C21718070   3.207   2.519   7.735 -0.2984 -0.7989  0.4780
  161SAPE  H17R18071   3.209   2.630   7.749 -1.8713 -0.8650  1.3678
  161SAPE  H17S18072   3.297   2.481   7.682  1.2724  1.0537  1.7271
  161SAPE  C21818073   3.214   2.445   7.869  0.4047  0.5020 -0.4226
  161SAPE  H18R18074   3.139   2.466   7.948 -0.9288 -2.5292 -0.8216
  161SAPE  H18S18075   3.312   2.479   7.910  0.7787 -0.0243 -0.8587
  161SAPE  C21918076   3.241   2.295   7.854 -0.3036 -0.3831  0.6078
  161SAPE  H19R18077   3.286   2.270   7.755  2.0578 -1.2301  1.8473
  161SAPE  H19S18078   3.154   2.226   7.855 -0.1248 -0.6793 -1.5663
  161SAPE  C22018079   3.344   2.240   7.956  0.0109  0.4013  0.6500
  161SAPE  H20R18080   3.369   2.136   7.927  2.7752  1.1024  0.3748
  161SAPE  H20S18081   3.287   2.235   8.052 -0.0287 -0.7667  0.5655
  161SAPE  H20T18082   3.436   2.300   7.974  1.2437 -1.5514  1.0307
  161SAPE   C3318083   3.839   2.372   6.720 -0.0932 -0.1129  0.0186
  161SAPE   H3X18084   3.931   2.340   6.773 -1.5096 -1.8305  1.5304
  161SAPE   H3Y18085   3.755   2.306   6.752 -0.9425  0.8855 -0.1273
  161SAPE   C3418086   3.804   2.519   6.745  0.3740 -0.6265 -0.0587
  161SAPE   H4X18087   3.712   2.549   6.691  1.9397  3.7098 -0.5258
  161SAPE   H4Y18088   3.890   2.583   6.717  0.0234  0.0824  0.4700
  161SAPE   C3518089   3.789   2.540   6.900  0.0071 -1.0387  0.6028
  161SAPE   H5X18090   3.886   2.523   6.953  0.8857 -2.8997 -1.5386
  161SAPE   H5Y18091   3.714   2.466   6.933 -0.8489  0.0379  1.1118
  161SAPE   C3618092   3.738   2.681   6.933 -0.6125  0.6048  0.7491
  161SAPE   H6X18093   3.633   2.684   6.898 -0.4369  0.5333  0.2184
  161SAPE   H6Y18094   3.793   2.761   6.877  0.7478 -0.4356  0.5677
  161SAPE   C3718095   3.742   2.722   7.081  0.2359 -0.2334  0.3874
  161SAPE   H7X18096   3.690   2.639   7.134 -0.0619 -0.9090 -0.9267
  161SAPE   H7Y18097   3.686   2.815   7.106 -0.1022 -0.7418  1.5545
  161SAPE   C3818098   3.876   2.736   7.147 -0.8055  0.5831  0.0632
  161SAPE   H8X18099   3.924   2.836   7.138  1.9276 -0.6994 -0.1156
  161SAPE   H8Y18100   3.949   2.659   7.113  2.9593  3.1942  1.9121
  161SAPE   C3918101   3.875   2.729   7.303  0.2594  0.0212 -0.3871
  161SAPE   H9X18102   3.974   2.770   7.330  1.2977 -1.8155 -1.3374
  161SAPE   H9Y18103   3.855   2.621   7.322 -0.4501 -0.1048 -1.7737
  161SAPE  C31018104   3.755   2.804   7.371  0.0373  0.5592 -0.4107
  161SAPE  H10X18105   3.653   2.793   7.330  0.7260  0.6402 -2.2011
  161SAPE  H10Y18106   3.770   2.914   7.385 -1.9712  0.5152  2.3833
  161SAPE  C31118107   3.739   2.765   7.520 -0.1270 -1.1946  0.5489
  161SAPE  H11X18108   3.653   2.823   7.560  0.5126  0.8443 -0.9486
  161SAPE  H11Y18109   3.830   2.800   7.572 -2.4486  1.7952  2.7744
  161SAPE  C31218110   3.729   2.616   7.556 -0.4157 -0.0071  0.2143
  161SAPE  H12X18111   3.706   2.595   7.662  0.8001 -0.4720  0.3906
  161SAPE  H12Y18112   3.817   2.560   7.518  0.3208  0.1857  1.6337
  161SAPE  C31318113   3.597   2.558   7.483 -0.5229 -0.0413 -0.0035
  161SAPE  H13X18114   3.589   2.587   7.376 -0.0083  0.2993  0.0450
  161SAPE  H13Y18115   3.505   2.597   7.531  0.1283 -1.9405  2.8863
  161SAPE  C31418116   3.616   2.401   7.474 -0.4184  0.3967 -0.3501
  161SAPE  H14X18117   3.707   2.381   7.413 -0.0246  0.0759  0.3455
  161SAPE  H14Y18118   3.519   2.367   7.431 -0.7770  0.3142  0.5095
  161SAPE  C31518119   3.646   2.324   7.606  0.4555  0.7340 -0.4042
  161SAPE  H15X18120   3.561   2.336   7.676 -0.1267 -0.2022 -0.9439
  161SAPE  H15Y18121   3.722   2.386   7.658  1.8876  1.4939 -3.2915
  161SAPE  C31618122   3.693   2.176   7.592  0.9347  0.9993 -0.1510
  161SAPE  H16X18123   3.785   2.167   7.532  1.1792  0.9971  0.2243
  161SAPE  H16Y18124   3.627   2.105   7.537  0.6618  2.1879 -1.3587
  161SAPE  C31718125   3.726   2.106   7.728 -0.5415  0.4623  0.3212
  161SAPE  H17X18126   3.765   2.004   7.707  1.0810  0.9475  0.8806
  161SAPE  H17Y18127   3.631   2.089   7.783  0.5640  0.9326  2.4124
  161SAPE  C31818128   3.814   2.197   7.824 -0.0895  0.0016 -0.0708
  161SAPE  H18X18129   3.743   2.256   7.885 -1.1857 -0.9129 -0.4503
  161SAPE  H18Y18130   3.878   2.276   7.778  0.2551  0.6261  1.4641
  161SAPE  H18Z18131   3.871   2.133   7.894 -1.7354 -1.2523  0.1494
  162SAPE     N18132   3.103   5.775   5.945  0.3261 -0.3679 -0.6519
  162SAPE   HN118133   3.126   5.835   6.026  1.7973 -2.5182  0.5865
  162SAPE   HN218134   3.163   5.690   5.939 -1.4286 -1.5020 -3.0149
  162SAPE   HN318135   3.136   5.829   5.863  1.0546  0.7994  0.3980
  162SAPE   C1218136   2.958   5.744   5.938  0.7460  0.3744  0.4654
  162SAPE  H12A18137   2.915   5.781   5.843 -0.1945 -0.3380  0.6089
  162SAPE  H12B18138   2.913   5.802   6.021 -0.4468 -0.8942  0.7321
  162SAPE   C1118139   2.930   5.590   5.950 -0.3855 -0.0192  0.3558
  162SAPE  H11A18140   2.822   5.572   5.967 -0.9349  1.3961 -1.4189
  162SAPE  H11B18141   2.979   5.555   6.043 -0.0723  0.5800  0.4231
  162SAPE     P18142   3.093   5.427   5.830  0.0831 -0.0574  0.1363
  162SAPE   O1318143   3.095   5.301   5.905 -0.1305  0.2632 -0.1017
  162SAPE   O1418144   3.116   5.407   5.685 -0.2115  0.1135  0.3035
  162SAPE   O1218145   2.965   5.514   5.836  0.4546  0.1059  0.0609
  162SAPE   O1118146   3.207   5.521   5.888  0.3872 -0.1353 -0.2767
  162SAPE    C118147   3.350   5.506   5.860  0.3860 -0.3072  0.2606
  162SAPE    HA18148   3.381   5.526   5.755 -2.1344  0.3240 -0.4025
  162SAPE    HB18149   3.405   5.579   5.923  0.0146  0.4593 -0.2925
  162SAPE    C218150   3.401   5.365   5.904  0.2767 -0.3169 -0.0290
  162SAPE    HS18151   3.342   5.285   5.854 -0.8980  0.0926  0.6684
  162SAPE   O2118152   3.356   5.349   6.041 -0.6936  0.5522  0.3221
  162SAPE   C2118153   3.360   5.224   6.084  0.2431  0.7001 -0.5948
  162SAPE   O2218154   3.386   5.126   6.016 -0.3941  0.0167  0.0369
  162SAPE   C2218155   3.375   5.231   6.235 -0.3903  0.2795 -0.2943
  162SAPE   H2R18156   3.484   5.240   6.252 -0.4907  0.1618  0.4737
  162SAPE   H2S18157   3.315   5.317   6.272 -0.3010 -0.5134  1.7823
  162SAPE    C318158   3.554   5.343   5.877  0.1020 -0.4543  0.2420
  162SAPE    HX18159   3.556   5.349   5.766  0.1314 -1.1311  0.2075
  162SAPE    HY18160   3.598   5.242   5.889 -0.6811 -0.7385  0.7393
  162SAPE   O3118161   3.642   5.447   5.930 -0.1758  0.8007 -0.1280
  162SAPE   C3118162   3.695   5.407   6.052 -1.1495 -0.4247  0.3199
  162SAPE   O3218163   3.674   5.302   6.105  0.2092 -0.5622  0.8341
  162SAPE   C3218164   3.777   5.522   6.100 -0.0824  0.2938 -0.2909
  162SAPE   H2X18165   3.707   5.603   6.129  0.7894  0.5029  1.2929
  162SAPE   H2Y18166   3.848   5.548   6.020  0.3794 -0.5045 -0.1464
  162SAPE   C2318167   3.325   5.105   6.302 -0.7950 -0.2572  0.1868
  162SAPE   H3R18168   3.404   5.028   6.287  1.2799  2.0343 -0.8747
  162SAPE   H3S18169   3.229   5.072   6.258  0.2269 -0.8212 -1.6472
  162SAPE   C2418170   3.313   5.129   6.456  0.2559  0.1119 -0.2943
  162SAPE   H4R18171   3.403   5.177   6.499 -0.9210  1.9743  0.1437
  162SAPE   H4S18172   3.299   5.025   6.494  1.1049  0.0948 -0.0277
  162SAPE   C2518173   3.197   5.218   6.496 -0.3128 -0.1782 -0.4894
  162SAPE   H5R18174   3.098   5.179   6.467 -0.6424  1.9039 -2.2531
  162SAPE   C2618175   3.198   5.338   6.559 -0.1893  0.1855  0.1148
  162SAPE   H6R18176   3.100   5.381   6.587  0.4467  1.4969  0.3691
  162SAPE   C2718177   3.320   5.411   6.605  0.4427 -0.2527 -0.3494
  162SAPE   H7R18178   3.408   5.388   6.541 -0.1205 -0.7520 -0.9438
  162SAPE   H7S18179   3.343   5.385   6.710  1.2446  1.5443 -0.0562
  162SAPE   C2818180   3.280   5.558   6.597 -0.7662 -0.7048  0.5106
  162SAPE   H8R18181   3.229   5.594   6.507  0.0728  0.1168  0.3574
  162SAPE   C2918182   3.315   5.664   6.681  0.1871  0.3084  0.2131
  162SAPE   H9R18183   3.288   5.770   6.675 -0.6243  0.1884  1.6083
  162SAPE  C21018184   3.410   5.656   6.798 -0.9146  0.2931 -0.1997
  162SAPE  H10R18185   3.484   5.740   6.796 -2.0119  1.2571 -0.7360
  162SAPE  H10S18186   3.468   5.562   6.789 -1.2149  0.0694  0.1797
  162SAPE  C21118187   3.324   5.676   6.928  0.2151  0.0359  0.3993
  162SAPE  H11R18188   3.231   5.733   6.916  0.1991  0.2226  1.3203
  162SAPE  C21218189   3.368   5.633   7.047  0.4262 -0.4799  0.5685
  162SAPE  H12R18190   3.309   5.642   7.139 -2.1996 -0.3346 -1.0816
  162SAPE  C21318191   3.493   5.554   7.073  0.0575  0.8820  0.3854
  162SAPE  H13R18192   3.492   5.479   6.990  4.5802  1.8492 -0.6426
  162SAPE  H13S18193   3.489   5.503   7.171  0.7521  1.8108  0.8987
  162SAPE  C21418194   3.627   5.621   7.071  0.3733  0.0403 -0.1349
  162SAPE  H14R18195   3.630   5.727   7.040  0.1168  0.2188  0.4474
  162SAPE  C21518196   3.738   5.554   7.104 -0.0728  0.1667 -0.1722
  162SAPE  H15R18197   3.835   5.606   7.110  0.2810 -0.4732 -0.2356
  162SAPE  C21618198   3.733   5.408   7.146 -0.2698 -0.9209 -0.0670
  162SAPE  H16R18199   3.821   5.349   7.112 -0.1096 -0.1757 -0.9787
  162SAPE  H16S18200   3.642   5.359   7.106 -1.5500  0.7764  0.7203
  162SAPE  C21718201   3.727   5.384   7.295  0.6689  0.2756 -0.5855
  162SAPE  H17R18202   3.625   5.401   7.335  0.1523 -1.4822 -1.0748
  162SAPE  H17S18203   3.790   5.453   7.354 -0.0604  0.6604 -0.2514
  162SAPE  C21818204   3.778   5.243   7.345 -0.8465  0.1867  0.0602
  162SAPE  H18R18205   3.883   5.234   7.309 -0.8287 -1.7692  0.5302
  162SAPE  H18S18206   3.707   5.171   7.300 -3.6404  1.8435  1.6540
  162SAPE  C21918207   3.776   5.237   7.496 -1.1749  0.2152 -0.8658
  162SAPE  H19R18208   3.829   5.328   7.534 -0.6498  1.1176 -3.6838
  162SAPE  H19S18209   3.836   5.153   7.538 -0.6613  0.6821 -0.6526
  162SAPE  C22018210   3.637   5.238   7.559 -0.7005  0.5426  0.0059
  162SAPE  H20R18211   3.578   5.156   7.512  0.2531 -0.6506  0.8496
  162SAPE  H20S18212   3.588   5.336   7.541 -0.3596  0.3013 -2.4328
  162SAPE  H20T18213   3.636   5.239   7.670 -0.2903 -3.1607  0.1191
  162SAPE   C3318214   3.848   5.488   6.235 -0.1660 -0.1104  0.2153
  162SAPE   H3X18215   3.925   5.568   6.246  0.3840 -0.2567 -2.4268
  162SAPE   H3Y18216   3.902   5.392   6.227 -1.0967 -0.4346 -2.8656
  162SAPE   C3418217   3.748   5.482   6.346  0.6629 -0.8656  0.3247
  162SAPE   H4X18218   3.668   5.410   6.318  0.4672 -0.7249  0.5191
  162SAPE   H4Y18219   3.711   5.586   6.359  0.7289 -0.7658 -0.2910
  162SAPE   C3518220   3.815   5.423   6.467 -0.0802  0.2123 -0.0176
  162SAPE   H5X18221   3.887   5.497   6.507  0.9300  0.1272 -1.6344
  162SAPE   H5Y18222   3.867   5.327   6.447 -0.1621  0.0335  0.6164
  162SAPE   C3618223   3.707   5.406   6.574 -0.7652  0.1317  0.1863
  162SAPE   H6X18224   3.634   5.330   6.538  2.0972 -2.5287 -0.2047
  162SAPE   H6Y18225   3.658   5.504   6.594  3.9729  2.9235 -1.2491
  162SAPE   C3718226   3.769   5.358   6.709 -0.4775 -0.5932 -0.4898
  162SAPE   H7X18227   3.802   5.449   6.763  0.3233  0.3465 -2.5337
  162SAPE   H7Y18228   3.848   5.288   6.676  0.8639  1.4831 -1.7730
  162SAPE   C3818229   3.681   5.291   6.813 -0.3009 -0.4414 -0.0698
  162SAPE   H8X18230   3.583   5.341   6.832 -0.1550  0.4832 -1.6684
  162SAPE   H8Y18231   3.739   5.290   6.908  0.6586  0.9602 -0.6202
  162SAPE   C3918232   3.657   5.142   6.782  0.2010 -0.3978  0.7228
  162SAPE   H9X18233   3.747   5.103   6.730  0.7420  2.4675 -0.6402
  162SAPE   H9Y18234   3.566   5.129   6.719  1.4564 -1.2766 -0.9470
  162SAPE  C31018235   3.629   5.057   6.903  0.2824 -0.3206 -0.0491
  162SAPE  H10X18236   3.723   5.051   6.961  0.2667  0.8255  0.0926
  162SAPE  H10Y18237   3.605   4.952   6.875  2.6046 -1.2784  1.3819
  162SAPE  C31118238   3.502   5.100   6.989 -0.1899  0.1948  0.3007
  162SAPE  H11X18239   3.413   5.084   6.924 -0.4147  2.1748  0.0899
  162SAPE  H11Y18240   3.515   5.207   7.017 -2.2728  0.6224 -0.3168
  162SAPE  C31218241   3.485   5.009   7.114 -0.2872  0.6974  0.2487
  162SAPE  H12X18242   3.550   5.040   7.199 -0.3394  0.6584  0.3021
  162SAPE  H12Y18243   3.513   4.906   7.084 -1.1683  0.9583 -1.4870
  162SAPE  C31318244   3.342   5.004   7.174 -0.6817 -0.0063  0.1252
  162SAPE  H13X18245   3.337   4.943   7.267  2.4954 -0.5897 -0.0305
  162SAPE  H13Y18246   3.271   4.953   7.105 -4.5285  2.9657  1.6383
  162SAPE  C31418247   3.266   5.136   7.194 -0.1416  0.6223 -0.2155
  162SAPE  H14X18248   3.162   5.113   7.228 -0.7779 -0.5715 -2.7941
  162SAPE  H14Y18249   3.250   5.178   7.092 -1.6907 -1.1757 -0.7599
  162SAPE  C31518250   3.334   5.241   7.278  0.3078 -0.8179 -0.5035
  162SAPE  H15X18251   3.421   5.280   7.223 -0.9614 -0.0524 -2.0120
  162SAPE  H15Y18252   3.376   5.191   7.368 -3.8423 -0.8491  1.5779
  162SAPE  C31618253   3.240   5.352   7.323  0.7330  0.4194  0.0063
  162SAPE  H16X18254   3.149   5.300   7.359  1.8801 -0.5978  1.5161
  162SAPE  H16Y18255   3.212   5.421   7.241  1.3907 -0.6642 -1.1588
  162SAPE  C31718256   3.287   5.434   7.444 -0.3239  0.2725  0.9802
  162SAPE  H17X18257   3.384   5.477   7.410 -0.0611 -0.4710  0.7872
  162SAPE  H17Y18258   3.319   5.381   7.536  2.2510  1.4359  0.8118
  162SAPE  C31818259   3.196   5.554   7.479  0.5067 -0.2049  0.0534
  162SAPE  H18X18260   3.168   5.603   7.383  0.0190  0.1000  0.3485
  162SAPE  H18Y18261   3.250   5.624   7.546  0.0964  2.6354 -2.4509
  162SAPE  H18Z18262   3.108   5.520   7.537  0.6955 -1.2400 -0.2617
  163SAPE     N18263   1.233   4.509   6.087  0.3289 -0.4705 -0.1189
  163SAPE   HN118264   1.325   4.482   6.047  0.4950  0.8850 -0.6853
  163SAPE   HN218265   1.245   4.606   6.121 -1.0624 -0.6854  1.0016
  163SAPE   HN318266   1.219   4.459   6.177  1.6498 -1.6764 -0.5632
  163SAPE   C1218267   1.134   4.498   5.971  0.2581 -0.0934  0.0754
  163SAPE  H12A18268   1.174   4.561   5.889 -0.6974 -1.3114 -1.3392
  163SAPE  H12B18269   1.036   4.544   5.996 -1.2878 -0.7393 -4.3464
  163SAPE   C1118270   1.134   4.357   5.917 -0.8450 -0.0190 -0.1195
  163SAPE  H11A18271   1.239   4.326   5.903  0.0580  1.3895  3.0013
  163SAPE  H11B18272   1.088   4.367   5.816  0.6016 -0.0879 -0.7939
  163SAPE     P18273   1.125   4.125   6.037 -0.1118  0.0839  0.2514
  163SAPE   O1318274   1.046   4.050   6.136  0.0261  0.1216 -0.2946
  163SAPE   O1418275   1.154   4.061   5.904 -0.1003  0.5097 -0.1649
  163SAPE   O1218276   1.058   4.270   5.999 -0.1797  0.0825 -0.2978
  163SAPE   O1118277   1.263   4.170   6.096  0.2733  0.1524 -0.0929
  163SAPE    C118278   1.368   4.076   6.138  0.7884 -0.8622  0.2150
  163SAPE    HA18279   1.337   4.016   6.226  1.9640 -1.0625  0.5043
  163SAPE    HB18280   1.389   3.999   6.061  1.0454  0.1623 -0.7480
  163SAPE    C218281   1.510   4.143   6.166  0.5062  0.2503  0.3625
  163SAPE    HS18282   1.550   4.184   6.070  0.0544 -2.4258 -1.0269
  163SAPE   O2118283   1.603   4.048   6.221  0.2685 -0.1814 -0.0597
  163SAPE   C2118284   1.736   4.085   6.216 -0.0365 -0.2397 -0.9056
  163SAPE   O2218285   1.782   4.187   6.170 -0.0501  0.2278 -0.1291
  163SAPE   C2218286   1.813   3.977   6.294 -0.2474 -0.1272 -0.0569
  163SAPE   H2R18287   1.859   3.907   6.222 -1.8129  1.5527 -2.7532
  163SAPE   H2S18288   1.892   4.036   6.347  1.8893 -1.4896 -1.6602
  163SAPE    C318289   1.489   4.270   6.249 -0.3066 -0.1546 -0.5712
  163SAPE    HX18290   1.433   4.348   6.193  2.5145  1.3730 -1.3851
  163SAPE    HY18291   1.591   4.309   6.270  1.7217 -4.0410 -2.7484
  163SAPE   O3118292   1.421   4.242   6.373  0.4520  0.0878 -0.0928
  163SAPE   C3118293   1.305   4.297   6.399 -0.5569  0.4097 -0.3932
  163SAPE   O3218294   1.254   4.382   6.320 -0.8765  0.2394 -0.0574
  163SAPE   C3218295   1.251   4.257   6.535 -0.5059 -0.2458 -0.4620
  163SAPE   H2X18296   1.189   4.165   6.527  0.0554 -0.5591 -1.2480
  163SAPE   H2Y18297   1.189   4.342   6.570  3.7209  2.0970  1.7659
  163SAPE   C2318298   1.738   3.896   6.410  0.3745 -0.1623  0.7056
  163SAPE   H3R18299   1.793   3.800   6.421 -0.5067 -1.0770 -2.3336
  163SAPE   H3S18300   1.638   3.873   6.369  1.3085 -1.8150 -0.7077
  163SAPE   C2418301   1.716   3.967   6.535 -0.6471  0.4165 -0.2808
  163SAPE   H4R18302   1.647   4.052   6.520 -1.8616 -0.2977  1.1466
  163SAPE   H4S18303   1.818   3.998   6.568  0.1446 -2.6478  0.3993
  163SAPE   C2518304   1.666   3.860   6.631 -0.7627  0.2543  0.7799
  163SAPE   H5R18305   1.584   3.795   6.598 -0.7432  1.1097 -1.0391
  163SAPE   C2618306   1.727   3.837   6.748 -0.2084 -0.3994  0.6077
  163SAPE   H6R18307   1.672   3.772   6.817  0.9732  0.2126  2.1650
  163SAPE   C2718308   1.855   3.909   6.805  0.0110  0.7405  0.0574
  163SAPE   H7R18309   1.936   3.913   6.730 -0.0620 -0.2581 -0.0792
  163SAPE   H7S18310   1.890   3.847   6.891 -0.4499 -1.5603 -1.3683
  163SAPE   C2818311   1.828   4.045   6.860  0.7264  0.0767  0.5350
  163SAPE   H8R18312   1.842   4.129   6.791  0.2055 -0.7840 -0.6250
  163SAPE   C2918313   1.783   4.070   6.987  0.1267 -0.8641  0.2356
  163SAPE   H9R18314   1.739   4.170   7.001  3.0426  0.2736  1.7108
  163SAPE  C21018315   1.756   3.976   7.097  0.4472 -0.3329  0.4108
  163SAPE  H10R18316   1.751   3.871   7.059 -1.3423 -0.1601  0.1130
  163SAPE  H10S18317   1.658   3.984   7.149 -0.6625  0.7069 -1.7562
  163SAPE  C21118318   1.868   3.993   7.198  0.2882  0.1412 -0.4242
  163SAPE  H11R18319   1.962   3.952   7.156  0.3788 -1.2576  1.0947
  163SAPE  C21218320   1.866   4.040   7.325 -0.7077  0.1201  0.5195
  163SAPE  H12R18321   1.949   4.011   7.391 -0.9748 -0.8410  0.4398
  163SAPE  C21318322   1.748   4.091   7.400 -1.4321 -0.2443  0.1128
  163SAPE  H13R18323   1.664   4.026   7.367 -0.6947 -2.3399  2.2418
  163SAPE  H13S18324   1.716   4.191   7.364 -1.4737 -0.9226 -1.7824
  163SAPE  C21418325   1.747   4.080   7.552 -0.2275  0.5699 -0.0197
  163SAPE  H14R18326   1.785   4.166   7.609 -0.7864  1.4705 -0.9911
  163SAPE  C21518327   1.699   3.984   7.631 -0.7664  0.3820  0.0405
  163SAPE  H15R18328   1.711   3.989   7.741  2.2239 -1.4982 -0.1341
  163SAPE  C21618329   1.638   3.849   7.599  1.0130 -0.4992  0.2294
  163SAPE  H16R18330   1.675   3.800   7.507 -1.5699  0.4679 -1.3944
  163SAPE  H16S18331   1.530   3.871   7.582  0.7725 -2.0777 -0.3651
  163SAPE  C21718332   1.652   3.748   7.713 -0.6305  0.0101 -0.2666
  163SAPE  H17R18333   1.614   3.791   7.808  0.9845  1.0250 -0.0674
  163SAPE  H17S18334   1.755   3.716   7.739 -1.2952 -0.4183  1.9767
  163SAPE  C21818335   1.573   3.618   7.679  1.0808 -0.3720 -0.2341
  163SAPE  H18R18336   1.603   3.535   7.746 -1.3820 -0.7065  0.4805
  163SAPE  H18S18337   1.585   3.587   7.574 -1.5912 -0.1434 -0.6424
  163SAPE  C21918338   1.416   3.629   7.693 -0.3589 -0.6372 -0.4663
  163SAPE  H19R18339   1.376   3.690   7.609 -1.2649  1.3911  1.3871
  163SAPE  H19S18340   1.392   3.694   7.780 -0.4541 -0.3266 -0.7201
  163SAPE  C22018341   1.343   3.493   7.686  0.7587 -0.5209  0.3268
  163SAPE  H20R18342   1.369   3.431   7.774 -3.1165 -0.5046  1.5766
  163SAPE  H20S18343   1.370   3.442   7.591 -2.2502 -1.1289 -0.2436
  163SAPE  H20T18344   1.232   3.502   7.685  0.5479 -2.7928 -0.1314
  163SAPE   C3318345   1.369   4.243   6.637 -0.2712  0.4609  0.3237
  163SAPE   H3X18346   1.451   4.318   6.627  1.8409 -2.0429 -2.2323
  163SAPE   H3Y18347   1.408   4.139   6.632  3.1007  1.6788 -0.3813
  163SAPE   C3418348   1.326   4.256   6.788 -0.2293 -0.1737  0.1353
  163SAPE   H4X18349   1.246   4.179   6.796 -0.8426  0.3570 -0.7367
  163SAPE   H4Y18350   1.277   4.354   6.802  0.4296  0.2492 -0.4888
  163SAPE   C3518351   1.436   4.246   6.890 -0.2816  0.0184 -0.9457
  163SAPE   H5X18352   1.519   4.314   6.860  1.7526 -1.8532  0.2396
  163SAPE   H5Y18353   1.472   4.142   6.875 -1.0989 -0.6573  1.5651
  163SAPE   C3618354   1.387   4.267   7.030 -0.9189 -0.7862  0.2002
  163SAPE   H6X18355   1.322   4.181   7.060 -1.8552  0.4868  1.9269
  163SAPE   H6Y18356   1.331   4.361   7.046  1.1181 -0.0930  3.6611
  163SAPE   C3718357   1.500   4.276   7.132 -0.7681 -0.1884 -0.0457
  163SAPE   H7X18358   1.584   4.331   7.084 -0.4507  1.0809  1.9098
  163SAPE   H7Y18359   1.532   4.172   7.156  2.1653  0.7695  0.3418
  163SAPE   C3818360   1.464   4.350   7.267  0.0582  0.2398 -0.1085
  163SAPE   H8X18361   1.524   4.307   7.350 -2.3879 -0.1251  1.5008
  163SAPE   H8Y18362   1.359   4.331   7.296  0.2091 -1.0311 -0.3790
  163SAPE   C3918363   1.505   4.500   7.258 -0.7419  0.2696 -0.2331
  163SAPE   H9X18364   1.461   4.529   7.160  0.7194  0.7897 -0.7427
  163SAPE   H9Y18365   1.615   4.516   7.264 -0.8341  0.4212  1.1066
  163SAPE  C31018366   1.449   4.584   7.366  0.8994 -0.1957  0.2087
  163SAPE  H10X18367   1.342   4.557   7.378  1.3812 -2.6221 -0.6416
  163SAPE  H10Y18368   1.450   4.693   7.344  3.7889 -0.4488 -1.1221
  163SAPE  C31118369   1.508   4.550   7.498  0.2633  0.0550 -0.9904
  163SAPE  H11X18370   1.617   4.572   7.492  0.4228  0.1222  1.4710
  163SAPE  H11Y18371   1.490   4.446   7.533 -0.3837  0.2394 -0.7714
  163SAPE  C31218372   1.460   4.655   7.603 -0.1634 -0.8872  0.0885
  163SAPE  H12X18373   1.349   4.657   7.604 -0.2261 -0.7132  4.7175
  163SAPE  H12Y18374   1.499   4.754   7.572  0.3223 -1.2518 -0.4653
  163SAPE  C31318375   1.511   4.623   7.748 -0.3321  0.5249 -0.2203
  163SAPE  H13X18376   1.621   4.619   7.732  0.5100  0.6409  4.8076
  163SAPE  H13Y18377   1.484   4.524   7.790  0.9791  0.2962  0.1274
  163SAPE  C31418378   1.485   4.729   7.851 -0.0249  0.5133 -0.2896
  163SAPE  H14X18379   1.532   4.820   7.808 -1.2740  1.7695  0.9575
  163SAPE  H14Y18380   1.551   4.712   7.938  0.0989 -0.9897 -0.6521
  163SAPE  C31518381   1.343   4.754   7.905  0.0311 -0.1378  0.6339
  163SAPE  H15X18382   1.310   4.657   7.949 -1.4350 -0.1445 -0.4243
  163SAPE  H15Y18383   1.287   4.759   7.810  0.9564  0.5013  0.1227
  163SAPE  C31618384   1.334   4.879   7.998 -0.0063 -0.3601  0.5520
  163SAPE  H16X18385   1.387   4.967   7.956 -0.7292  0.2694  0.9483
  163SAPE  H16Y18386   1.384   4.857   8.095  1.8048  3.4653  0.5696
  163SAPE  C31718387   1.191   4.922   8.016  0.2547 -0.9452 -0.3181
  163SAPE  H17X18388   1.135   4.843   8.071 -2.8042  0.5720 -1.1012
  163SAPE  H17Y18389   1.141   4.940   7.918 -0.1552  0.1892  0.0876
  163SAPE  C31818390   1.170   5.045   8.104 -0.0461 -0.2844  0.3787
  163SAPE  H18X18391   1.185   5.022   8.211  3.2555 -2.4250 -0.4586
  163SAPE  H18Y18392   1.061   5.068   8.107  0.7605  3.7752  1.8570
  163SAPE  H18Z18393   1.233   5.133   8.081  2.3690 -2.4220 -1.5571
  164SAPE     N18394   5.668   0.717   5.855  0.0417  0.3290  0.2345
  164SAPE   HN118395   5.713   0.698   5.763 -1.3437 -1.6180 -0.0751
  164SAPE   HN218396   5.737   0.707   5.932 -0.3017  0.3411  0.5483
  164SAPE   HN318397   5.604   0.635   5.860  0.4074  0.0957  1.2051
  164SAPE   C1218398   5.598   0.852   5.839  0.6071 -0.4388  0.1297
  164SAPE  H12A18399   5.512   0.842   5.769  1.2477  0.4520 -0.7900
  164SAPE  H12B18400   5.663   0.919   5.779  1.3631 -1.4609 -0.2026
  164SAPE   C1118401   5.565   0.921   5.971  0.5322  0.3617 -0.0150
  164SAPE  H11A18402   5.487   0.868   6.030 -0.7660 -0.4123 -2.3614
  164SAPE  H11B18403   5.513   1.015   5.945  1.4621  0.7899 -0.3604
  164SAPE     P18404   5.780   1.053   6.030  0.0103  0.1811 -0.2508
  164SAPE   O1318405   5.895   0.991   5.957 -0.1210 -0.3458  0.2638
  164SAPE   O1418406   5.707   1.160   5.955  0.3291 -0.0947 -0.4290
  164SAPE   O1218407   5.681   0.934   6.051  0.3238 -0.2411 -0.8328
  164SAPE   O1118408   5.833   1.106   6.171  0.0374  0.0273  0.2263
  164SAPE    C118409   5.781   1.049   6.292  0.0531  0.0610  0.0756
  164SAPE    HA18410   5.764   0.940   6.288  0.0140 -0.0383  2.2032
  164SAPE    HB18411   5.859   1.059   6.370  0.7887  0.1451 -0.6702
  164SAPE    C218412   5.643   1.112   6.332  0.7160 -0.0676  0.2733
  164SAPE    HS18413   5.581   1.136   6.243  0.0539 -0.3121  0.6620
  164SAPE   O2118414   5.667   1.234   6.396  0.3252  0.3003  0.0371
  164SAPE   C2118415   5.577   1.330   6.373  0.4248  0.2455 -0.4432
  164SAPE   O2218416   5.487   1.337   6.297  0.3227 -0.1797 -0.0410
  164SAPE   C2218417   5.617   1.443   6.469  0.3518  0.3383  0.3815
  164SAPE   H2R18418   5.721   1.432   6.506  0.4460 -0.8493 -0.2132
  164SAPE   H2S18419   5.601   1.531   6.404 -1.6128 -0.8041 -0.7421
  164SAPE    C318420   5.562   1.019   6.433  0.6341  0.0739  0.8330
  164SAPE    HX18421   5.612   1.021   6.532 -0.0574 -2.3720  1.2830
  164SAPE    HY18422   5.592   0.919   6.395 -1.2237 -0.1404 -0.1565
  164SAPE   O3118423   5.419   1.053   6.434  0.2604  0.0078 -0.1487
  164SAPE   C3118424   5.338   0.951   6.401 -0.2240 -0.5460 -0.2996
  164SAPE   O3218425   5.378   0.837   6.375  1.0563 -0.1487 -0.3367
  164SAPE   C3218426   5.184   0.995   6.407  0.1580  0.0576  0.0489
  164SAPE   H2X18427   5.170   1.079   6.335 -0.8934  0.2579  0.4754
  164SAPE   H2Y18428   5.154   1.029   6.508 -1.4771  0.4784 -0.5510
  164SAPE   C2318429   5.512   1.461   6.585  0.5349 -0.4102 -0.6366
  164SAPE   H3R18430   5.414   1.438   6.539  1.1529 -2.6998 -0.8913
  164SAPE   H3S18431   5.518   1.567   6.616  0.6234 -0.1943 -1.3739
  164SAPE   C2418432   5.551   1.384   6.713  0.2024 -0.1222 -0.3754
  164SAPE   H4R18433   5.647   1.428   6.745 -2.5909  4.9399  1.6403
  164SAPE   H4S18434   5.564   1.277   6.685  2.0270  0.5714 -2.3112
  164SAPE   C2518435   5.455   1.383   6.835  0.1155  0.9338  0.0815
  164SAPE   H5R18436   5.454   1.472   6.899  4.9004 -0.3503  2.1952
  164SAPE   C2618437   5.371   1.278   6.866  0.5686  0.2253  0.1159
  164SAPE   H6R18438   5.290   1.299   6.938  0.0083 -0.2851 -0.3601
  164SAPE   C2718439   5.350   1.147   6.794  0.2355  0.2890  0.4974
  164SAPE   H7R18440   5.378   1.065   6.864  4.0482  1.2367  0.1854
  164SAPE   H7S18441   5.414   1.130   6.706  0.6696 -1.0223  1.0542
  164SAPE   C2818442   5.218   1.129   6.735 -0.6976  0.7598 -0.0952
  164SAPE   H8R18443   5.193   1.196   6.651 -0.9642  1.7394  0.7534
  164SAPE   C2918444   5.128   1.039   6.779 -0.4379  0.0519 -0.0836
  164SAPE   H9R18445   5.026   1.035   6.738 -1.0616 -3.1267  1.6139
  164SAPE  C21018446   5.142   0.946   6.898 -0.1978 -0.0224 -0.3222
  164SAPE  H10R18447   5.210   0.999   6.968 -1.7486  0.7510  0.6299
  164SAPE  H10S18448   5.209   0.871   6.849 -0.5419 -1.3042  1.1383
  164SAPE  C21118449   5.026   0.865   6.961 -0.4442  0.1529 -0.4226
  164SAPE  H11R18450   5.040   0.756   6.959  0.0049  0.2131 -0.6381
  164SAPE  C21218451   4.918   0.923   7.019  0.3891 -0.3390  0.9824
  164SAPE  H12R18452   4.835   0.855   7.041 -0.6440 -0.3983 -2.8533
  164SAPE  C21318453   4.907   1.073   7.028  0.3400 -0.1895 -0.6471
  164SAPE  H13R18454   4.830   1.120   6.963  2.1646  3.8265 -0.0518
  164SAPE  H13S18455   4.996   1.119   6.980  0.7281 -3.4099 -3.1584
  164SAPE  C21418456   4.901   1.125   7.174  0.1830 -0.4673 -0.0025
  164SAPE  H14R18457   4.800   1.127   7.217 -0.9499 -3.7301 -2.3525
  164SAPE  C21518458   4.994   1.172   7.255  0.3697 -0.7335 -0.9672
  164SAPE  H15R18459   4.974   1.206   7.358 -1.8275  0.2918 -1.7017
  164SAPE  C21618460   5.138   1.192   7.218 -0.7435  0.0942 -0.3679
  164SAPE  H16R18461   5.183   1.284   7.260 -2.4093  1.0641 -0.6877
  164SAPE  H16S18462   5.139   1.216   7.110 -2.8489  0.3600 -0.3456
  164SAPE  C21718463   5.230   1.075   7.244 -0.0277  0.4146 -0.0100
  164SAPE  H17R18464   5.311   1.070   7.168  0.0148  0.3295  0.0425
  164SAPE  H17S18465   5.163   0.987   7.236 -1.9947  1.9477 -0.9656
  164SAPE  C21818466   5.289   1.081   7.386 -0.4544  0.2902  0.8172
  164SAPE  H18R18467   5.351   1.173   7.392  2.3248 -1.5257  0.6922
  164SAPE  H18S18468   5.355   0.994   7.404 -0.0777  0.6212  1.0355
  164SAPE  C21918469   5.192   1.083   7.506  0.2927  0.3407  0.8914
  164SAPE  H19R18470   5.129   0.994   7.487 -0.2352  0.7452  0.7132
  164SAPE  H19S18471   5.128   1.174   7.510  1.4346  1.1989  0.0160
  164SAPE  C22018472   5.276   1.075   7.634 -0.3758  1.1459 -0.1004
  164SAPE  H20R18473   5.342   1.164   7.644 -1.9818  2.1299  2.2461
  164SAPE  H20S18474   5.348   0.991   7.630 -0.5761  0.8358  1.9075
  164SAPE  H20T18475   5.212   1.067   7.725  2.1454 -0.9514  1.5636
  164SAPE   C3318476   5.081   0.885   6.355  0.2864  0.2651 -0.1418
  164SAPE   H3X18477   5.130   0.827   6.274  1.6131  1.8695 -0.5061
  164SAPE   H3Y18478   4.989   0.935   6.318  0.4316  1.0040  0.4728
  164SAPE   C3418479   5.028   0.787   6.460 -0.3593 -0.5250 -0.0156
  164SAPE   H4X18480   4.942   0.723   6.431 -0.8592  0.2038 -0.1569
  164SAPE   H4Y18481   4.978   0.840   6.544 -1.6071 -0.8513 -0.5300
  164SAPE   C3518482   5.139   0.714   6.530  0.3205  0.6020  0.3963
  164SAPE   H5X18483   5.192   0.782   6.600 -1.0243  2.9531 -0.7962
  164SAPE   H5Y18484   5.213   0.681   6.454  0.1851  3.7988 -1.2037
  164SAPE   C3618485   5.101   0.579   6.600  0.4460 -0.1473 -0.1055
  164SAPE   H6X18486   5.188   0.541   6.658 -0.0339 -0.0226  0.7057
  164SAPE   H6Y18487   5.081   0.498   6.526  0.9245 -1.2112  0.9257
  164SAPE   C3718488   4.991   0.580   6.698  0.5227  0.0205 -0.2387
  164SAPE   H7X18489   4.896   0.581   6.642 -0.3716  0.5829  1.2462
  164SAPE   H7Y18490   4.987   0.673   6.760 -0.8511  0.9541 -1.7062
  164SAPE   C3818491   4.998   0.454   6.786 -1.2732 -0.0711  0.4121
  164SAPE   H8X18492   5.098   0.456   6.834  0.9532  2.4391 -3.9918
  164SAPE   H8Y18493   5.009   0.369   6.716 -0.8804  0.6663 -0.4260
  164SAPE   C3918494   4.881   0.440   6.876  0.9805 -0.4091 -0.5889
  164SAPE   H9X18495   4.891   0.345   6.932  0.2066 -0.5476 -0.6708
  164SAPE   H9Y18496   4.789   0.438   6.814  0.7449 -0.2208 -0.2500
  164SAPE  C31018497   4.857   0.543   6.990  0.1337 -0.3449  0.4331
  164SAPE  H10X18498   4.844   0.642   6.942 -1.1837 -1.2190 -1.0599
  164SAPE  H10Y18499   4.947   0.549   7.055  0.1587  1.3628  0.2531
  164SAPE  C31118500   4.745   0.504   7.084  0.7490 -0.3284  0.2567
  164SAPE  H11X18501   4.764   0.402   7.123  0.5158 -0.0729  1.0575
  164SAPE  H11Y18502   4.649   0.517   7.031  1.6034  2.7871 -0.6414
  164SAPE  C31218503   4.751   0.602   7.204  0.0348 -0.5832  0.5966
  164SAPE  H12X18504   4.653   0.592   7.256  0.9406 -1.4250  2.1570
  164SAPE  H12Y18505   4.758   0.711   7.183 -2.0998 -0.9594 -2.4770
  164SAPE  C31318506   4.863   0.561   7.311 -0.3138 -0.6473 -0.6074
  164SAPE  H13X18507   4.954   0.618   7.281 -0.6087  1.1437  1.7923
  164SAPE  H13Y18508   4.882   0.451   7.307 -0.8505 -0.8925  2.3213
  164SAPE  C31418509   4.830   0.602   7.450  0.4697 -0.7351  0.0522
  164SAPE  H14X18510   4.911   0.556   7.510  0.9446 -0.0574 -0.0612
  164SAPE  H14Y18511   4.729   0.568   7.480 -0.3862  1.0587 -0.7002
  164SAPE  C31518512   4.841   0.755   7.464 -0.0426 -0.4411  0.3793
  164SAPE  H15X18513   4.767   0.812   7.404  0.0947 -0.7869 -0.1151
  164SAPE  H15Y18514   4.946   0.789   7.454 -0.9026  2.3399  0.3788
  164SAPE  C31618515   4.795   0.801   7.599 -0.3921 -0.2926 -0.0546
  164SAPE  H16X18516   4.863   0.746   7.668 -0.6824  0.4777  0.8562
  164SAPE  H16Y18517   4.687   0.778   7.609 -0.3097 -0.4549  0.5054
  164SAPE  C31718518   4.801   0.954   7.614 -0.2080 -0.4534  0.0141
  164SAPE  H17X18519   4.742   0.998   7.531  2.4692 -0.8311 -2.1668
  164SAPE  H17Y18520   4.904   0.992   7.603 -1.5204  3.0435 -0.8296
  164SAPE  C31818521   4.749   1.003   7.752  0.1061  0.1448  0.5826
  164SAPE  H18X18522   4.700   1.102   7.745  0.1864  0.0331 -2.0622
  164SAPE  H18Y18523   4.835   1.001   7.821  1.0279 -0.5439 -0.5705
  164SAPE  H18Z18524   4.672   0.928   7.780  1.0504 -0.8637  0.4962
  165SAPE     N18525   7.185   3.060   6.110 -0.8349  0.5719 -0.6143
  165SAPE   HN118526   7.207   3.128   6.185  1.8979 -0.0388 -0.8188
  165SAPE   HN218527   7.252   2.980   6.110 -1.2647  0.1588  1.5388
  165SAPE   HN318528   7.197   3.112   6.021  0.4465  0.2869 -0.6222
  165SAPE   C1218529   7.052   2.996   6.130 -0.7121 -0.6234 -0.0161
  165SAPE  H12A18530   7.047   2.968   6.237  0.6470 -0.8061  0.0003
  165SAPE  H12B18531   7.048   2.904   6.067  0.3473 -0.1569 -0.7709
  165SAPE   C1118532   6.945   3.102   6.089  0.8069  0.0028  0.2370
  165SAPE  H11A18533   6.978   3.196   6.138  1.0409 -0.1283  0.3349
  165SAPE  H11B18534   6.846   3.070   6.127  1.1769 -1.2149  0.1971
  165SAPE     P18535   7.011   3.221   5.860 -0.0118  0.5302 -0.1909
  165SAPE   O1318536   7.155   3.203   5.891 -0.6148 -0.2795  0.4315
  165SAPE   O1418537   6.958   3.210   5.724 -0.3166 -0.2412 -0.4189
  165SAPE   O1218538   6.931   3.111   5.945 -1.0993 -0.1437 -0.0007
  165SAPE   O1118539   6.971   3.363   5.921  0.1649 -0.1002  0.3714
  165SAPE    C118540   6.833   3.387   5.964 -0.6114 -0.5660 -0.9934
  165SAPE    HA18541   6.774   3.433   5.882 -0.4598  1.5025  0.0231
  165SAPE    HB18542   6.783   3.293   5.994 -0.4777 -0.3995 -0.2308
  165SAPE    C218543   6.811   3.483   6.090  0.8060 -0.4502  0.2073
  165SAPE    HS18544   6.854   3.581   6.061  1.6073 -1.0975 -0.8726
  165SAPE   O2118545   6.883   3.434   6.205 -0.2288  0.1677  0.5240
  165SAPE   C2118546   6.901   3.523   6.301 -0.2460  0.7382 -0.4214
  165SAPE   O2218547   6.852   3.638   6.290 -0.2324 -0.1002 -0.1472
  165SAPE   C2218548   6.992   3.466   6.410 -0.2187 -0.6296  0.3703
  165SAPE   H2R18549   6.948   3.368   6.439 -1.5710  0.1572  1.0621
  165SAPE   H2S18550   7.097   3.450   6.379 -0.2394  1.9302 -1.1523
  165SAPE    C318551   6.658   3.491   6.120  0.1108  0.1771  0.3257
  165SAPE    HX18552   6.610   3.553   6.042 -1.1101  0.3711  1.2209
  165SAPE    HY18553   6.638   3.531   6.221 -4.2033  0.6647 -0.6585
  165SAPE   O3118554   6.591   3.364   6.117  0.1562  0.6698  0.5467
  165SAPE   C3118555   6.575   3.292   6.222 -0.2809 -0.0461  0.0287
  165SAPE   O3218556   6.609   3.318   6.335  0.1582  0.4750  0.2289
  165SAPE   C3218557   6.511   3.161   6.170  0.4994 -0.9816 -0.5899
  165SAPE   H2X18558   6.590   3.114   6.107  2.8887 -1.3252  2.4941
  165SAPE   H2Y18559   6.425   3.192   6.108 -1.1587  1.7420  2.8858
  165SAPE   C2318560   7.013   3.553   6.533  0.1188 -1.3590 -0.0275
  165SAPE   H3R18561   7.020   3.660   6.504  2.7272 -1.1855  1.1299
  165SAPE   H3S18562   7.105   3.522   6.587  0.8510  1.9765  0.7155
  165SAPE   C2418563   6.884   3.529   6.616  0.5798 -0.1236 -0.8564
  165SAPE   H4R18564   6.879   3.420   6.633  0.7330 -0.1376 -0.9046
  165SAPE   H4S18565   6.797   3.557   6.552 -0.5446  1.3011  1.2459
  165SAPE   C2518566   6.885   3.615   6.736  0.0551  0.0553  0.2170
  165SAPE   H5R18567   6.968   3.687   6.736  0.6450 -0.6119  1.0083
  165SAPE   C2618568   6.804   3.626   6.844 -0.8561  0.5108  0.9600
  165SAPE   H6R18569   6.822   3.690   6.932  0.2313 -2.1121  2.7088
  165SAPE   C2718570   6.682   3.541   6.865  0.1183 -0.2115  0.1757
  165SAPE   H7R18571   6.703   3.440   6.824 -0.4902 -0.2564 -0.0419
  165SAPE   H7S18572   6.592   3.568   6.805  1.6439  1.3621 -1.4486
  165SAPE   C2818573   6.650   3.520   7.011  0.1285 -0.2686 -0.3305
  165SAPE   H8R18574   6.712   3.443   7.060  0.1793  0.0673  0.1314
  165SAPE   C2918575   6.554   3.584   7.075 -0.0217  0.3058  0.4269
  165SAPE   H9R18576   6.535   3.563   7.181 -1.8668  2.4318  0.5792
  165SAPE  C21018577   6.463   3.688   7.016  0.5969 -0.4964  0.2376
  165SAPE  H10R18578   6.399   3.634   6.944 -0.4601 -0.1594  0.9174
  165SAPE  H10S18579   6.525   3.755   6.952  2.3436 -0.3007  2.0730
  165SAPE  C21118580   6.392   3.783   7.112 -0.1208  0.3154 -0.6822
  165SAPE  H11R18581   6.428   3.887   7.116 -1.2764  0.6389  2.2360
  165SAPE  C21218582   6.276   3.754   7.175 -0.2481  0.6682  0.6940
  165SAPE  H12R18583   6.240   3.824   7.251  0.2969  1.3346  0.3458
  165SAPE  C21318584   6.191   3.629   7.161 -0.1033  0.2803 -0.2602
  165SAPE  H13R18585   6.242   3.556   7.226  0.6984  1.4709  0.4639
  165SAPE  H13S18586   6.195   3.592   7.056 -0.5208 -0.6164  0.0385
  165SAPE  C21418587   6.043   3.644   7.194  0.3275  0.1957  0.1562
  165SAPE  H14R18588   6.006   3.743   7.161 -4.6487 -1.9068 -0.9903
  165SAPE  C21518589   5.965   3.548   7.254 -0.6070  0.4093  0.9838
  165SAPE  H15R18590   5.858   3.573   7.255 -0.8772 -0.6137 -0.4869
  165SAPE  C21618591   6.005   3.410   7.303  0.7675 -0.7026  0.4735
  165SAPE  H16R18592   6.089   3.370   7.242  0.6372 -1.4849  0.8137
  165SAPE  H16S18593   5.922   3.342   7.275 -0.2343  1.3001 -1.5791
  165SAPE  C21718594   6.036   3.405   7.452  0.2100 -0.0450 -0.1496
  165SAPE  H17R18595   6.112   3.481   7.480 -1.3282  1.0293  1.2331
  165SAPE  H17S18596   6.088   3.311   7.480 -1.0328 -1.0465 -1.1600
  165SAPE  C21818597   5.908   3.425   7.537  0.4880  0.5273 -0.2716
  165SAPE  H18R18598   5.824   3.361   7.502  0.9299 -0.2870  0.1569
  165SAPE  H18S18599   5.876   3.531   7.531 -3.0271 -0.5317 -1.7864
  165SAPE  C21918600   5.913   3.383   7.692 -0.5660 -0.0900  0.3802
  165SAPE  H19R18601   5.820   3.409   7.748 -0.5203  0.1408  0.3529
  165SAPE  H19S18602   5.999   3.443   7.730 -0.9953  0.0004  1.2244
  165SAPE  C22018603   5.940   3.241   7.716 -0.2760  0.4945  0.2920
  165SAPE  H20R18604   5.941   3.215   7.824 -1.9359  0.0185  0.2136
  165SAPE  H20S18605   6.039   3.217   7.672  0.3553 -0.6439  2.2599
  165SAPE  H20T18606   5.867   3.180   7.658 -0.0452  1.7843 -1.4054
  165SAPE   C3318607   6.464   3.057   6.272 -1.0321  0.2380 -0.9733
  165SAPE   H3X18608   6.402   3.099   6.354  0.6936  0.5925  0.1644
  165SAPE   H3Y18609   6.554   3.007   6.312 -1.3018 -2.4853 -3.6166
  165SAPE   C3418610   6.386   2.949   6.194  0.5111  1.1029  0.5412
  165SAPE   H4X18611   6.444   2.913   6.107  0.9895 -0.9547  1.6645
  165SAPE   H4Y18612   6.295   2.994   6.148 -0.4528  0.2458  1.5640
  165SAPE   C3518613   6.331   2.832   6.278  0.1748  0.4516 -0.1079
  165SAPE   H5X18614   6.418   2.801   6.340  0.1307  0.2389 -0.1532
  165SAPE   H5Y18615   6.299   2.748   6.213 -1.9142  0.5381  0.7714
  165SAPE   C3618616   6.219   2.875   6.372 -1.4323  0.0041 -0.1319
  165SAPE   H6X18617   6.134   2.908   6.309 -1.8517  1.6330  1.2380
  165SAPE   H6Y18618   6.261   2.962   6.428  0.1882  0.5491 -2.1631
  165SAPE   C3718619   6.183   2.767   6.474 -0.2097 -0.0764 -1.1787
  165SAPE   H7X18620   6.146   2.671   6.432  0.5485 -0.1185 -1.7610
  165SAPE   H7Y18621   6.098   2.811   6.530 -0.2857  0.5700 -1.7989
  165SAPE   C3818622   6.293   2.756   6.575  0.5341 -0.3791 -0.1240
  165SAPE   H8X18623   6.329   2.859   6.596 -0.4845  0.0128 -0.2783
  165SAPE   H8Y18624   6.383   2.698   6.545  0.1254 -0.6532 -0.8610
  165SAPE   C3918625   6.244   2.675   6.700  0.2244 -1.1186  0.0877
  165SAPE   H9X18626   6.251   2.564   6.690 -1.1023 -1.4087  2.1327
  165SAPE   H9Y18627   6.138   2.701   6.717 -0.3307 -1.9297 -1.9095
  165SAPE  C31018628   6.328   2.718   6.820  0.0498 -0.4693 -0.6327
  165SAPE  H10X18629   6.288   2.678   6.916  0.7623  2.2309  0.8510
  165SAPE  H10Y18630   6.326   2.829   6.822 -0.2586 -0.4276 -2.4524
  165SAPE  C31118631   6.477   2.675   6.813 -0.0627  0.0483 -0.2128
  165SAPE  H11X18632   6.522   2.711   6.718 -0.0582  0.1971 -0.1525
  165SAPE  H11Y18633   6.481   2.564   6.802  0.7263 -0.0191  0.7076
  165SAPE  C31218634   6.565   2.713   6.932  0.1194  0.2363  0.4103
  165SAPE  H12X18635   6.661   2.660   6.913 -0.7853 -1.0315 -0.6855
  165SAPE  H12Y18636   6.528   2.672   7.028  0.3639  1.8875  1.2266
  165SAPE  C31318637   6.588   2.862   6.942  0.2403 -0.1746 -0.2397
  165SAPE  H13X18638   6.495   2.898   6.992  2.0901  0.3613  2.9427
  165SAPE  H13Y18639   6.611   2.905   6.842 -0.7532 -0.0031 -0.4007
  165SAPE  C31418640   6.704   2.893   7.036  0.1135 -0.3510  0.1222
  165SAPE  H14X18641   6.796   2.849   6.990 -0.9512 -0.9230 -1.5347
  165SAPE  H14Y18642   6.699   2.845   7.136 -0.8348 -2.7108 -1.0017
  165SAPE  C31518643   6.725   3.050   7.070 -0.6495 -0.2888 -0.7498
  165SAPE  H15X18644   6.656   3.062   7.156 -1.0607 -1.5859 -0.8830
  165SAPE  H15Y18645   6.692   3.107   6.981  2.5217 -0.3870 -2.0793
  165SAPE  C31618646   6.874   3.087   7.114  0.5265  0.4087 -0.1728
  165SAPE  H16X18647   6.905   3.036   7.207 -0.5652 -1.8691 -1.0113
  165SAPE  H16Y18648   6.873   3.191   7.155 -0.6229  0.9381 -1.4965
  165SAPE  C31718649   6.986   3.077   7.010  0.2045 -0.5917 -0.7682
  165SAPE  H17X18650   6.978   2.986   6.946  2.0670 -1.1844 -0.1759
  165SAPE  H17Y18651   7.086   3.064   7.056 -0.0633  2.1600  0.6616
  165SAPE  C31818652   7.004   3.194   6.914  0.1616  0.4174  0.3818
  165SAPE  H18X18653   7.095   3.173   6.855 -0.1383 -3.1434  1.0725
  165SAPE  H18Y18654   7.026   3.290   6.965 -0.8175  0.8866 -0.0623
  165SAPE  H18Z18655   6.918   3.205   6.843  1.5429 -0.7633 -1.5170
  166SAPE     N18656   4.134   7.134   5.953  0.4516  0.1998  0.7297
  166SAPE   HN118657   4.118   7.047   5.898  1.9209 -0.3124  1.1019
  166SAPE   HN218658   4.233   7.152   5.976  0.5010 -1.3505  1.8222
  166SAPE   HN318659   4.077   7.120   6.039  1.3026 -0.1943  1.2276
  166SAPE   C1218660   4.075   7.255   5.887  0.0559  0.6616  0.1399
  166SAPE  H12A18661   3.983   7.214   5.840 -0.2018  2.4835 -0.9921
  166SAPE  H12B18662   4.145   7.277   5.803  2.7562  0.5852  2.3085
  166SAPE   C1118663   4.049   7.373   5.979 -0.6556  0.7121  0.2420
  166SAPE  H11A18664   3.997   7.355   6.075 -0.7355 -0.1699  0.0321
  166SAPE  H11B18665   3.986   7.444   5.921  0.4168 -0.2767 -2.1979
  166SAPE     P18666   4.245   7.550   5.927  0.1487 -0.1031 -0.2237
  166SAPE   O1318667   4.364   7.585   6.005  0.0323  0.5652  0.5318
  166SAPE   O1418668   4.263   7.507   5.789  0.0290 -0.2322  0.0765
  166SAPE   O1218669   4.168   7.445   6.005  0.0021 -0.4149 -0.3920
  166SAPE   O1118670   4.139   7.662   5.939 -0.8682 -0.0853 -0.4014
  166SAPE    C118671   4.105   7.710   6.077 -0.4498  0.5035 -0.3061
  166SAPE    HA18672   4.083   7.633   6.155  0.3583 -0.6743 -1.2250
  166SAPE    HB18673   4.188   7.770   6.120  1.4612 -0.2693 -2.8223
  166SAPE    C218674   3.966   7.782   6.069  0.0294  0.3715  0.7718
  166SAPE    HS18675   3.960   7.860   5.990 -1.7478 -1.7209 -1.2178
  166SAPE   O2118676   3.931   7.818   6.204 -0.6063  0.3451 -0.1924
  166SAPE   C2118677   3.947   7.949   6.228  0.0565 -0.1683  0.0023
  166SAPE   O2218678   3.984   8.034   6.151  0.6877 -0.4870  0.1254
  166SAPE   C2218679   3.909   7.970   6.375  0.0857 -0.0627  0.3306
  166SAPE   H2R18680   3.945   8.069   6.410 -2.4067  0.0702  2.6277
  166SAPE   H2S18681   3.799   7.955   6.377  0.1232 -0.8161 -1.8079
  166SAPE    C318682   3.859   7.681   6.012  0.2461  0.3587  0.1116
  166SAPE    HX18683   3.878   7.645   5.909 -1.6449  1.9716 -0.8313
  166SAPE    HY18684   3.765   7.740   6.009  0.5500  0.8528  0.2250
  166SAPE   O3118685   3.838   7.561   6.095  0.0362  0.2078 -0.2081
  166SAPE   C3118686   3.714   7.505   6.106 -0.3787 -0.1010 -0.4322
  166SAPE   O3218687   3.615   7.542   6.051 -0.5857  0.3376  0.2898
  166SAPE   C3218688   3.712   7.394   6.199  0.1707  0.0916 -0.2948
  166SAPE   H2X18689   3.815   7.359   6.221  0.1319  1.2847  1.8951
  166SAPE   H2Y18690   3.650   7.310   6.160 -0.7933  2.0243 -2.9929
  166SAPE   C2318691   3.960   7.864   6.481 -0.0823  0.2291  0.0238
  166SAPE   H3R18692   4.071   7.871   6.488  0.0213 -2.8382  2.3372
  166SAPE   H3S18693   3.946   7.760   6.447 -2.2151  1.0882 -1.8225
  166SAPE   C2418694   3.908   7.897   6.618  1.6796  0.3722 -0.1545
  166SAPE   H4R18695   3.934   8.004   6.634 -0.3583  0.5962  1.9509
  166SAPE   H4S18696   3.975   7.837   6.683  1.8068 -0.9165 -1.4452
  166SAPE   C2518697   3.761   7.874   6.645  1.0819  0.6410 -0.9148
  166SAPE   H5R18698   3.688   7.907   6.569  1.0423  1.7205 -0.4150
  166SAPE   C2618699   3.711   7.811   6.751 -0.2361 -0.6782  0.0233
  166SAPE   H6R18700   3.602   7.798   6.750 -0.3236  0.0339 -0.0269
  166SAPE   C2718701   3.786   7.755   6.867 -0.5936  0.6763  0.0474
  166SAPE   H7R18702   3.875   7.700   6.828 -0.0850  1.8676 -0.4758
  166SAPE   H7S18703   3.728   7.674   6.916  0.7871  0.0011  0.6107
  166SAPE   C2818704   3.833   7.853   6.970  0.1885 -0.2100 -0.9486
  166SAPE   H8R18705   3.890   7.937   6.928  1.0556 -0.5385 -0.4413
  166SAPE   C2918706   3.793   7.863   7.100 -0.4073 -0.2212  0.3131
  166SAPE   H9R18707   3.836   7.953   7.148  0.5502 -0.1575 -0.6432
  166SAPE  C21018708   3.697   7.777   7.172  0.0535  0.4316  0.1928
  166SAPE  H10R18709   3.745   7.682   7.202  0.1455  1.1777  2.5248
  166SAPE  H10S18710   3.610   7.759   7.106  0.0444 -0.6051  0.4781
  166SAPE  C21118711   3.629   7.827   7.291 -0.6268  0.1127 -0.0873
  166SAPE  H11R18712   3.536   7.879   7.263 -0.4167 -0.2680 -1.5480
  166SAPE  C21218713   3.667   7.820   7.419 -0.8801  0.4844 -0.6219
  166SAPE  H12R18714   3.617   7.892   7.486 -0.7855  0.6983 -0.7808
  166SAPE  C21318715   3.798   7.760   7.470 -0.6087  0.2358  0.1784
  166SAPE  H13R18716   3.860   7.839   7.518 -1.0376  1.1505 -0.7656
  166SAPE  H13S18717   3.859   7.730   7.383 -0.6655 -3.0583  1.2112
  166SAPE  C21418718   3.774   7.636   7.550  0.2494 -0.3904  0.1185
  166SAPE  H14R18719   3.683   7.585   7.514  0.5658 -0.7435 -0.1929
  166SAPE  C21518720   3.830   7.608   7.667  0.2272  0.1082 -0.4565
  166SAPE  H15R18721   3.800   7.515   7.718 -2.5383  0.8337 -0.6737
  166SAPE  C21618722   3.929   7.697   7.744  1.1636 -0.1788  0.0656
  166SAPE  H16R18723   3.880   7.795   7.766 -0.5856 -0.9142 -0.4141
  166SAPE  H16S18724   4.019   7.718   7.682  0.1308  2.1185 -0.7212
  166SAPE  C21718725   3.980   7.649   7.881 -0.3700 -0.9254  0.8669
  166SAPE  H17R18726   4.079   7.694   7.903 -0.4805  0.4029 -1.2249
  166SAPE  H17S18727   3.989   7.538   7.877 -1.1789 -1.0306  1.6945
  166SAPE  C21818728   3.882   7.687   7.996  0.2573  0.0951 -0.3191
  166SAPE  H18R18729   3.790   7.626   7.986  0.1237  0.1757  0.4126
  166SAPE  H18S18730   3.861   7.795   7.985 -0.7992 -0.2054 -1.3017
  166SAPE  C21918731   3.950   7.678   8.134 -0.0434  0.0647 -0.2963
  166SAPE  H19R18732   4.046   7.733   8.141  1.7294 -2.7427 -2.0274
  166SAPE  H19S18733   3.974   7.570   8.145 -0.6495  0.0698  1.1566
  166SAPE  C22018734   3.858   7.723   8.246  0.5420  0.6766 -0.1375
  166SAPE  H20R18735   3.825   7.827   8.228  0.6041  0.7462  0.1469
  166SAPE  H20S18736   3.916   7.730   8.341  1.5142  1.5708 -0.7973
  166SAPE  H20T18737   3.771   7.653   8.249  2.1709 -1.4593 -0.8433
  166SAPE   C3318738   3.655   7.434   6.334  0.0241  0.8858 -0.5655
  166SAPE   H3X18739   3.557   7.484   6.314 -0.6207  0.5630  1.6368
  166SAPE   H3Y18740   3.720   7.506   6.389 -0.0713  1.3779 -1.0921
  166SAPE   C3418741   3.635   7.318   6.433  0.4309 -0.1932  0.0716
  166SAPE   H4X18742   3.733   7.268   6.447 -0.3092 -1.2714  1.6478
  166SAPE   H4Y18743   3.559   7.247   6.395  0.0154  0.2591  0.0636
  166SAPE   C3518744   3.592   7.366   6.574 -0.0984 -0.4787 -0.0666
  166SAPE   H5X18745   3.500   7.427   6.558 -0.6015 -1.0951  0.4309
  166SAPE   H5Y18746   3.656   7.447   6.615 -0.0827 -1.3891  1.7895
  166SAPE   C3618747   3.569   7.259   6.681 -0.2482  0.2044  0.2396
  166SAPE   H6X18748   3.668   7.212   6.696 -0.0190 -0.5631 -3.2933
  166SAPE   H6Y18749   3.506   7.178   6.638  0.7192 -0.1292 -0.5651
  166SAPE   C3718750   3.513   7.312   6.813  0.0106 -0.3574  0.3344
  166SAPE   H7X18751   3.471   7.226   6.869  0.0711 -1.1640 -0.8500
  166SAPE   H7Y18752   3.430   7.381   6.787  0.8492  0.2220 -0.8464
  166SAPE   C3818753   3.614   7.392   6.894  0.3478 -0.0703  0.1634
  166SAPE   H8X18754   3.680   7.455   6.831 -0.3808  0.9775  0.4270
  166SAPE   H8Y18755   3.683   7.310   6.924  0.4603  0.2560  0.8023
  166SAPE   C3918756   3.559   7.462   7.021 -0.3198  0.1298 -0.2537
  166SAPE   H9X18757   3.464   7.513   6.993 -0.4163  0.3679  0.4815
  166SAPE   H9Y18758   3.622   7.551   7.043 -0.6647 -0.0468  1.5609
  166SAPE  C31018759   3.528   7.359   7.122  0.0070 -0.2754  0.0661
  166SAPE  H10X18760   3.516   7.256   7.081  0.8173 -0.0533 -0.7275
  166SAPE  H10Y18761   3.437   7.380   7.182  0.1439 -1.1754  0.6062
  166SAPE  C31118762   3.641   7.349   7.220  0.9559 -0.0311  0.3949
  166SAPE  H11X18763   3.664   7.452   7.254 -0.8887  0.7913 -0.8170
  166SAPE  H11Y18764   3.734   7.305   7.178 -0.2969 -2.3347 -0.0462
  166SAPE  C31218765   3.610   7.251   7.337  0.2407  0.6035  0.2544
  166SAPE  H12X18766   3.607   7.145   7.302  1.2946  0.6019  0.1629
  166SAPE  H12Y18767   3.510   7.274   7.380 -0.5264  0.9593 -1.6281
  166SAPE  C31318768   3.715   7.269   7.439 -0.0613 -0.4758  0.0731
  166SAPE  H13X18769   3.737   7.377   7.454 -0.4926 -0.7285  2.8145
  166SAPE  H13Y18770   3.808   7.226   7.398 -0.3475 -2.6797  1.6404
  166SAPE  C31418771   3.691   7.209   7.578  0.1636  0.2371  0.2071
  166SAPE  H14X18772   3.782   7.220   7.641  2.2547 -1.5637 -2.4181
  166SAPE  H14Y18773   3.684   7.099   7.564 -0.3022  0.4874 -1.6460
  166SAPE  C31518774   3.571   7.271   7.654  0.0534 -0.1648  0.8556
  166SAPE  H15X18775   3.481   7.227   7.605  0.1820 -0.8582  1.2254
  166SAPE  H15Y18776   3.573   7.381   7.643  1.3809 -0.3367 -0.7893
  166SAPE  C31618777   3.555   7.242   7.800  0.1282 -0.1859 -0.5874
  166SAPE  H16X18778   3.559   7.131   7.802 -0.5118 -0.1974  0.6024
  166SAPE  H16Y18779   3.456   7.270   7.842  0.6931  1.6533 -0.4247
  166SAPE  C31718780   3.656   7.304   7.901  0.5690  0.4733  0.0063
  166SAPE  H17X18781   3.680   7.407   7.869  2.2184  0.2186  0.4050
  166SAPE  H17Y18782   3.751   7.249   7.882  0.6240  1.0976 -1.6636
  166SAPE  C31818783   3.616   7.285   8.048 -0.4400 -0.1687  0.4402
  166SAPE  H18X18784   3.699   7.309   8.118  0.5812  3.8377 -2.0289
  166SAPE  H18Y18785   3.583   7.180   8.068 -0.5013 -0.0476  0.9803
  166SAPE  H18Z18786   3.528   7.347   8.075  1.1214  2.1178  0.3770
  167SAPE     N18787   6.116   6.217   5.793  0.1022 -0.2824 -0.4101
  167SAPE   HN118788   6.192   6.252   5.855 -0.8601  1.0939  0.0171
  167SAPE   HN218789   6.078   6.132   5.839  0.1389  0.1962  0.5077
  167SAPE   HN318790   6.156   6.180   5.704  1.1146 -2.7481  1.0132
  167SAPE   C1218791   6.025   6.332   5.755  0.0149  1.6263 -0.0691
  167SAPE  H12A18792   5.959   6.290   5.676  0.9331  0.1383 -0.0581
  167SAPE  H12B18793   6.089   6.403   5.699  1.7069 -0.5148 -0.9086
  167SAPE   C1118794   5.945   6.393   5.877 -0.3884 -0.3297 -0.4378
  167SAPE  H11A18795   5.853   6.336   5.902 -1.7434  1.0159 -2.2558
  167SAPE  H11B18796   5.895   6.488   5.848  0.5140  0.3047  0.0502
  167SAPE     P18797   6.108   6.544   5.999  0.2331  0.4656 -0.0382
  167SAPE   O1318798   6.233   6.531   5.920  0.3265  0.2669 -0.2112
  167SAPE   O1418799   6.022   6.663   5.968  0.2569  0.2694  0.0257
  167SAPE   O1218800   6.029   6.410   5.997  0.1423  0.2444  0.8141
  167SAPE   O1118801   6.152   6.556   6.151 -0.3133 -0.4834 -0.0719
  167SAPE    C118802   6.084   6.629   6.252 -0.3147  0.7745 -0.2788
  167SAPE    HA18803   6.157   6.697   6.302  0.8517  0.8278 -2.0095
  167SAPE    HB18804   5.999   6.692   6.220 -0.9353 -0.0102 -0.1833
  167SAPE    C218805   6.013   6.539   6.365 -0.2155  0.7830 -0.2559
  167SAPE    HS18806   6.099   6.497   6.422  1.6788  3.1016 -1.3395
  167SAPE   O2118807   5.928   6.431   6.310 -0.3176 -0.6527 -0.2220
  167SAPE   C2118808   5.933   6.326   6.383  0.1303 -0.6233 -0.3630
  167SAPE   O2218809   6.020   6.297   6.463 -0.2292  0.3175 -0.2787
  167SAPE   C2218810   5.810   6.239   6.341 -0.7636 -0.0406 -0.5643
  167SAPE   H2R18811   5.718   6.301   6.337 -0.5609  0.2128 -1.3055
  167SAPE   H2S18812   5.833   6.195   6.242 -1.9685  1.8419 -1.7191
  167SAPE    C318813   5.917   6.625   6.459 -0.0295 -0.7594 -0.2526
  167SAPE    HX18814   5.865   6.559   6.531 -1.1444  1.3744  0.9560
  167SAPE    HY18815   5.841   6.656   6.384  0.7942  0.7267 -0.5021
  167SAPE   O3118816   5.981   6.742   6.517 -0.3724  0.3329  0.5759
  167SAPE   C3118817   5.902   6.832   6.578  0.0955  0.7220 -0.3217
  167SAPE   O3218818   5.776   6.829   6.573 -0.3239 -0.2073  0.0389
  167SAPE   C3218819   5.985   6.932   6.661 -0.1745  0.4564 -0.1864
  167SAPE   H2X18820   5.927   6.965   6.750  2.6280  1.2022  1.4389
  167SAPE   H2Y18821   6.008   7.026   6.606  1.8409 -0.7626 -1.4818
  167SAPE   C2318822   5.785   6.117   6.440  0.5895  0.0490 -0.0693
  167SAPE   H3R18823   5.872   6.049   6.426  1.8014  1.0459  2.4480
  167SAPE   H3S18824   5.699   6.065   6.391  0.0085  1.1367 -0.2165
  167SAPE   C2418825   5.763   6.143   6.584 -0.9277  0.5252 -1.1938
  167SAPE   H4R18826   5.843   6.208   6.627  0.6061 -0.8679 -1.8707
  167SAPE   H4S18827   5.771   6.043   6.631  1.7026  0.8525 -0.8498
  167SAPE   C2518828   5.630   6.201   6.608 -0.3087 -0.5808 -0.1816
  167SAPE   H5R18829   5.613   6.293   6.549  2.6928 -0.4418 -0.9270
  167SAPE   C2618830   5.537   6.167   6.695 -0.6896 -0.2311 -0.6373
  167SAPE   H6R18831   5.440   6.218   6.685  0.6379  2.4877 -0.3783
  167SAPE   C2718832   5.547   6.050   6.793  0.3990  0.5177  0.5214
  167SAPE   H7R18833   5.617   5.971   6.759 -0.6305 -0.7822  1.3430
  167SAPE   H7S18834   5.448   5.998   6.799  0.9501 -0.9016 -2.0987
  167SAPE   C2818835   5.595   6.097   6.924 -0.3806  1.1439  0.1003
  167SAPE   H8R18836   5.615   6.205   6.926  0.1228  1.0704 -0.9540
  167SAPE   C2918837   5.604   6.023   7.035  0.1445  0.4749  0.3378
  167SAPE   H9R18838   5.648   6.074   7.122  2.0334 -0.3942 -0.0752
  167SAPE  C21018839   5.567   5.879   7.051  0.7997 -0.5780 -0.4417
  167SAPE  H10R18840   5.658   5.822   7.081  0.6423 -1.1328 -0.9923
  167SAPE  H10S18841   5.536   5.835   6.954  2.6712 -3.2551  0.0989
  167SAPE  C21118842   5.445   5.873   7.139 -0.4379  0.1821 -0.3506
  167SAPE  H11R18843   5.353   5.876   7.079  0.1091  0.0372 -1.1984
  167SAPE  C21218844   5.427   5.884   7.273  0.0998 -0.0668  0.1829
  167SAPE  H12R18845   5.324   5.878   7.311 -0.4409 -3.2767 -1.6200
  167SAPE  C21318846   5.539   5.899   7.369 -0.5245  0.0054 -0.0331
  167SAPE  H13R18847   5.634   5.849   7.340  0.0999  1.4017 -0.4196
  167SAPE  H13S18848   5.509   5.839   7.458 -2.2774 -1.5520 -1.6324
  167SAPE  C21418849   5.556   6.053   7.402 -0.0712  1.0336  0.3544
  167SAPE  H14R18850   5.574   6.112   7.311 -1.1017 -2.5396 -2.2764
  167SAPE  C21518851   5.569   6.109   7.525  0.1511 -0.0045  0.6374
  167SAPE  H15R18852   5.564   6.218   7.540  1.0110 -0.1158  1.7925
  167SAPE  C21618853   5.553   6.032   7.661  0.2708  0.0768  0.9558
  167SAPE  H16R18854   5.536   5.922   7.656  0.9993  0.0264 -0.4642
  167SAPE  H16S18855   5.457   6.074   7.698 -1.4532 -2.8647 -0.0025
  167SAPE  C21718856   5.677   6.054   7.749 -0.0624 -0.3329  1.0068
  167SAPE  H17R18857   5.667   6.161   7.779 -0.1358  0.1115 -0.5875
  167SAPE  H17S18858   5.772   6.034   7.695  0.2683 -0.8405  1.7738
  167SAPE  C21818859   5.672   5.969   7.876  0.1375  0.2861 -0.1385
  167SAPE  H18R18860   5.696   5.863   7.851  1.7400  0.7324 -0.5783
  167SAPE  H18S18861   5.567   5.966   7.912  0.6531 -0.6015  1.3750
  167SAPE  C21918862   5.763   6.024   7.994  0.4811  0.1103  0.4342
  167SAPE  H19R18863   5.745   5.955   8.078 -1.2157 -1.1919 -0.9687
  167SAPE  H19S18864   5.717   6.116   8.036  0.3229  0.0962  0.2937
  167SAPE  C22018865   5.910   6.049   7.979 -0.3962  0.2300  0.3733
  167SAPE  H20R18866   5.954   5.952   7.949 -0.8343 -0.3913  1.7195
  167SAPE  H20S18867   5.938   6.088   8.079  0.4570  2.6208 -0.7497
  167SAPE  H20T18868   5.932   6.129   7.905 -2.2854 -0.0997 -0.5840
  167SAPE   C3318869   6.130   6.878   6.708 -0.2850  0.2266  0.5161
  167SAPE   H3X18870   6.193   6.965   6.734  1.1868 -1.1743  1.7456
  167SAPE   H3Y18871   6.192   6.815   6.640  2.0046  1.3696  1.4891
  167SAPE   C3418872   6.124   6.797   6.840 -0.1966 -0.7245 -0.2796
  167SAPE   H4X18873   6.059   6.852   6.912 -0.4009  1.5265 -2.1229
  167SAPE   H4Y18874   6.227   6.780   6.877  0.4226  0.7321 -1.3118
  167SAPE   C3518875   6.048   6.661   6.825 -0.1856 -0.2521  0.8122
  167SAPE   H5X18876   6.093   6.587   6.755 -0.0941  1.1698 -0.6629
  167SAPE   H5Y18877   5.948   6.685   6.783  0.8792 -2.5402 -3.3512
  167SAPE   C3618878   6.026   6.591   6.963 -0.3937 -0.2495 -0.0322
  167SAPE   H6X18879   5.968   6.655   7.033 -1.8560  0.7814 -2.1479
  167SAPE   H6Y18880   6.128   6.590   7.007  0.6519 -1.9021 -2.3969
  167SAPE   C3718881   5.965   6.453   6.957 -0.5442 -0.0844  0.0399
  167SAPE   H7X18882   6.009   6.406   6.866  0.0301 -0.3636  0.4556
  167SAPE   H7Y18883   5.855   6.458   6.940 -0.2307  0.3019 -2.0863
  167SAPE   C3818884   6.003   6.358   7.067  0.1391 -0.3289  0.3139
  167SAPE   H8X18885   6.113   6.354   7.084  0.0886 -0.6841  0.5591
  167SAPE   H8Y18886   5.964   6.258   7.040  2.5570 -0.9485 -0.9943
  167SAPE   C3918887   5.935   6.410   7.192  0.2802  0.0840  0.2644
  167SAPE   H9X18888   5.834   6.450   7.168 -0.4100 -0.6756  1.7769
  167SAPE   H9Y18889   5.995   6.489   7.242  0.4947 -0.4461  0.8558
  167SAPE  C31018890   5.914   6.301   7.303 -0.8192 -0.6567 -0.7022
  167SAPE  H10X18891   5.881   6.204   7.260  2.3917 -1.7398 -0.8728
  167SAPE  H10Y18892   5.837   6.338   7.374  0.7004 -0.4101  0.8800
  167SAPE  C31118893   6.039   6.273   7.384 -0.2954 -0.1482 -0.0879
  167SAPE  H11X18894   6.070   6.368   7.433 -0.2789 -0.8356  1.2349
  167SAPE  H11Y18895   6.121   6.239   7.317  0.3078  0.2306  0.4527
  167SAPE  C31218896   6.027   6.163   7.492 -0.6697 -0.0200 -0.3413
  167SAPE  H12X18897   6.041   6.061   7.451 -0.6597 -0.6031  1.0944
  167SAPE  H12Y18898   5.927   6.175   7.539  0.2747 -0.7281  1.8942
  167SAPE  C31318899   6.132   6.189   7.604 -0.6013 -0.5811 -0.4955
  167SAPE  H13X18900   6.111   6.114   7.684  4.1967 -0.9605  0.5333
  167SAPE  H13Y18901   6.133   6.295   7.639  0.8146 -1.7567  3.3439
  167SAPE  C31418902   6.274   6.167   7.557  0.2559  0.3977  0.0273
  167SAPE  H14X18903   6.312   6.229   7.473 -0.2343  2.4486  1.2944
  167SAPE  H14Y18904   6.276   6.063   7.517 -1.8770  0.6692 -0.8465
  167SAPE  C31518905   6.377   6.169   7.669 -0.6264 -0.4999 -0.2761
  167SAPE  H15X18906   6.450   6.088   7.647  0.1428 -0.4403  1.9000
  167SAPE  H15Y18907   6.333   6.133   7.765  0.0679 -1.4520 -0.3003
  167SAPE  C31618908   6.449   6.299   7.695 -0.2172  0.0923  0.0138
  167SAPE  H16X18909   6.372   6.375   7.722 -0.4576 -0.8621  2.1476
  167SAPE  H16Y18910   6.509   6.328   7.607 -0.1661 -1.0270 -0.3157
  167SAPE  C31718911   6.542   6.288   7.807  0.3037 -0.0086 -0.1997
  167SAPE  H17X18912   6.583   6.391   7.809  2.0811 -0.6952  0.6982
  167SAPE  H17Y18913   6.631   6.221   7.798  1.6357  1.5724  0.9146
  167SAPE  C31818914   6.483   6.266   7.941  0.9547  0.0062 -0.4362
  167SAPE  H18X18915   6.569   6.244   8.008 -0.5261  0.8013  1.7726
  167SAPE  H18Y18916   6.417   6.177   7.940  1.0135 -0.0401 -0.2063
  167SAPE  H18Z18917   6.431   6.356   7.979  3.7757  0.4829  2.5137
  168SAPE     N18918   6.147   0.939   6.045 -0.0592 -0.7705 -0.0025
  168SAPE   HN118919   6.145   0.876   6.128 -0.4622  3.1400  3.1416
  168SAPE   HN218920   6.189   1.026   6.085  2.0462 -1.9467  0.4104
  168SAPE   HN318921   6.051   0.963   6.016  0.0912 -0.9563 -0.6479
  168SAPE   C1218922   6.219   0.898   5.922  0.3850 -1.0273 -0.0389
  168SAPE  H12A18923   6.174   0.961   5.842  0.2202 -0.4406  0.5156
  168SAPE  H12B18924   6.183   0.796   5.897  0.9291 -0.8801 -1.4424
  168SAPE   C1118925   6.363   0.908   5.943  0.1629  0.8009 -0.5338
  168SAPE  H11A18926   6.393   1.011   5.974 -1.1186  0.4377  2.0064
  168SAPE  H11B18927   6.414   0.894   5.845  1.3669  0.8767  0.0623
  168SAPE     P18928   6.460   0.677   6.028 -0.2390  0.2316 -0.1852
  168SAPE   O1318929   6.439   0.643   5.883 -0.0735  0.3306  0.7127
  168SAPE   O1418930   6.606   0.674   6.075  0.2549 -0.2424 -0.2209
  168SAPE   O1218931   6.394   0.817   6.050 -0.3543 -1.2607 -0.3488
  168SAPE   O1118932   6.372   0.578   6.109  0.3675  0.5881  0.2110
  168SAPE    C118933   6.434   0.464   6.160 -0.0029 -0.0942 -0.1188
  168SAPE    HA18934   6.477   0.409   6.074  1.9359  0.5616  0.3864
  168SAPE    HB18935   6.520   0.495   6.223 -0.0476  0.2475 -0.2216
  168SAPE    C218936   6.329   0.371   6.226  0.2152 -0.1267  0.1246
  168SAPE    HS18937   6.251   0.342   6.153  0.8876  0.7537 -0.9635
  168SAPE   O2118938   6.271   0.434   6.340 -0.3124 -0.0612  0.4213
  168SAPE   C2118939   6.192   0.370   6.420  0.2399 -0.5880  0.0202
  168SAPE   O2218940   6.143   0.257   6.396 -0.5459 -0.0597  0.6217
  168SAPE   C2218941   6.183   0.452   6.547  0.0181  0.1048 -0.2244
  168SAPE   H2R18942   6.284   0.476   6.585  0.7258 -4.0112  0.7470
  168SAPE   H2S18943   6.130   0.548   6.526  1.6448  0.9633 -0.4634
  168SAPE    C318944   6.403   0.239   6.261 -0.5525  0.3992  0.6353
  168SAPE    HX18945   6.437   0.189   6.168 -0.7415 -0.7013  1.1447
  168SAPE    HY18946   6.331   0.162   6.297  2.8872 -3.7746 -0.9235
  168SAPE   O3118947   6.503   0.259   6.360 -0.6707 -0.0196  0.5152
  168SAPE   C3118948   6.629   0.255   6.320 -0.9977 -0.0751 -0.2498
  168SAPE   O3218949   6.664   0.240   6.203 -0.4581 -0.9943  0.1432
  168SAPE   C3218950   6.727   0.262   6.439 -0.0185 -0.2690  0.4717
  168SAPE   H2X18951   6.819   0.220   6.394 -0.7101  0.5714 -1.7985
  168SAPE   H2Y18952   6.684   0.187   6.509  3.0741 -2.3698  0.1889
  168SAPE   C2318953   6.109   0.366   6.658  0.5082 -0.3045 -0.9893
  168SAPE   H3R18954   6.135   0.258   6.661 -2.0666 -0.9234  2.2687
  168SAPE   H3S18955   6.003   0.380   6.627  0.6505  0.5681 -1.0912
  168SAPE   C2418956   6.120   0.421   6.802  0.1589  0.8683 -0.7191
  168SAPE   H4R18957   6.040   0.372   6.861  0.2516  2.5668  0.8482
  168SAPE   H4S18958   6.116   0.531   6.789  1.7936  0.6686 -3.5196
  168SAPE   C2518959   6.255   0.380   6.872  0.1654 -0.1055  0.1208
  168SAPE   H5R18960   6.345   0.397   6.811  0.9208 -0.6141  1.0727
  168SAPE   C2618961   6.257   0.330   6.994  0.3144  0.4674  0.0011
  168SAPE   H6R18962   6.358   0.318   7.036 -0.1080 -0.0184  0.9029
  168SAPE   C2718963   6.143   0.304   7.085  0.1382 -0.2217  0.3145
  168SAPE   H7R18964   6.169   0.226   7.161 -1.1794 -0.3499  0.6599
  168SAPE   H7S18965   6.052   0.263   7.035  0.3144 -0.9343  0.5630
  168SAPE   C2818966   6.113   0.436   7.160  0.0476  0.3475 -0.5117
  168SAPE   H8R18967   6.183   0.517   7.135 -2.3776  2.8949  0.6479
  168SAPE   C2918968   6.016   0.457   7.252  0.1701 -0.4593 -0.3616
  168SAPE   H9R18969   6.013   0.555   7.303 -0.2786 -0.5149 -0.2749
  168SAPE  C21018970   5.915   0.362   7.308 -0.4824 -0.0311  0.0025
  168SAPE  H10R18971   5.959   0.323   7.402  0.5610 -1.1282 -0.9104
  168SAPE  H10S18972   5.901   0.273   7.242  0.7375 -0.7633  0.7101
  168SAPE  C21118973   5.774   0.423   7.338 -0.2152 -0.0040 -0.5578
  168SAPE  H11R18974   5.746   0.499   7.263 -1.1972 -0.9212 -1.1353
  168SAPE  C21218975   5.705   0.414   7.460  0.0219 -0.1505  0.2633
  168SAPE  H12R18976   5.596   0.430   7.465 -0.2934 -2.6203  1.7876
  168SAPE  C21318977   5.751   0.340   7.580  0.6096 -0.5308 -0.5212
  168SAPE  H13R18978   5.693   0.377   7.667  0.1707 -1.2332 -0.5104
  168SAPE  H13S18979   5.856   0.370   7.601  0.1026  0.3556  0.8322
  168SAPE  C21418980   5.736   0.190   7.574 -0.1785  0.4609  0.2536
  168SAPE  H14R18981   5.825   0.133   7.542 -1.2777 -1.4305  0.4717
  168SAPE  C21518982   5.632   0.116   7.606  0.0076  0.1321 -0.0731
  168SAPE  H15R18983   5.641   0.006   7.613  0.1815  0.1414 -0.1432
  168SAPE  C21618984   5.504   0.158   7.663  0.5455 -1.1627  0.5483
  168SAPE  H16R18985   5.424   0.118   7.596 -0.3128  0.1367  0.7717
  168SAPE  H16S18986   5.498   0.269   7.666 -2.0237 -1.2002 -1.1366
  168SAPE  C21718987   5.473   0.105   7.799  0.5714 -0.5164  0.4349
  168SAPE  H17R18988   5.545   0.141   7.876 -1.3554 -1.9021  2.9428
  168SAPE  H17S18989   5.484  -0.005   7.794  1.5495 -0.4631  1.4224
  168SAPE  C21818990   5.326   0.137   7.825 -0.1229 -0.7853  0.1754
  168SAPE  H18R18991   5.264   0.066   7.767 -1.5113  0.1027  0.5456
  168SAPE  H18S18992   5.295   0.240   7.797  1.2666 -0.5441 -0.5482
  168SAPE  C21918993   5.295   0.124   7.976  0.4382  0.0890  0.2553
  168SAPE  H19R18994   5.190   0.159   7.987 -0.3413 -1.8163 -1.0099
  168SAPE  H19S18995   5.343   0.207   8.032  2.0199 -0.9556  0.4611
  168SAPE  C22018996   5.309  -0.013   8.031 -0.3445  0.0657  0.5862
  168SAPE  H20R18997   5.407  -0.064   8.019 -1.1242 -1.5945  1.1032
  168SAPE  H20S18998   5.236  -0.080   7.980 -0.7756 -0.2031  1.5401
  168SAPE  H20T18999   5.282  -0.020   8.139  0.1986  0.4242  0.7499
  168SAPE   C3319000   6.751   0.409   6.488  0.3937  0.7221  0.1709
  168SAPE   H3X19001   6.763   0.477   6.401 -0.9106  2.1022  1.0539
  168SAPE   H3Y19002   6.849   0.431   6.536 -0.2490 -0.8808  2.2937
  168SAPE   C3419003   6.644   0.442   6.586  0.3331  0.2110  0.3643
  168SAPE   H4X19004   6.645   0.378   6.676 -1.2189  1.7802  1.5218
  168SAPE   H4Y19005   6.540   0.422   6.552 -0.8115  0.8701  3.3247
  168SAPE   C3519006   6.654   0.587   6.620  0.3204  0.0511 -0.8977
  168SAPE   H5X19007   6.663   0.638   6.521 -1.3636 -0.5261 -1.3541
  168SAPE   H5Y19008   6.742   0.617   6.681 -1.0050  0.5491  0.8144
  168SAPE   C3619009   6.534   0.647   6.692  0.2886 -0.3270  0.3877
  168SAPE   H6X19010   6.443   0.616   6.638 -0.7653 -1.3395  2.7062
  168SAPE   H6Y19011   6.549   0.758   6.687  0.0712 -0.3788 -2.4826
  168SAPE   C3719012   6.524   0.617   6.844  1.1966 -0.1687  0.6676
  168SAPE   H7X19013   6.616   0.656   6.891  1.5576  0.2907 -0.3981
  168SAPE   H7Y19014   6.520   0.506   6.851 -1.3246 -0.2575 -1.3225
  168SAPE   C3819015   6.390   0.668   6.907  0.8044  0.4741 -0.4947
  168SAPE   H8X19016   6.378   0.612   7.002 -3.6658 -0.3045 -1.3640
  168SAPE   H8Y19017   6.309   0.629   6.841 -0.2587 -0.4092  1.2671
  168SAPE   C3919018   6.382   0.825   6.927  0.0472 -0.3102 -0.7139
  168SAPE   H9X19019   6.425   0.880   6.841  2.6010 -1.7055 -0.3644
  168SAPE   H9Y19020   6.451   0.844   7.011  0.4101 -0.1713 -1.0417
  168SAPE  C31019021   6.247   0.878   6.948  0.1616 -0.0528 -0.1688
  168SAPE  H10X19022   6.170   0.844   6.876 -0.4980 -1.1189  0.9991
  168SAPE  H10Y19023   6.239   0.988   6.958  0.6269 -0.1459  1.4456
  168SAPE  C31119024   6.189   0.827   7.078 -0.0475  0.5094  0.1739
  168SAPE  H11X19025   6.260   0.835   7.163 -1.0516 -1.8324  1.2681
  168SAPE  H11Y19026   6.172   0.717   7.078 -0.5513  0.5871  0.7261
  168SAPE  C31219027   6.069   0.916   7.123 -0.7313  0.6950 -0.7928
  168SAPE  H12X19028   5.991   0.926   7.044 -0.9595 -0.4410 -0.7213
  168SAPE  H12Y19029   6.113   1.015   7.146 -0.2755 -0.3366  3.0984
  168SAPE  C31319030   6.004   0.842   7.243 -0.3619 -0.7903 -0.2905
  168SAPE  H13X19031   6.087   0.818   7.312 -0.8895 -1.0492  0.2568
  168SAPE  H13Y19032   5.970   0.739   7.216 -4.1699 -0.9308  4.3393
  168SAPE  C31419033   5.892   0.904   7.316 -0.1424 -1.2768 -0.3908
  168SAPE  H14X19034   5.803   0.920   7.251  0.3451 -0.4402 -0.8682
  168SAPE  H14Y19035   5.930   1.005   7.342 -2.1649 -1.0543  1.7807
  168SAPE  C31519036   5.857   0.806   7.428  0.2303 -0.3010 -0.2663
  168SAPE  H15X19037   5.908   0.825   7.525  0.8423 -0.8263 -0.4776
  168SAPE  H15Y19038   5.904   0.707   7.408  0.4090 -0.4559  0.9029
  168SAPE  C31619039   5.705   0.787   7.441 -0.5800  0.0081  0.6397
  168SAPE  H16X19040   5.682   0.683   7.472 -0.1916 -0.4550 -0.6022
  168SAPE  H16Y19041   5.653   0.801   7.344 -0.4258  1.2696  0.7227
  168SAPE  C31719042   5.633   0.869   7.553 -0.1073  0.4403  0.2841
  168SAPE  H17X19043   5.523   0.860   7.541 -0.4518  1.1348  2.7310
  168SAPE  H17Y19044   5.655   0.978   7.549  1.0905  0.1576 -2.9379
  168SAPE  C31819045   5.668   0.830   7.697 -0.0999 -0.6373 -0.0273
  168SAPE  H18X19046   5.613   0.893   7.771  1.0183 -0.0711  0.3386
  168SAPE  H18Y19047   5.775   0.852   7.716 -0.8075  2.1904  0.9662
  168SAPE  H18Z19048   5.645   0.725   7.724  1.5326 -0.9692  0.1189
  169SAPE     N19049   0.371   2.482   5.941 -0.4285 -0.0765  0.0009
  169SAPE   HN119050   0.460   2.429   5.950  0.0249  0.1618 -2.7236
  169SAPE   HN219051   0.365   2.511   5.841 -0.8245 -0.3161 -0.0455
  169SAPE   HN319052   0.383   2.569   5.998  0.1460 -0.7914  0.9871
  169SAPE   C1219053   0.247   2.406   5.973  0.3740 -0.5557 -0.2879
  169SAPE  H12A19054   0.272   2.359   6.070 -1.1499 -2.2633 -0.6860
  169SAPE  H12B19055   0.243   2.324   5.897  1.9411  0.4083 -1.4460
  169SAPE   C1119056   0.125   2.501   5.966 -0.7626  1.1656 -0.2935
  169SAPE  H11A19057   0.040   2.431   5.984  1.6830 -1.7343  0.3665
  169SAPE  H11B19058   0.108   2.542   5.865 -1.5102  1.0768 -0.2102
  169SAPE     P19059   0.030   2.664   6.154  0.0578  0.1250 -0.0035
  169SAPE   O1319060  -0.006   2.798   6.104  0.1524  0.8568 -0.1431
  169SAPE   O1419061  -0.082   2.568   6.170 -0.3070  0.0141 -0.0341
  169SAPE   O1219062   0.141   2.609   6.064 -0.4197  0.3540  0.0051
  169SAPE   O1119063   0.100   2.689   6.296 -0.2555  0.0210  0.6136
  169SAPE    C119064   0.046   2.736   6.417  0.2777  0.1378  0.4231
  169SAPE    HA19065  -0.062   2.758   6.411 -0.0691 -2.1092 -3.0655
  169SAPE    HB19066   0.048   2.649   6.486  1.4899 -2.4790 -2.7620
  169SAPE    C219067   0.128   2.848   6.475 -0.1818  0.2786  0.3841
  169SAPE    HS19068   0.235   2.828   6.455  0.7783  2.9048  2.5983
  169SAPE   O2119069   0.102   2.857   6.617  0.2757 -0.3147 -0.3009
  169SAPE   C2119070   0.191   2.920   6.697  0.5885 -0.0217 -0.5148
  169SAPE   O2219071   0.287   2.979   6.654  0.1668 -0.3264 -0.8137
  169SAPE   C2219072   0.148   2.904   6.841  0.4077 -0.3741 -0.1052
  169SAPE   H2R19073   0.045   2.943   6.856  0.3909 -0.8413  1.0107
  169SAPE   H2S19074   0.130   2.796   6.860 -1.9651  0.1456  0.9136
  169SAPE    C319075   0.100   2.981   6.401  0.7926 -0.3875 -0.3422
  169SAPE    HX19076   0.135   2.960   6.298  2.1524  0.3156 -0.0291
  169SAPE    HY19077   0.161   3.062   6.446 -1.7787  1.2150  0.4098
  169SAPE   O3119078  -0.042   3.018   6.415 -0.2990  0.8308 -0.1618
  169SAPE   C3119079  -0.090   3.085   6.530  0.4142  0.4703 -0.6057
  169SAPE   O3219080  -0.017   3.135   6.610  1.3649 -0.2636 -0.2170
  169SAPE   C3219081  -0.242   3.102   6.528 -0.0259 -1.1795  0.2377
  169SAPE   H2X19082  -0.268   3.140   6.427 -2.5932 -0.2031  1.2315
  169SAPE   H2Y19083  -0.262   3.175   6.609  0.0993 -2.7914  1.7521
  169SAPE   C2319084   0.248   2.963   6.944  0.1596 -0.0192  0.0721
  169SAPE   H3R19085   0.195   3.012   7.029 -1.3921  0.8850 -1.3639
  169SAPE   H3S19086   0.309   3.047   6.904 -0.2627  0.3681  0.2415
  169SAPE   C2419087   0.332   2.854   7.013 -0.8695 -0.2775  0.2642
  169SAPE   H4R19088   0.249   2.800   7.064  0.1547 -0.5721  1.6408
  169SAPE   H4S19089   0.384   2.901   7.099 -4.4814  2.5506  1.0197
  169SAPE   C2519090   0.410   2.766   6.918 -0.4716  0.7628  0.1927
  169SAPE   H5R19091   0.479   2.810   6.844 -0.3643 -0.2768 -0.3293
  169SAPE   C2619092   0.388   2.636   6.907  0.5318 -0.6285 -0.8033
  169SAPE   H6R19093   0.448   2.582   6.832  1.4791 -0.7065  0.0130
  169SAPE   C2719094   0.284   2.548   6.979 -0.0516 -0.3229  0.0933
  169SAPE   H7R19095   0.201   2.535   6.907 -0.4065  0.7980  0.3029
  169SAPE   H7S19096   0.244   2.615   7.057  0.0348 -1.0513  0.7790
  169SAPE   C2819097   0.342   2.435   7.060  0.1952  0.1270  0.0474
  169SAPE   H8R19098   0.452   2.429   7.063  0.1821  0.3502  1.6017
  169SAPE   C2919099   0.264   2.346   7.131 -0.2167  0.2115  0.2170
  169SAPE   H9R19100   0.318   2.279   7.199 -0.2761  1.9985  2.0710
  169SAPE  C21019101   0.112   2.347   7.132 -0.3386 -0.5535 -0.0877
  169SAPE  H10R19102   0.073   2.324   7.030 -0.3121  0.1430 -0.2572
  169SAPE  H10S19103   0.073   2.450   7.151 -0.8381 -1.5005  4.3669
  169SAPE  C21119104   0.051   2.259   7.239  0.0314 -0.5289 -0.0532
  169SAPE  H11R19105   0.058   2.154   7.208  0.6409  0.5529 -3.8304
  169SAPE  C21219106  -0.015   2.297   7.356 -0.7796  0.1567 -0.1562
  169SAPE  H12R19107  -0.052   2.227   7.431 -0.2327  2.5221  2.3856
  169SAPE  C21319108  -0.029   2.438   7.398 -0.3213  0.2123 -0.4835
  169SAPE  H13R19109  -0.086   2.491   7.318 -1.4004 -1.1463 -0.6317
  169SAPE  H13S19110   0.069   2.490   7.401 -1.3915  2.3883 -1.6293
  169SAPE  C21419111  -0.096   2.456   7.530 -0.2291 -0.5280 -0.2107
  169SAPE  H14R19112  -0.206   2.444   7.526 -0.4047  0.6444  0.8151
  169SAPE  C21519113  -0.036   2.469   7.648 -0.1228 -0.2723 -0.3722
  169SAPE  H15R19114  -0.095   2.479   7.741 -0.3558  1.5385 -0.6892
  169SAPE  C21619115   0.112   2.474   7.669 -0.5542  0.3923 -0.7531
  169SAPE  H16R19116   0.133   2.558   7.739  0.7861  1.6868 -2.6358
  169SAPE  H16S19117   0.167   2.496   7.575 -1.3997  1.4362 -1.0143
  169SAPE  C21719118   0.169   2.350   7.738 -0.4848 -1.2711 -0.2375
  169SAPE  H17R19119   0.275   2.373   7.759  0.3256 -1.6290 -3.6002
  169SAPE  H17S19120   0.167   2.263   7.668 -0.8869 -0.9283 -0.6589
  169SAPE  C21819121   0.091   2.310   7.865  0.0931 -0.2580 -0.0378
  169SAPE  H18R19122  -0.004   2.265   7.831 -1.6244  1.3713  2.4320
  169SAPE  H18S19123   0.064   2.400   7.924 -1.4656 -0.6161 -0.1695
  169SAPE  C21919124   0.158   2.207   7.951 -0.5348 -0.7069 -0.1502
  169SAPE  H19R19125   0.256   2.242   7.991 -1.0997 -0.1338  0.7577
  169SAPE  H19S19126   0.182   2.114   7.896 -2.3001  0.2735 -2.6610
  169SAPE  C22019127   0.060   2.152   8.064 -0.1717 -0.3279 -0.5002
  169SAPE  H20R19128  -0.001   2.237   8.101 -1.3956 -0.7810 -1.4408
  169SAPE  H20S19129   0.112   2.098   8.147 -0.7128  1.3350  0.9377
  169SAPE  H20T19130  -0.011   2.076   8.025 -1.7666  1.4156 -1.0128
  169SAPE   C3319131  -0.321   2.973   6.568  0.0377  0.0014 -0.0552
  169SAPE   H3X19132  -0.298   2.941   6.671 -0.0575  0.7195  0.1964
  169SAPE   H3Y19133  -0.289   2.891   6.501  1.6521  0.8701 -0.3758
  169SAPE   C3419134  -0.472   2.983   6.565  0.3814 -0.7086 -0.5292
  169SAPE   H4X19135  -0.495   3.027   6.466 -2.9951 -0.5621  0.2638
  169SAPE   H4Y19136  -0.512   3.052   6.643 -1.4771 -0.5664 -1.5755
  169SAPE   C3519137  -0.536   2.854   6.598  0.6052  0.2995  0.5864
  169SAPE   H5X19138  -0.646   2.867   6.607  0.9009  0.8762  4.5348
  169SAPE   H5Y19139  -0.507   2.820   6.700 -2.1930  1.1895  1.7361
  169SAPE   C3619140  -0.519   2.742   6.483 -0.2278  0.1346  0.0059
  169SAPE   H6X19141  -0.408   2.736   6.475 -0.1720  0.3706  0.5697
  169SAPE   H6Y19142  -0.566   2.771   6.386 -1.6758 -2.2300 -0.0549
  169SAPE   C3719143  -0.580   2.604   6.523 -0.6178  0.0215  0.1855
  169SAPE   H7X19144  -0.579   2.544   6.429  1.4085  0.5635 -0.1727
  169SAPE   H7Y19145  -0.686   2.620   6.552 -1.2542 -0.1462 -1.9647
  169SAPE   C3819146  -0.501   2.526   6.635 -0.4691 -0.5957  0.1728
  169SAPE   H8X19147  -0.538   2.579   6.726  2.8762  1.1761  0.5526
  169SAPE   H8Y19148  -0.391   2.528   6.623 -0.3957  1.3750  1.0076
  169SAPE   C3919149  -0.549   2.383   6.632 -0.0989  0.6195  0.0859
  169SAPE   H9X19150  -0.525   2.349   6.528  0.7576  1.5265 -0.0209
  169SAPE   H9Y19151  -0.656   2.367   6.657 -0.5726  0.6791 -1.8234
  169SAPE  C31019152  -0.481   2.287   6.730 -0.2069 -0.2023  0.6111
  169SAPE  H10X19153  -0.370   2.284   6.726 -0.1856 -0.8435  1.5199
  169SAPE  H10Y19154  -0.516   2.184   6.709 -0.6830 -0.1382  1.0781
  169SAPE  C31119155  -0.528   2.312   6.877 -0.4128 -0.9087 -0.0586
  169SAPE  H11X19156  -0.638   2.299   6.878 -0.7889  2.0185 -0.6186
  169SAPE  H11Y19157  -0.511   2.418   6.906  0.2279 -1.0224 -0.0027
  169SAPE  C31219158  -0.472   2.201   6.964  0.0214 -0.4795  0.3091
  169SAPE  H12X19159  -0.364   2.177   6.954 -0.2598 -1.9468  0.6887
  169SAPE  H12Y19160  -0.531   2.110   6.940 -0.2411 -0.1665 -0.2403
  169SAPE  C31319161  -0.498   2.244   7.111 -0.7207 -0.5329  0.9069
  169SAPE  H13X19162  -0.438   2.184   7.182  1.0677  2.4645  2.0092
  169SAPE  H13Y19163  -0.605   2.253   7.138 -1.1050  1.3254 -1.0863
  169SAPE  C31419164  -0.420   2.375   7.147  0.1785 -0.0849 -0.0582
  169SAPE  H14X19165  -0.464   2.466   7.100 -0.4258 -1.8846 -3.0660
  169SAPE  H14Y19166  -0.312   2.356   7.129  0.6296  0.5948  1.8362
  169SAPE  C31519167  -0.441   2.402   7.300  0.4883 -0.4977 -0.1430
  169SAPE  H15X19168  -0.387   2.497   7.324  2.2264 -1.0538 -1.7852
  169SAPE  H15Y19169  -0.401   2.315   7.356 -0.7592 -0.5388  0.7035
  169SAPE  C31619170  -0.590   2.424   7.338  0.7259 -0.6005  0.3586
  169SAPE  H16X19171  -0.600   2.440   7.448 -1.7963 -1.5215  0.2943
  169SAPE  H16Y19172  -0.648   2.335   7.306  0.2750 -0.6118  1.1798
  169SAPE  C31719173  -0.649   2.557   7.287  0.3677  0.4908 -0.7039
  169SAPE  H17X19174  -0.662   2.552   7.177 -1.6232 -0.8339 -0.4305
  169SAPE  H17Y19175  -0.571   2.635   7.301  2.0745 -1.7343  3.1879
  169SAPE  C31819176  -0.777   2.606   7.359  0.0644  0.4572  0.0098
  169SAPE  H18X19177  -0.805   2.705   7.318 -1.8217 -0.3770 -0.7450
  169SAPE  H18Y19178  -0.777   2.612   7.470 -0.1563 -2.3139  0.1933
  169SAPE  H18Z19179  -0.865   2.547   7.327 -0.5955  0.5185  1.6220
  170SAPE     N19180   6.614   6.910   6.087  0.1425 -0.8913 -0.2147
  170SAPE   HN119181   6.523   6.858   6.086  0.0335 -0.8380  2.5159
  170SAPE   HN219182   6.659   6.884   5.997  1.3490 -3.0469  0.9675
  170SAPE   HN319183   6.666   6.855   6.159  1.1462  2.0411  1.3745
  170SAPE   C1219184   6.603   7.058   6.119 -0.3551 -0.7317  0.4046
  170SAPE  H12A19185   6.517   7.073   6.188 -0.4738  2.4417 -0.3541
  170SAPE  H12B19186   6.577   7.105   6.021  1.7300 -1.1047 -0.3412
  170SAPE   C1119187   6.734   7.123   6.177  0.9289 -0.3518 -0.1529
  170SAPE  H11A19188   6.771   7.080   6.272  1.3051  1.6256  0.6238
  170SAPE  H11B19189   6.714   7.229   6.204  1.6743 -0.6810  1.7471
  170SAPE     P19190   6.891   7.235   5.992 -0.2974 -0.4934 -0.1944
  170SAPE   O1319191   7.020   7.200   5.930 -0.0667  0.1675 -0.7974
  170SAPE   O1419192   6.785   7.273   5.902  0.2734 -0.9792 -0.5161
  170SAPE   O1219193   6.842   7.108   6.079  0.0967  0.0808 -1.0968
  170SAPE   O1119194   6.910   7.345   6.107 -0.2226 -0.8346  0.5163
  170SAPE    C119195   7.036   7.385   6.151  0.2920  0.3034 -0.2383
  170SAPE    HA19196   7.106   7.396   6.065  0.7463  0.9847  0.2112
  170SAPE    HB19197   7.028   7.483   6.202 -0.1132 -1.2478  2.7986
  170SAPE    C219198   7.104   7.287   6.252 -0.6566 -0.0877  0.6884
  170SAPE    HS19199   7.123   7.195   6.195 -2.4738 -1.1574  1.7521
  170SAPE   O2119200   7.013   7.271   6.365  0.1796 -0.1632 -0.2765
  170SAPE   C2119201   7.026   7.149   6.424 -0.1085 -0.0831 -0.1993
  170SAPE   O2219202   7.101   7.059   6.375  0.5535  0.5355  0.1631
  170SAPE   C2219203   6.943   7.139   6.554 -0.3670 -0.4070 -0.8395
  170SAPE   H2R19204   6.964   7.227   6.618 -0.4016  0.2023 -1.6597
  170SAPE   H2S19205   6.841   7.144   6.510 -1.2754  2.4484  1.4023
  170SAPE    C319206   7.238   7.343   6.304  0.1907 -0.5554  0.0731
  170SAPE    HX19207   7.297   7.389   6.222  0.4385 -0.0592  0.5216
  170SAPE    HY19208   7.306   7.258   6.327 -1.3937 -1.8290  0.0664
  170SAPE   O3119209   7.213   7.441   6.401  0.3242 -0.3182 -0.0648
  170SAPE   C3119210   7.261   7.427   6.526  0.4983 -0.6602  0.1739
  170SAPE   O3219211   7.332   7.341   6.571 -0.5060  0.0901 -0.2475
  170SAPE   C3219212   7.229   7.559   6.598 -0.2575  0.8755  0.1772
  170SAPE   H2X19213   7.171   7.625   6.530  0.3269 -0.7240 -1.9288
  170SAPE   H2Y19214   7.325   7.611   6.618 -0.7129  1.6004  0.4951
  170SAPE   C2319215   6.978   7.009   6.627  0.4909 -0.6688 -0.4583
  170SAPE   H3R19216   7.002   6.923   6.561 -1.5357 -3.3852  2.2346
  170SAPE   H3S19217   6.888   6.976   6.683 -0.1328  0.2902 -0.8864
  170SAPE   C2419218   7.093   7.023   6.727 -0.3035 -0.1972  0.1435
  170SAPE   H4R19219   7.172   7.079   6.674 -2.4822  1.6744 -1.2558
  170SAPE   H4S19220   7.139   6.923   6.743  0.8419 -0.5754 -4.9119
  170SAPE   C2519221   7.054   7.085   6.858  0.6595  0.0969  0.0557
  170SAPE   H5R19222   6.960   7.137   6.836  0.9542 -0.4635 -2.7023
  170SAPE   C2619223   7.118   7.078   6.976  0.0498  0.2642  0.3483
  170SAPE   H6R19224   7.076   7.129   7.064  0.5421  1.5568 -0.1457
  170SAPE   C2719225   7.246   7.013   7.007 -0.1488  0.2742  0.3415
  170SAPE   H7R19226   7.252   6.919   6.947 -1.0739  1.0486 -0.9992
  170SAPE   H7S19227   7.250   6.997   7.117  1.7167  0.3499  0.2957
  170SAPE   C2819228   7.365   7.088   6.959  0.7573  0.8879  0.3380
  170SAPE   H8R19229   7.340   7.172   6.893 -0.3615 -0.2166 -0.6626
  170SAPE   C2919230   7.489   7.078   7.013 -0.0238 -0.0095  0.1415
  170SAPE   H9R19231   7.561   7.151   6.972  1.1566 -0.8023  0.7913
  170SAPE  C21019232   7.532   6.992   7.127  0.7548  1.1803  0.1085
  170SAPE  H10R19233   7.464   6.907   7.150  1.8672  0.5895  1.2327
  170SAPE  H10S19234   7.533   7.057   7.216 -0.0618  2.0151 -0.4806
  170SAPE  C21119235   7.671   6.939   7.106 -0.5885  0.1723  0.6683
  170SAPE  H11R19236   7.697   6.923   7.000 -2.5266 -2.9022  0.5895
  170SAPE  C21219237   7.772   6.924   7.194 -0.4626  0.6602 -0.5004
  170SAPE  H12R19238   7.873   6.904   7.156  0.2664  0.2456  1.6023
  170SAPE  C21319239   7.758   6.957   7.339  0.3528 -0.5184 -0.5761
  170SAPE  H13R19240   7.669   7.013   7.375  1.3450  1.2873 -0.8582
  170SAPE  H13S19241   7.840   7.029   7.360 -0.3287  0.0139  0.3193
  170SAPE  C21419242   7.767   6.832   7.420 -0.7355  0.5947 -0.1994
  170SAPE  H14R19243   7.717   6.746   7.374 -0.8802  0.4233  0.2808
  170SAPE  C21519244   7.826   6.808   7.536 -1.3207  0.7634 -0.2797
  170SAPE  H15R19245   7.821   6.704   7.572 -3.7562  0.2140 -2.0770
  170SAPE  C21619246   7.908   6.914   7.615  0.3374  0.4591  0.5236
  170SAPE  H16R19247   7.840   6.995   7.649  1.7993  2.0149 -0.1950
  170SAPE  H16S19248   7.983   6.969   7.555  1.4935 -1.0746  0.5010
  170SAPE  C21719249   7.984   6.873   7.744  0.1422 -0.1586  0.4070
  170SAPE  H17R19250   7.919   6.837   7.826  0.5080 -0.7253  0.4490
  170SAPE  H17S19251   8.032   6.959   7.795 -0.9491  0.2728  0.7204
  170SAPE  C21819252   8.093   6.770   7.719  0.2251  1.0816 -0.1716
  170SAPE  H18R19253   8.150   6.796   7.627  0.9667 -1.4678 -0.4577
  170SAPE  H18S19254   8.041   6.675   7.696  1.3612  0.3316  0.3334
  170SAPE  C21919255   8.181   6.769   7.839 -0.0295 -0.4889  0.4719
  170SAPE  H19R19256   8.121   6.734   7.926  0.6308  0.9701  1.5521
  170SAPE  H19S19257   8.227   6.870   7.849  2.4530 -1.2176 -2.9053
  170SAPE  C22019258   8.298   6.680   7.836 -0.3566 -0.1326  0.8317
  170SAPE  H20R19259   8.349   6.680   7.935  0.6595  0.2347  0.3073
  170SAPE  H20S19260   8.364   6.710   7.753  0.7806 -2.1961  0.9700
  170SAPE  H20T19261   8.265   6.579   7.805 -0.4625 -0.5547  2.2502
  170SAPE   C3319262   7.164   7.546   6.740  0.1532  0.1046  0.6552
  170SAPE   H3X19263   7.168   7.641   6.796  0.4441 -0.3314  1.3735
  170SAPE   H3Y19264   7.212   7.472   6.808 -0.6171 -1.4258 -0.4265
  170SAPE   C3419265   7.016   7.522   6.726 -0.3445  0.4675 -0.0686
  170SAPE   H4X19266   6.988   7.443   6.653 -1.5178 -0.1232  1.0056
  170SAPE   H4Y19267   6.964   7.613   6.690 -2.3902 -0.4964  0.3918
  170SAPE   C3519268   6.945   7.475   6.854 -0.1298 -0.0528 -0.1421
  170SAPE   H5X19269   6.947   7.558   6.928  0.4253 -0.0545 -0.1600
  170SAPE   H5Y19270   6.996   7.385   6.895 -1.1060  0.0704  1.4089
  170SAPE   C3619271   6.798   7.429   6.823 -0.4807  0.0851  0.4273
  170SAPE   H6X19272   6.792   7.352   6.743 -2.5970 -1.3636  1.9054
  170SAPE   H6Y19273   6.746   7.519   6.783  0.2523 -0.0340 -0.8146
  170SAPE   C3719274   6.723   7.380   6.950  0.2852 -0.5589 -0.1595
  170SAPE   H7X19275   6.614   7.381   6.926 -0.2769 -2.7109  2.1580
  170SAPE   H7Y19276   6.741   7.449   7.035  0.1188 -0.6597 -0.0418
  170SAPE   C3819277   6.758   7.242   7.006  0.1027  0.9853 -0.2102
  170SAPE   H8X19278   6.863   7.235   7.041 -0.2788 -0.0111  0.7832
  170SAPE   H8Y19279   6.757   7.160   6.931  0.0960 -0.2011  1.0466
  170SAPE   C3919280   6.654   7.196   7.110  0.0428  0.0266 -0.9006
  170SAPE   H9X19281   6.559   7.196   7.053 -0.8812 -1.1397  0.5874
  170SAPE   H9Y19282   6.658   7.274   7.189 -0.8136  0.4545 -1.2716
  170SAPE  C31019283   6.681   7.055   7.157  0.2538  0.0064 -0.3345
  170SAPE  H10X19284   6.784   7.052   7.199 -0.3055 -3.3742  0.9882
  170SAPE  H10Y19285   6.670   6.987   7.069  1.1810  1.8814 -1.9536
  170SAPE  C31119286   6.576   7.008   7.260  0.2329  0.4418  0.2321
  170SAPE  H11X19287   6.595   6.901   7.281 -0.9433 -0.3226 -2.3806
  170SAPE  H11Y19288   6.471   7.017   7.225  0.3521 -0.5264 -0.3828
  170SAPE  C31219289   6.576   7.087   7.393  0.1680 -0.1253 -0.2724
  170SAPE  H12X19290   6.576   7.196   7.375 -2.8852  0.0938  0.7807
  170SAPE  H12Y19291   6.670   7.060   7.446 -0.0798  1.1037  0.8157
  170SAPE  C31319292   6.462   7.043   7.485 -0.0017 -0.0307 -0.7636
  170SAPE  H13X19293   6.490   6.935   7.495  0.9508  0.2418 -0.4413
  170SAPE  H13Y19294   6.373   7.057   7.420  0.4827  0.1372 -1.3968
  170SAPE  C31419295   6.458   7.120   7.615  0.1650 -0.1197  0.1486
  170SAPE  H14X19296   6.388   7.070   7.686 -1.3734  2.3496  0.4642
  170SAPE  H14Y19297   6.406   7.218   7.606  0.3434  0.0293  0.7415
  170SAPE  C31519298   6.589   7.150   7.690 -0.4802  0.3518 -0.2842
  170SAPE  H15X19299   6.567   7.218   7.775 -1.7718 -0.4709  0.0722
  170SAPE  H15Y19300   6.664   7.205   7.629 -1.0210  2.0610  0.5825
  170SAPE  C31619301   6.655   7.023   7.758  0.2006 -0.4525  0.0968
  170SAPE  H16X19302   6.671   6.948   7.678  0.5683 -0.8521  0.5383
  170SAPE  H16Y19303   6.580   6.979   7.827  0.3569 -2.4412 -0.9766
  170SAPE  C31719304   6.771   7.055   7.851 -0.3904  0.4522  0.2268
  170SAPE  H17X19305   6.788   6.969   7.919  0.2855  1.2995  1.1346
  170SAPE  H17Y19306   6.744   7.137   7.920 -0.0821 -0.5469  1.5474
  170SAPE  C31819307   6.902   7.079   7.779 -0.1753  0.1515  0.1658
  170SAPE  H18X19308   6.889   7.166   7.712 -0.1571 -1.4652 -2.0101
  170SAPE  H18Y19309   6.933   6.993   7.716 -0.9694 -1.4503  1.8986
  170SAPE  H18Z19310   6.991   7.095   7.844  1.6277  0.0670 -2.1784
  171SAPE     N19311   1.046   0.753   5.962  0.0876  0.0254  0.1991
  171SAPE   HN119312   1.075   0.853   5.967  1.1208 -0.3778  3.4591
  171SAPE   HN219313   0.989   0.721   6.043  0.2699  0.3849  0.4678
  171SAPE   HN319314   1.132   0.696   5.950  0.1606  0.0836  0.4566
  171SAPE   C1219315   0.946   0.725   5.846  0.6104  0.1203  0.1405
  171SAPE  H12A19316   0.923   0.616   5.845  2.9393 -0.4012 -2.1040
  171SAPE  H12B19317   0.983   0.769   5.750 -0.4385  0.9749  0.1120
  171SAPE   C1119318   0.813   0.792   5.883 -0.1931  0.3014  0.2499
  171SAPE  H11A19319   0.738   0.748   5.814 -1.8270  0.4581  1.8796
  171SAPE  H11B19320   0.803   0.902   5.871  1.0116  0.3558 -0.2688
  171SAPE     P19321   0.623   0.753   6.060 -0.0128  0.3522  0.0632
  171SAPE   O1319322   0.555   0.882   6.050 -0.3729 -0.2514 -0.1901
  171SAPE   O1419323   0.552   0.642   5.986 -0.1639  0.0024 -0.4792
  171SAPE   O1219324   0.780   0.754   6.014  0.2883  0.3995  0.0479
  171SAPE   O1119325   0.638   0.714   6.214  0.7054 -0.3426 -0.0605
  171SAPE    C119326   0.671   0.828   6.294  0.0756  0.0565 -0.0430
  171SAPE    HA19327   0.738   0.798   6.377  1.8119 -0.2601 -1.5225
  171SAPE    HB19328   0.739   0.905   6.252  0.4296 -1.2898 -1.9769
  171SAPE    C219329   0.547   0.876   6.366 -0.2036 -0.1024  0.0026
  171SAPE    HS19330   0.476   0.905   6.285 -0.6198 -0.9183  0.0701
  171SAPE   O2119331   0.574   0.987   6.452 -0.3880  0.3051 -0.4036
  171SAPE   C2119332   0.479   1.080   6.475 -0.0088 -0.2383  0.2717
  171SAPE   O2219333   0.363   1.069   6.442 -0.4788 -0.8255  0.2763
  171SAPE   C2219334   0.531   1.183   6.566 -0.7197  0.1296  0.1726
  171SAPE   H2R19335   0.567   1.125   6.654  0.4960 -0.3347 -0.6029
  171SAPE   H2S19336   0.617   1.245   6.533 -0.0353 -0.9281 -0.0648
  171SAPE    C319337   0.474   0.770   6.450  0.7575  0.3388 -0.5119
  171SAPE    HX19338   0.468   0.678   6.387  1.1398  1.8762 -2.8504
  171SAPE    HY19339   0.376   0.814   6.478  0.7295  1.3686 -2.1857
  171SAPE   O3119340   0.556   0.727   6.560 -0.0592 -0.3392  0.2022
  171SAPE   C3119341   0.539   0.794   6.674 -0.1214 -0.4969  0.0264
  171SAPE   O3219342   0.444   0.858   6.711 -0.1408  0.3654  0.0928
  171SAPE   C3219343   0.655   0.753   6.773 -0.0979  0.2015  0.4717
  171SAPE   H2X19344   0.741   0.813   6.735 -0.6875 -0.0332 -1.2304
  171SAPE   H2Y19345   0.680   0.645   6.765 -1.0213 -0.0028  0.2995
  171SAPE   C2319346   0.420   1.272   6.638  0.4981  0.1319 -0.7511
  171SAPE   H3R19347   0.342   1.204   6.680 -0.4033  0.2643 -2.1605
  171SAPE   H3S19348   0.372   1.347   6.571  2.7656  2.2658 -0.0722
  171SAPE   C2419349   0.477   1.350   6.758  0.5736  0.9722 -0.5150
  171SAPE   H4R19350   0.417   1.436   6.795 -0.9479  0.4919 -1.7880
  171SAPE   H4S19351   0.577   1.388   6.728 -0.1651  2.7378 -0.8120
  171SAPE   C2519352   0.490   1.263   6.883  0.2092 -0.7713  0.2471
  171SAPE   H5R19353   0.477   1.155   6.865 -1.7179 -0.4306 -0.5510
  171SAPE   C2619354   0.515   1.302   7.008  0.5856 -0.0753 -0.7024
  171SAPE   H6R19355   0.503   1.227   7.088  0.5734  1.5968  0.9142
  171SAPE   C2719356   0.530   1.444   7.057  0.0314 -0.4427  0.1512
  171SAPE   H7R19357   0.456   1.451   7.140  0.2870  0.3570  0.3108
  171SAPE   H7S19358   0.486   1.514   6.983 -0.9939 -2.3182 -1.0732
  171SAPE   C2819359   0.661   1.484   7.114  0.3251 -0.0810  0.6801
  171SAPE   H8R19360   0.730   1.527   7.040 -0.4632 -2.1864 -1.3515
  171SAPE   C2919361   0.699   1.483   7.240  0.1743  0.1626 -0.1757
  171SAPE   H9R19362   0.804   1.512   7.257  0.4122 -1.1745  0.7490
  171SAPE  C21019363   0.618   1.440   7.361 -0.0678  0.5694 -0.3186
  171SAPE  H10R19364   0.687   1.361   7.398  0.4670  0.3265 -1.7876
  171SAPE  H10S19365   0.527   1.387   7.325 -0.3991  0.9059  0.0221
  171SAPE  C21119366   0.567   1.545   7.461  0.7805  0.9261  0.4193
  171SAPE  H11R19367   0.551   1.646   7.421 -0.4918  1.1566  1.4722
  171SAPE  C21219368   0.531   1.510   7.585 -0.0297  0.0406  0.1028
  171SAPE  H12R19369   0.502   1.586   7.659  2.6762  1.2209  0.0345
  171SAPE  C21319370   0.530   1.367   7.635  0.0871  0.0623  0.0011
  171SAPE  H13R19371   0.623   1.317   7.601  0.1949  0.3991 -0.1940
  171SAPE  H13S19372   0.450   1.316   7.577 -0.1133  0.6638 -0.2483
  171SAPE  C21419373   0.516   1.352   7.785 -0.7613 -0.1783  0.1983
  171SAPE  H14R19374   0.616   1.359   7.828 -0.3346  2.2188 -1.0892
  171SAPE  C21519375   0.410   1.357   7.866  0.3413 -0.4732 -0.1092
  171SAPE  H15R19376   0.417   1.350   7.976 -0.4143  0.7780  0.0214
  171SAPE  C21619377   0.269   1.388   7.828  0.3456  0.2226 -0.0090
  171SAPE  H16R19378   0.269   1.425   7.723  1.0347 -0.6529 -0.3170
  171SAPE  H16S19379   0.243   1.484   7.878  1.9006  0.1267  1.0422
  171SAPE  C21719380   0.162   1.274   7.852 -0.5843  0.3623  1.0452
  171SAPE  H17R19381   0.172   1.251   7.961  0.9889 -1.5666  0.5264
  171SAPE  H17S19382   0.194   1.184   7.795 -1.6170  0.3240  0.5147
  171SAPE  C21819383   0.024   1.314   7.817  0.6128  0.3467 -0.5957
  171SAPE  H18R19384   0.030   1.355   7.714 -1.5546  2.7914  0.1832
  171SAPE  H18S19385  -0.009   1.396   7.884 -0.6292 -1.9818  1.7004
  171SAPE  C21919386  -0.080   1.201   7.834  0.0616  0.3320 -0.4851
  171SAPE  H19R19387  -0.174   1.247   7.869 -1.4886 -1.7784 -1.7794
  171SAPE  H19S19388  -0.050   1.135   7.918  0.6040 -1.3270 -1.9484
  171SAPE  C22019389  -0.102   1.123   7.700 -0.7073 -0.5581  0.3514
  171SAPE  H20R19390  -0.146   1.185   7.619  1.4977 -1.7388 -1.8178
  171SAPE  H20S19391  -0.168   1.036   7.716 -0.3985 -0.2844  3.4153
  171SAPE  H20T19392  -0.005   1.080   7.666 -0.1974  0.3297  0.6642
  171SAPE   C3319393   0.614   0.788   6.916  0.0662  0.9313 -0.4746
  171SAPE   H3X19394   0.507   0.763   6.936  0.1541  0.4749 -0.5700
  171SAPE   H3Y19395   0.615   0.895   6.944 -0.3229  0.4917  1.3029
  171SAPE   C3419396   0.687   0.710   7.025 -0.3195 -0.1407 -0.3188
  171SAPE   H4X19397   0.794   0.736   7.010 -0.1407 -1.0455 -0.6485
  171SAPE   H4Y19398   0.685   0.599   7.017  0.4685 -0.2639  0.9725
  171SAPE   C3519399   0.640   0.751   7.170 -0.8620  0.6693  0.4483
  171SAPE   H5X19400   0.531   0.738   7.185 -0.7285  0.4205  1.2214
  171SAPE   H5Y19401   0.659   0.859   7.189 -2.5732  0.8129  1.4066
  171SAPE   C3619402   0.712   0.672   7.278 -0.6537 -0.1397 -0.6245
  171SAPE   H6X19403   0.691   0.699   7.383 -0.1216 -0.0691 -0.5336
  171SAPE   H6Y19404   0.822   0.679   7.263 -0.0261 -2.7807  2.1897
  171SAPE   C3719405   0.692   0.522   7.290 -0.6309 -0.1974  0.1722
  171SAPE   H7X19406   0.735   0.468   7.203 -2.4786 -2.7732  0.8149
  171SAPE   H7Y19407   0.582   0.509   7.295 -1.1161  1.9784 -3.1222
  171SAPE   C3819408   0.760   0.462   7.416  0.0198 -0.9358  1.0378
  171SAPE   H8X19409   0.711   0.494   7.511 -3.9191  1.0621 -1.5272
  171SAPE   H8Y19410   0.866   0.496   7.415 -0.1900 -0.2367 -1.9966
  171SAPE   C3919411   0.753   0.305   7.421 -0.3958 -0.1432  0.0819
  171SAPE   H9X19412   0.810   0.257   7.338  1.3195  1.7246  0.1694
  171SAPE   H9Y19413   0.646   0.275   7.411 -0.1875 -0.2394 -2.1510
  171SAPE  C31019414   0.793   0.243   7.555 -0.1002  0.9041 -0.0512
  171SAPE  H10X19415   0.734   0.285   7.639 -0.9768  1.6329 -1.0244
  171SAPE  H10Y19416   0.899   0.268   7.579  0.3701 -0.9325 -0.0899
  171SAPE  C31119417   0.767   0.091   7.566 -0.1677  0.4927 -0.0941
  171SAPE  H11X19418   0.825   0.044   7.484 -0.6792  1.6555 -1.1454
  171SAPE  H11Y19419   0.666   0.063   7.529  0.3943  0.2691 -1.5072
  171SAPE  C31219420   0.782   0.016   7.699 -0.2248  0.5648 -0.2375
  171SAPE  H12X19421   0.889   0.031   7.725  0.3364 -1.7259 -1.1704
  171SAPE  H12Y19422   0.770  -0.093   7.685  0.5429  0.2772  1.2605
  171SAPE  C31319423   0.703   0.065   7.820 -0.1880 -0.7516 -0.5866
  171SAPE  H13X19424   0.745   0.165   7.841  1.3554 -1.7812  1.5287
  171SAPE  H13Y19425   0.726   0.008   7.913 -2.7182 -0.4902  0.2441
  171SAPE  C31419426   0.551   0.073   7.798  0.5660 -0.6887 -0.1437
  171SAPE  H14X19427   0.525   0.149   7.721 -0.2377 -0.7467  0.0643
  171SAPE  H14Y19428   0.514   0.100   7.899  4.1831  1.9379  0.5928
  171SAPE  C31519429   0.506  -0.065   7.758 -0.0764  0.5396 -0.1741
  171SAPE  H15X19430   0.565  -0.135   7.821  0.7644  0.9577 -0.4893
  171SAPE  H15Y19431   0.522  -0.086   7.650 -2.4592 -0.5978 -0.3410
  171SAPE  C31619432   0.351  -0.079   7.794 -0.2250  0.1499  0.0748
  171SAPE  H16X19433   0.291  -0.002   7.742  0.4376  0.4014 -0.3186
  171SAPE  H16Y19434   0.330  -0.068   7.903 -0.5911 -1.2006  0.1576
  171SAPE  C31719435   0.298  -0.215   7.758  0.6684  0.0253 -0.2713
  171SAPE  H17X19436   0.367  -0.292   7.799  0.7272  0.9233  1.3359
  171SAPE  H17Y19437   0.312  -0.227   7.648  0.8962  1.5144 -0.4064
  171SAPE  C31819438   0.149  -0.235   7.802  0.1261  0.1560 -0.1741
  171SAPE  H18X19439   0.082  -0.154   7.766 -2.3019 -1.0944  1.4045
  171SAPE  H18Y19440   0.148  -0.227   7.912 -1.3303  1.2289 -0.2482
  171SAPE  H18Z19441   0.107  -0.336   7.786 -1.2581  0.8646 -1.1102
  172SAPE     N19442   7.221   7.082   5.784  0.7314  0.4736 -0.1951
  172SAPE   HN119443   7.181   7.082   5.688  2.4886  1.2686 -0.9329
  172SAPE   HN219444   7.233   6.984   5.816 -1.8523 -0.0093 -0.5821
  172SAPE   HN319445   7.162   7.136   5.850 -0.1235  3.1006 -2.9791
  172SAPE   C1219446   7.348   7.153   5.784 -0.0990  0.2088  0.1613
  172SAPE  H12A19447   7.342   7.246   5.724  0.7349 -0.7693 -1.4775
  172SAPE  H12B19448   7.424   7.086   5.739  0.1318  0.5275  0.0758
  172SAPE   C1119449   7.373   7.198   5.926 -0.0735 -0.1418 -0.3982
  172SAPE  H11A19450   7.290   7.265   5.959 -0.5939  0.4234 -2.6902
  172SAPE  H11B19451   7.461   7.266   5.928 -1.6304  1.8999  2.2310
  172SAPE     P19452   7.499   7.020   6.060  0.4483  0.0147 -0.1054
  172SAPE   O1319453   7.515   6.930   5.948  0.3780  0.2158 -0.1389
  172SAPE   O1419454   7.608   7.123   6.089 -0.3474 -0.0192 -1.2049
  172SAPE   O1219455   7.369   7.092   6.023 -0.1737 -0.0876 -0.0129
  172SAPE   O1119456   7.459   6.926   6.180 -0.4073  0.1676 -0.3639
  172SAPE    C119457   7.435   6.971   6.311 -0.0597  0.0239 -0.4915
  172SAPE    HA19458   7.391   7.074   6.308  1.5839  0.9466  3.6714
  172SAPE    HB19459   7.367   6.897   6.357  2.1020 -0.4423  2.0558
  172SAPE    C219460   7.562   6.972   6.395  0.2143 -0.2821  0.3124
  172SAPE    HS19461   7.632   7.039   6.341  0.9159 -1.5495 -0.3771
  172SAPE   O2119462   7.615   6.840   6.413  1.2503 -0.8705 -0.7878
  172SAPE   C2119463   7.725   6.798   6.353 -0.4496 -0.4423 -0.5241
  172SAPE   O2219464   7.786   6.846   6.264  0.3374 -0.7345 -0.4594
  172SAPE   C2219465   7.767   6.673   6.437 -0.0738  0.1135 -0.0939
  172SAPE   H2R19466   7.758   6.695   6.546  2.1378 -0.4753  0.2455
  172SAPE   H2S19467   7.691   6.593   6.426  0.1283 -0.0608 -0.2377
  172SAPE    C319468   7.552   7.030   6.537  0.2198  0.0487  0.2335
  172SAPE    HX19469   7.510   7.132   6.521 -0.1295 -0.2648 -0.8470
  172SAPE    HY19470   7.653   7.056   6.576  0.2836 -1.9568  1.4393
  172SAPE   O3119471   7.473   6.953   6.628  0.4754  0.0746 -0.7665
  172SAPE   C3119472   7.541   6.863   6.697 -0.3925 -0.8238  0.4680
  172SAPE   O3219473   7.662   6.858   6.702  0.2316 -0.2524 -0.4665
  172SAPE   C3219474   7.438   6.782   6.769  0.1729 -0.2619 -0.8491
  172SAPE   H2X19475   7.342   6.796   6.715  0.8208  0.5799 -1.7959
  172SAPE   H2Y19476   7.421   6.830   6.867 -2.1011 -1.2762 -0.7035
  172SAPE   C2319477   7.897   6.594   6.415 -1.1538 -0.0499 -0.0339
  172SAPE   H3R19478   7.915   6.585   6.306  2.3896  0.6989  0.4154
  172SAPE   H3S19479   7.882   6.497   6.468  2.6310 -0.7162  0.0101
  172SAPE   C2419480   8.025   6.667   6.481 -0.1310 -0.1035 -0.3106
  172SAPE   H4R19481   8.105   6.590   6.472  0.1309  0.3533 -2.0556
  172SAPE   H4S19482   8.001   6.691   6.587  0.8959  3.1983 -0.7467
  172SAPE   C2519483   8.068   6.791   6.412 -0.3154 -0.3351 -0.3467
  172SAPE   H5R19484   8.129   6.767   6.323 -0.0215 -0.6921 -0.0500
  172SAPE   C2619485   8.050   6.920   6.448  1.0781  0.0359 -0.0323
  172SAPE   H6R19486   8.098   6.994   6.383  0.7047  1.6332  1.4794
  172SAPE   C2719487   7.969   6.969   6.567  0.8928 -0.1665 -0.2208
  172SAPE   H7R19488   7.922   6.885   6.622 -0.3213  0.3521 -0.4614
  172SAPE   H7S19489   7.890   7.038   6.532  1.3132  1.6676  2.2928
  172SAPE   C2819490   8.052   7.048   6.661  0.4112 -0.4422  0.4767
  172SAPE   H8R19491   8.045   7.154   6.635  2.2031 -0.8347 -1.7759
  172SAPE   C2919492   8.132   7.002   6.758  0.1665  0.4206 -0.1241
  172SAPE   H9R19493   8.186   7.076   6.818  1.2334 -0.4058 -0.0581
  172SAPE  C21019494   8.141   6.856   6.791  0.2143  0.0514  0.3110
  172SAPE  H10R19495   8.218   6.807   6.728 -1.1655 -1.9116  0.0837
  172SAPE  H10S19496   8.061   6.798   6.740 -0.5681 -0.4083  2.0463
  172SAPE  C21119497   8.128   6.834   6.942  0.2139 -0.4859 -0.0487
  172SAPE  H11R19498   8.139   6.927   6.999 -1.1335 -0.6047  0.4306
  172SAPE  C21219499   8.094   6.722   7.006 -1.1336  0.6553  0.0514
  172SAPE  H12R19500   8.090   6.727   7.116  0.3842  1.1104  0.0957
  172SAPE  C21319501   8.049   6.590   6.951  0.3667 -0.3519  0.3799
  172SAPE  H13R19502   8.089   6.507   7.013  0.0458  1.2142  2.6943
  172SAPE  H13S19503   8.086   6.571   6.848 -0.9059 -1.3844  0.0934
  172SAPE  C21419504   7.899   6.576   6.932  0.3994 -0.1706 -0.4963
  172SAPE  H14R19505   7.848   6.670   6.909 -1.1006 -0.3710  1.8524
  172SAPE  C21519506   7.838   6.455   6.921 -0.7111 -0.9482  0.2642
  172SAPE  H15R19507   7.737   6.455   6.879 -1.7986 -0.0452  2.7483
  172SAPE  C21619508   7.904   6.323   6.928  0.7109  0.5740 -0.3586
  172SAPE  H16R19509   8.009   6.320   6.892  0.8314 -3.3759  0.0871
  172SAPE  H16S19510   7.856   6.263   6.847 -1.7782  1.3974  0.4724
  172SAPE  C21719511   7.906   6.245   7.059  0.2565 -0.0622  0.0009
  172SAPE  H17R19512   7.975   6.293   7.132 -0.2321 -0.3834  0.6852
  172SAPE  H17S19513   7.951   6.145   7.043 -0.0922 -0.3647  0.8536
  172SAPE  C21819514   7.770   6.237   7.120 -0.3547 -0.4734 -0.2061
  172SAPE  H18R19515   7.730   6.340   7.130  1.9610  0.3689  0.7433
  172SAPE  H18S19516   7.767   6.195   7.223 -0.8896 -1.6870 -0.6988
  172SAPE  C21919517   7.671   6.154   7.030 -0.0505  0.5960 -0.2765
  172SAPE  H19R19518   7.716   6.055   7.004 -2.4851 -0.9305  1.1180
  172SAPE  H19S19519   7.655   6.206   6.933 -0.1564 -0.8868 -1.0718
  172SAPE  C22019520   7.540   6.113   7.095  0.3873  0.2632  0.3452
  172SAPE  H20R19521   7.485   6.047   7.025  0.1867  1.8653 -1.0397
  172SAPE  H20S19522   7.474   6.199   7.120 -0.7139 -0.7044  0.7635
  172SAPE  H20T19523   7.559   6.046   7.181 -2.1960  2.7352  2.9510
  172SAPE   C3319524   7.504   6.638   6.781  0.5409  0.3347 -0.5411
  172SAPE   H3X19525   7.610   6.646   6.813  0.5706 -0.3780 -0.4549
  172SAPE   H3Y19526   7.489   6.585   6.684 -1.7234  2.5142 -1.4260
  172SAPE   C3419527   7.445   6.556   6.896  0.2375  0.2075 -0.2861
  172SAPE   H4X19528   7.492   6.456   6.901  0.6775  0.4768  1.1215
  172SAPE   H4Y19529   7.342   6.530   6.865  1.3457 -2.7010 -1.7063
  172SAPE   C3519530   7.439   6.624   7.029  0.2039  0.1633  0.8147
  172SAPE   H5X19531   7.374   6.714   7.029  0.3694  0.2836  0.4448
  172SAPE   H5Y19532   7.536   6.675   7.047 -0.5037  2.1114 -0.6866
  172SAPE   C3619533   7.421   6.529   7.155 -0.4471  0.6961  0.1899
  172SAPE   H6X19534   7.500   6.454   7.135 -2.6421 -2.0907  1.6278
  172SAPE   H6Y19535   7.329   6.467   7.155  2.3184 -3.6437 -2.1686
  172SAPE   C3719536   7.450   6.579   7.299  0.3236 -0.0859 -0.7112
  172SAPE   H7X19537   7.542   6.641   7.293  0.5424 -0.4400 -1.0639
  172SAPE   H7Y19538   7.470   6.494   7.368 -0.3434 -0.7909 -1.3834
  172SAPE   C3819539   7.336   6.668   7.361 -0.3669  0.3365  0.3772
  172SAPE   H8X19540   7.252   6.602   7.393  3.1983 -3.5130  2.3315
  172SAPE   H8Y19541   7.302   6.738   7.282 -0.7585 -1.7799 -1.3698
  172SAPE   C3919542   7.383   6.743   7.488  1.1532  0.3848 -0.2187
  172SAPE   H9X19543   7.476   6.800   7.465  2.1966 -0.5786  1.5083
  172SAPE   H9Y19544   7.404   6.667   7.566 -2.2294  1.3282  1.6695
  172SAPE  C31019545   7.284   6.845   7.534  0.5778 -0.7684 -0.1221
  172SAPE  H10X19546   7.319   6.885   7.631 -1.3621 -0.7571  0.5992
  172SAPE  H10Y19547   7.192   6.789   7.562  0.8218 -0.2770  1.7276
  172SAPE  C31119548   7.261   6.961   7.435  0.4012 -0.5629  0.1023
  172SAPE  H11X19549   7.190   6.925   7.358 -0.6508  0.3233  0.6533
  172SAPE  H11Y19550   7.355   6.974   7.378  1.2784 -0.6454  1.4948
  172SAPE  C31219551   7.198   7.083   7.503 -0.1947 -0.2124  0.2338
  172SAPE  H12X19552   7.258   7.125   7.587 -2.6570 -0.9156  2.4494
  172SAPE  H12Y19553   7.096   7.061   7.541  0.0958  1.7052  2.2831
  172SAPE  C31319554   7.167   7.204   7.399 -0.2105  0.5477 -0.0113
  172SAPE  H13X19555   7.103   7.167   7.317 -0.3432 -2.2498  1.2928
  172SAPE  H13Y19556   7.266   7.233   7.357  0.7427 -0.3354  1.5717
  172SAPE  C31419557   7.107   7.326   7.471 -0.8183  0.6062  0.1957
  172SAPE  H14X19558   7.189   7.365   7.535  1.5094 -4.5151  0.5751
  172SAPE  H14Y19559   7.029   7.302   7.546 -0.3000 -0.6650  0.3378
  172SAPE  C31519560   7.074   7.438   7.368 -0.1471  0.3098  0.0750
  172SAPE  H15X19561   7.058   7.526   7.434 -1.4099  0.6634 -0.6820
  172SAPE  H15Y19562   6.975   7.406   7.328  0.3793 -1.7759  0.3445
  172SAPE  C31619563   7.187   7.471   7.271 -0.1321 -0.0663  0.4823
  172SAPE  H16X19564   7.180   7.398   7.187 -1.4811  2.8847 -2.0562
  172SAPE  H16Y19565   7.289   7.468   7.314 -0.3415 -2.2200  0.8775
  172SAPE  C31719566   7.185   7.612   7.195  0.1357  0.2731 -0.7979
  172SAPE  H17X19567   7.087   7.613   7.143  0.0644  0.2509 -0.6639
  172SAPE  H17Y19568   7.263   7.619   7.117 -2.8509 -2.3507 -4.1946
  172SAPE  C31819569   7.166   7.733   7.287 -0.1134 -0.5666 -0.0241
  172SAPE  H18X19570   7.069   7.713   7.336  0.5451 -1.7600  0.8182
  172SAPE  H18Y19571   7.166   7.831   7.234  4.0004 -0.5494 -0.1803
  172SAPE  H18Z19572   7.252   7.741   7.357 -2.2376  0.1327  2.5685
  173SOPE     N19573   3.495   4.804  10.193  0.1401 -0.5435 -0.1585
  173SOPE   HN119574   3.576   4.746  10.162  1.2248  1.9732 -2.2236
  173SOPE   HN219575   3.412   4.748  10.221  0.0090 -0.5915 -0.6413
  173SOPE   HN319576   3.471   4.864  10.112 -0.9178 -0.4595  0.2080
  173SOPE   C1219577   3.524   4.898  10.305 -0.0905 -0.7169  0.4357
  173SOPE  H12A19578   3.627   4.938  10.289  0.6700 -2.4344  0.8904
  173SOPE  H12B19579   3.532   4.840  10.399 -0.1690 -1.3026  0.0877
  173SOPE   C1119580   3.428   5.013  10.313  0.9105 -0.1067  0.6950
  173SOPE  H11A19581   3.473   5.094  10.374  0.7142 -0.9276  1.9376
  173SOPE  H11B19582   3.342   4.961  10.360  0.3207  0.2891  0.0676
  173SOPE     P19583   3.412   5.205  10.145 -0.0984 -0.3433  0.3997
  173SOPE   O1319584   3.326   5.289  10.229  0.4041  0.1475  0.0587
  173SOPE   O1419585   3.396   5.217  10.000  0.1532  0.4032  0.3156
  173SOPE   O1219586   3.394   5.052  10.185 -0.6877  0.0882 -0.6935
  173SOPE   O1119587   3.563   5.231  10.179 -0.5140 -0.1822 -0.5543
  173SOPE    C119588   3.639   5.342  10.134  0.0306 -0.2157 -0.2336
  173SOPE    HA19589   3.686   5.381  10.227 -0.0523 -2.3980  0.7576
  173SOPE    HB19590   3.581   5.423  10.085 -1.3840  0.0181  1.7256
  173SOPE    C219591   3.751   5.284  10.040 -0.7300 -0.2063 -0.2603
  173SOPE    HS19592   3.822   5.367  10.019  2.7641 -2.9714  0.1697
  173SOPE   O2119593   3.698   5.234   9.914  0.0940  0.0556 -0.5507
  173SOPE   C2119594   3.639   5.308   9.831 -0.6558  0.2021 -0.5252
  173SOPE   O2219595   3.638   5.429   9.827 -0.4566  1.0537 -0.7190
  173SOPE   C2219596   3.575   5.217   9.726 -0.3820 -0.3121 -0.6725
  173SOPE   H2R19597   3.466   5.230   9.746 -0.4846 -0.0296 -1.3848
  173SOPE   H2S19598   3.601   5.111   9.746  3.7448  1.1996  2.9620
  173SOPE    C319599   3.841   5.173  10.099  0.0787 -0.3064  0.1195
  173SOPE    HX19600   3.779   5.088  10.135 -0.5659 -0.0464 -0.3643
  173SOPE    HY19601   3.898   5.219  10.182  0.2710  0.1294 -0.2539
  173SOPE   O3119602   3.940   5.126  10.003  0.1427 -0.1400  0.1102
  173SOPE   C3119603   3.901   5.028   9.918  0.5294 -0.3487 -0.9025
  173SOPE   O3219604   3.797   4.962   9.930  0.1949  0.1960 -0.2834
  173SOPE   C3219605   4.016   5.013   9.819 -0.3202 -0.0534 -0.1045
  173SOPE   H2X19606   4.108   4.990   9.876 -0.5940 -2.7931 -0.6979
  173SOPE   H2Y19607   4.034   5.097   9.749  0.4258 -0.7795 -0.8044
  173SOPE   C2319608   3.608   5.244   9.581 -0.8391 -0.2725 -0.9029
  173SOPE   H3R19609   3.717   5.249   9.564 -1.0360 -1.1660 -2.5296
  173SOPE   H3S19610   3.562   5.342   9.554 -0.7365  1.1463  3.5206
  173SOPE   C2419611   3.554   5.124   9.496  0.1505  0.2700 -0.0833
  173SOPE   H4R19612   3.601   5.028   9.528  0.7901  1.4898  2.8659
  173SOPE   H4S19613   3.446   5.102   9.510 -0.1188  1.3992 -0.3947
  173SOPE   C2519614   3.560   5.149   9.343  0.1277 -0.0441  0.5951
  173SOPE   H5R19615   3.514   5.248   9.323 -0.0127  0.2187  2.2233
  173SOPE   H5S19616   3.668   5.153   9.320 -0.3430 -0.0211 -1.8257
  173SOPE   C2619617   3.481   5.046   9.261  0.3123  0.1741 -0.1364
  173SOPE   H6R19618   3.541   4.953   9.256  0.2038  0.1615 -1.2256
  173SOPE   H6S19619   3.383   5.024   9.311  0.5462 -0.0046  0.2489
  173SOPE   C2719620   3.454   5.091   9.117  0.5536 -0.0752 -0.1109
  173SOPE   H7R19621   3.545   5.075   9.056  0.5451 -1.1111  0.1393
  173SOPE   H7S19622   3.392   5.015   9.066 -1.6099  2.0379 -0.7344
  173SOPE   C2819623   3.395   5.231   9.089  0.0319  0.6010  0.3499
  173SOPE   H8R19624   3.457   5.314   9.128 -0.5775  0.9246  0.6297
  173SOPE   H8S19625   3.382   5.248   8.980 -0.0616  1.6765  0.5271
  173SOPE   C2919626   3.263   5.246   9.157 -0.0350 -0.2144  0.1014
  173SOPE   H9119627   3.271   5.291   9.258  0.0673  0.9509 -0.4220
  173SOPE  C21019628   3.139   5.220   9.104 -0.0650 -0.2761  0.2595
  173SOPE  H10119629   3.051   5.268   9.148 -1.4777 -1.1102 -1.5705
  173SOPE  C21119630   3.113   5.172   8.962  0.4698 -0.5737 -0.1660
  173SOPE  H11R19631   3.151   5.068   8.948  2.2503  0.0733 -0.3653
  173SOPE  H11S19632   3.167   5.248   8.901  1.2076  0.2947  1.5329
  173SOPE  C21219633   2.971   5.181   8.911  0.1712  0.0974  0.9806
  173SOPE  H12R19634   2.929   5.280   8.936 -1.8234 -0.1822 -1.0869
  173SOPE  H12S19635   2.906   5.103   8.957  1.5779 -1.5458  0.2614
  173SOPE  C21319636   2.952   5.170   8.759 -0.5114  0.2997 -0.2163
  173SOPE  H13R19637   2.964   5.061   8.737  1.5030  0.5070 -0.1408
  173SOPE  H13S19638   3.032   5.216   8.698 -0.6274 -1.5457 -1.8351
  173SOPE  C21419639   2.816   5.230   8.718 -0.2865  0.8475 -0.1520
  173SOPE  H14R19640   2.786   5.330   8.758 -1.0729  0.5025  0.1288
  173SOPE  H14S19641   2.735   5.161   8.747  0.7627 -0.6746 -0.8071
  173SOPE  C21519642   2.805   5.253   8.563  0.3653  1.0204 -0.0835
  173SOPE  H15R19643   2.870   5.340   8.539  0.6187  0.2526 -2.2882
  173SOPE  H15S19644   2.701   5.287   8.541 -0.7636 -2.3917 -0.2482
  173SOPE  C21619645   2.830   5.128   8.481  0.6690 -0.2865  0.5869
  173SOPE  H16R19646   2.924   5.077   8.510 -0.4748 -0.8307  3.5461
  173SOPE  H16S19647   2.851   5.161   8.377  0.0016 -0.0054  0.5382
  173SOPE  C21719648   2.720   5.023   8.489 -0.5882 -0.3839  0.1985
  173SOPE  H17R19649   2.619   5.050   8.452 -0.1233 -1.0838 -1.6624
  173SOPE  H17S19650   2.717   4.994   8.596  0.1051 -1.8745 -0.1731
  173SOPE  C21819651   2.759   4.900   8.407 -0.1994 -0.1686  0.0377
  173SOPE  H18R19652   2.683   4.819   8.411 -1.5563  0.9206 -2.3609
  173SOPE  H18S19653   2.850   4.849   8.445 -0.1856 -1.0991 -1.2083
  173SOPE  H18T19654   2.795   4.912   8.302 -0.8959 -0.2217 -0.2070
  173SOPE   C3319655   4.004   4.894   9.717  0.6717 -0.7681 -0.3436
  173SOPE   H3X19656   3.988   4.804   9.780 -0.0839  0.6747  1.5694
  173SOPE   H3Y19657   4.100   4.883   9.662  0.9312 -2.1594  0.3816
  173SOPE   C3419658   3.900   4.926   9.601  0.1100 -0.2389 -0.3926
  173SOPE   H4X19659   3.944   4.997   9.528 -0.3785  0.6359  0.1440
  173SOPE   H4Y19660   3.805   4.974   9.634  1.1973  1.9533 -0.3728
  173SOPE   C3519661   3.866   4.793   9.537 -0.4302  0.4430  0.8576
  173SOPE   H5X19662   3.804   4.742   9.615  0.1074  0.4999  1.3198
  173SOPE   H5Y19663   3.959   4.735   9.523 -0.6193  0.2844  0.2382
  173SOPE   C3619664   3.777   4.800   9.411 -0.3081  0.1865  0.4526
  173SOPE   H6X19665   3.803   4.883   9.342  0.1837  1.1392  1.7658
  173SOPE   H6Y19666   3.676   4.830   9.447  0.7031  2.6017  1.3915
  173SOPE   C3719667   3.750   4.673   9.329 -0.5328  0.6512 -0.8387
  173SOPE   H7X19668   3.727   4.598   9.407  0.5969  1.7978  0.6198
  173SOPE   H7Y19669   3.840   4.639   9.273  0.8070  1.0855  1.0214
  173SOPE   C3819670   3.626   4.681   9.234 -0.5816 -1.0772 -0.6173
  173SOPE   H8X19671   3.662   4.738   9.145  3.2935 -0.5835  1.1386
  173SOPE   H8Y19672   3.542   4.729   9.289  1.6939  0.1779  1.9135
  173SOPE   C3919673   3.579   4.545   9.175  0.1721 -0.2341 -0.2918
  173SOPE   H9X19674   3.566   4.477   9.262 -1.6493  1.2362  0.6222
  173SOPE   H9Y19675   3.658   4.503   9.109  0.3087  2.1377 -1.7092
  173SOPE  C31019676   3.435   4.550   9.111 -0.0191 -1.0162 -0.2811
  173SOPE  H10X19677   3.361   4.590   9.183 -0.9071  0.0614 -1.7718
  173SOPE  H10Y19678   3.394   4.454   9.074  0.3983 -0.6541 -1.6933
  173SOPE  C31119679   3.434   4.642   8.990  0.2970 -0.3652 -0.1255
  173SOPE  H11X19680   3.460   4.749   9.003 -1.1896  0.0403 -0.3207
  173SOPE  H11Y19681   3.329   4.646   8.953 -0.2875  0.8216  1.6199
  173SOPE  C31219682   3.528   4.599   8.884 -0.7336 -0.0420 -0.5609
  173SOPE  H12X19683   3.536   4.489   8.871  1.0264  0.1242 -0.9148
  173SOPE  H12Y19684   3.624   4.623   8.934 -0.6618  0.5709 -0.9812
  173SOPE  C31319685   3.505   4.672   8.751 -0.0902  0.5023  0.1835
  173SOPE  H13X19686   3.508   4.779   8.781  0.4376  0.1851  1.2883
  173SOPE  H13Y19687   3.399   4.663   8.718  0.2700  1.9957 -1.4757
  173SOPE  C31419688   3.615   4.636   8.650 -0.4923  0.7952  0.0447
  173SOPE  H14X19689   3.703   4.600   8.708  0.7207 -0.4806 -2.4905
  173SOPE  H14Y19690   3.646   4.720   8.583 -0.7526 -1.2134 -2.6689
  173SOPE  C31519691   3.580   4.522   8.558  0.8627 -0.1190 -0.4738
  173SOPE  H15X19692   3.513   4.568   8.482 -3.0184 -0.9821  2.2731
  173SOPE  H15Y19693   3.528   4.447   8.621 -0.9770  1.0306 -0.6055
  173SOPE  C31619694   3.698   4.447   8.502 -0.3016 -0.2198 -0.5958
  173SOPE  H16X19695   3.774   4.428   8.581  1.4085  0.2775 -2.0905
  173SOPE  H16Y19696   3.739   4.516   8.426  0.4836 -1.9550 -1.7892
  173SOPE  C31719697   3.667   4.314   8.427 -0.1126 -0.1607  0.4789
  173SOPE  H17X19698   3.599   4.325   8.340 -0.6963  0.3183  0.9869
  173SOPE  H17Y19699   3.620   4.254   8.508 -0.0356 -0.0312  0.6200
  173SOPE  C31819700   3.791   4.238   8.379 -0.1312 -0.3382  0.3189
  173SOPE  H18X19701   3.860   4.211   8.462  2.1343  0.5436 -1.2577
  173SOPE  H18Y19702   3.853   4.300   8.311 -0.8434  0.5887  0.5171
  173SOPE  H18Z19703   3.755   4.150   8.321 -0.8595  1.5364 -2.1516
  174SOPE     N19704   4.580   4.119  10.484  0.5146  0.6624  0.2446
  174SOPE   HN119705   4.489   4.171  10.488 -0.4350 -0.7824 -1.7917
  174SOPE   HN219706   4.585   4.062  10.571  0.4508  0.8937  0.4038
  174SOPE   HN319707   4.656   4.190  10.482 -0.2243  1.4524 -0.4872
  174SOPE   C1219708   4.601   4.025  10.372 -0.0548  0.1307  0.2178
  174SOPE  H12A19709   4.506   3.967  10.368  1.4616 -2.3352 -2.0711
  174SOPE  H12B19710   4.684   3.953  10.390 -0.3572 -0.8903 -2.2267
  174SOPE   C1119711   4.642   4.091  10.237  0.2708 -0.2171 -0.1302
  174SOPE  H11A19712   4.672   4.012  10.164 -1.3119 -3.8681  2.9943
  174SOPE  H11B19713   4.734   4.145  10.269 -0.8525  1.9274 -0.4215
  174SOPE     P19714   4.449   4.136  10.059 -0.5331  0.3581 -0.1963
  174SOPE   O1319715   4.342   4.235  10.047  0.3066 -0.4121 -0.2216
  174SOPE   O1419716   4.412   3.992  10.068 -0.1396 -0.2524 -0.0844
  174SOPE   O1219717   4.547   4.186  10.180  0.4884 -0.3351  0.0813
  174SOPE   O1119718   4.557   4.147   9.945  0.3355  0.3905  0.0852
  174SOPE    C119719   4.626   4.269   9.908  0.8889  0.1527 -0.6395
  174SOPE    HA19720   4.659   4.331   9.994 -0.1301  0.9695 -0.8286
  174SOPE    HB19721   4.556   4.333   9.851 -0.0339  0.4929  0.8664
  174SOPE    C219722   4.758   4.243   9.833  0.0038 -0.0165 -0.2007
  174SOPE    HS19723   4.735   4.235   9.724 -0.7758  0.9323 -0.1058
  174SOPE   O2119724   4.824   4.118   9.882  0.5920 -0.0146 -0.5842
  174SOPE   C2119725   4.780   4.015   9.816 -0.4779 -0.6221  0.5589
  174SOPE   O2219726   4.703   4.021   9.722 -0.6599  0.2717  0.4743
  174SOPE   C2219727   4.843   3.893   9.882 -0.3995  0.1621  0.5956
  174SOPE   H2R19728   4.842   3.908   9.992  0.2526  0.3883  0.5734
  174SOPE   H2S19729   4.948   3.882   9.846 -0.1841  0.7122  1.0515
  174SOPE    C319730   4.865   4.348   9.849 -0.7396  0.0421  0.0621
  174SOPE    HX19731   4.947   4.317   9.780 -0.5433  1.6806 -0.4604
  174SOPE    HY19732   4.912   4.332   9.948  0.8811 -1.4230 -0.8949
  174SOPE   O3119733   4.831   4.478   9.817 -0.0950 -0.1033 -0.4431
  174SOPE   C3119734   4.924   4.567   9.853  0.1507 -0.1984 -0.4109
  174SOPE   O3219735   5.018   4.549   9.928 -0.2686 -0.2311  0.5380
  174SOPE   C3219736   4.895   4.692   9.769 -0.0536 -0.1440  0.2583
  174SOPE   H2X19737   4.936   4.773   9.833  1.8664  0.4082 -1.6253
  174SOPE   H2Y19738   4.785   4.707   9.762  0.1563  1.3408  0.0319
  174SOPE   C2319739   4.770   3.762   9.846 -0.1739  0.5125 -0.0157
  174SOPE   H3R19740   4.659   3.765   9.845 -0.1807  0.0197 -0.5290
  174SOPE   H3S19741   4.803   3.682   9.916 -1.2997 -0.8462 -1.0139
  174SOPE   C2419742   4.803   3.714   9.702  0.8434 -0.3791  0.2236
  174SOPE   H4R19743   4.764   3.789   9.629  0.9968 -0.7811 -0.2755
  174SOPE   H4S19744   4.913   3.709   9.684  0.7782 -0.9283 -0.0374
  174SOPE   C2519745   4.755   3.574   9.667 -0.0461 -0.1866  0.0724
  174SOPE   H5R19746   4.833   3.505   9.706 -0.2806 -0.9980 -0.8868
  174SOPE   H5S19747   4.664   3.550   9.726  1.1359  0.9687  2.4401
  174SOPE   C2619748   4.748   3.535   9.522 -0.2659 -0.5119 -0.5118
  174SOPE   H6R19749   4.837   3.580   9.473 -1.3951  0.4591 -1.7136
  174SOPE   H6S19750   4.760   3.425   9.514 -0.1255 -0.5836  0.6928
  174SOPE   C2719751   4.622   3.585   9.461  0.7183 -0.7656 -0.4033
  174SOPE   H7R19752   4.534   3.542   9.513 -0.8606  2.5767 -0.1537
  174SOPE   H7S19753   4.611   3.695   9.479  3.2593 -0.0880 -2.6782
  174SOPE   C2819754   4.616   3.554   9.313 -0.4408 -0.0513 -0.3615
  174SOPE   H8R19755   4.695   3.618   9.268 -0.8495 -0.1933 -1.2991
  174SOPE   H8S19756   4.638   3.446   9.303  1.1813  0.3567 -1.4164
  174SOPE   C2919757   4.474   3.588   9.259  0.5177  0.0843 -0.0622
  174SOPE   H9119758   4.399   3.511   9.280 -0.2623  0.1821 -2.3440
  174SOPE  C21019759   4.445   3.704   9.201 -0.0183 -0.0539  0.3948
  174SOPE  H10119760   4.353   3.704   9.140  0.9085 -0.2106 -1.0186
  174SOPE  C21119761   4.540   3.818   9.168 -0.3079  0.3179  0.4549
  174SOPE  H11R19762   4.609   3.826   9.255 -0.5872  0.2440  0.6819
  174SOPE  H11S19763   4.486   3.915   9.164 -1.4908 -0.3740 -1.0493
  174SOPE  C21219764   4.634   3.793   9.046 -0.1396  0.1536 -0.0247
  174SOPE  H12R19765   4.677   3.691   9.048 -0.4961  0.0279  1.6663
  174SOPE  H12S19766   4.725   3.854   9.068 -0.9155 -0.1980  4.7372
  174SOPE  C21319767   4.584   3.838   8.905  0.6782 -0.0549  0.5221
  174SOPE  H13R19768   4.521   3.928   8.921 -1.4918 -1.3732 -0.4785
  174SOPE  H13S19769   4.519   3.755   8.871 -2.7285  3.0706 -0.9211
  174SOPE  C21419770   4.694   3.848   8.797  0.8076  0.1327  0.2186
  174SOPE  H14R19771   4.758   3.757   8.801  0.8433  0.1674  0.4593
  174SOPE  H14S19772   4.759   3.936   8.820 -0.7181  1.5137 -0.6179
  174SOPE  C21519773   4.647   3.875   8.659  0.7275  0.0139  1.0352
  174SOPE  H15R19774   4.597   3.974   8.658  0.1236 -0.2702 -2.1437
  174SOPE  H15S19775   4.562   3.807   8.636  1.5493 -0.4371 -0.7436
  174SOPE  C21619776   4.765   3.879   8.557 -0.1565 -0.4211  0.6701
  174SOPE  H16R19777   4.803   3.775   8.550  0.5917 -0.3323  2.9038
  174SOPE  H16S19778   4.847   3.935   8.609  0.4991 -1.9657  1.3127
  174SOPE  C21719779   4.748   3.964   8.425 -0.3635  0.0816 -0.1973
  174SOPE  H17R19780   4.850   3.945   8.385 -0.0973  2.7190 -0.8157
  174SOPE  H17S19781   4.729   4.071   8.447  2.3037  0.2220  1.6007
  174SOPE  C21819782   4.637   3.908   8.333 -0.6643 -0.0209  0.1766
  174SOPE  H18R19783   4.655   3.799   8.328 -1.0034 -0.1564  1.4797
  174SOPE  H18S19784   4.654   3.949   8.232  3.0394 -1.8402 -0.0226
  174SOPE  H18T19785   4.530   3.908   8.363 -1.1147  3.5851 -1.1896
  174SOPE   C3319786   4.949   4.686   9.629 -0.2858 -0.3884  0.2713
  174SOPE   H3X19787   4.876   4.748   9.573 -2.8946 -4.5836 -1.2253
  174SOPE   H3Y19788   4.936   4.581   9.594  1.3738 -0.1634 -1.0466
  174SOPE   C3419789   5.088   4.740   9.619 -0.4563  0.0084  0.1810
  174SOPE   H4X19790   5.112   4.809   9.703  0.6965  0.0573 -0.1735
  174SOPE   H4Y19791   5.096   4.784   9.517  1.6955  0.0999  0.3692
  174SOPE   C3519792   5.203   4.634   9.620 -0.2907 -0.2479  0.1962
  174SOPE   H5X19793   5.195   4.590   9.721  0.4996  2.1577  1.3335
  174SOPE   H5Y19794   5.307   4.671   9.614 -0.6295  0.6670 -0.0711
  174SOPE   C3619795   5.190   4.520   9.523  0.2212  0.0730 -0.1703
  174SOPE   H6X19796   5.103   4.452   9.538 -0.1928  0.7131  0.3871
  174SOPE   H6Y19797   5.277   4.454   9.540  1.5568  1.7109 -0.5075
  174SOPE   C3719798   5.190   4.577   9.380  0.1570 -0.4789  0.4175
  174SOPE   H7X19799   5.270   4.654   9.370 -1.0507  0.6018 -1.1287
  174SOPE   H7Y19800   5.093   4.625   9.353  0.0798 -0.2961  1.0083
  174SOPE   C3819801   5.208   4.468   9.268 -0.0004 -0.2354 -0.1457
  174SOPE   H8X19802   5.121   4.402   9.285  0.5552 -1.4232 -1.7956
  174SOPE   H8Y19803   5.300   4.408   9.278  1.4771  1.9702 -0.0142
  174SOPE   C3919804   5.202   4.525   9.126  0.9866  0.8509 -0.0812
  174SOPE   H9X19805   5.292   4.585   9.101  0.0849  1.7832 -1.1668
  174SOPE   H9Y19806   5.117   4.596   9.135  0.0508  0.0278 -2.1410
  174SOPE  C31019807   5.166   4.411   9.028 -0.6103 -0.1791 -0.5830
  174SOPE  H10X19808   5.099   4.332   9.070 -0.8487  0.5514  0.4421
  174SOPE  H10Y19809   5.253   4.354   8.991  0.1495 -0.8328  2.0826
  174SOPE  C31119810   5.089   4.459   8.896  0.4061 -0.1211  1.3224
  174SOPE  H11X19811   5.001   4.526   8.905 -1.9099 -3.0787  1.1668
  174SOPE  H11Y19812   5.052   4.376   8.832 -0.6829  1.4062 -0.1019
  174SOPE  C31219813   5.188   4.523   8.797 -0.3191 -0.1042 -0.6674
  174SOPE  H12X19814   5.168   4.519   8.688 -1.3036 -0.1145 -0.4939
  174SOPE  H12Y19815   5.287   4.477   8.816 -0.3234  0.5652  1.0245
  174SOPE  C31319816   5.206   4.672   8.807  0.1374 -0.3321 -0.4194
  174SOPE  H13X19817   5.252   4.682   8.908  0.4950  0.8701 -0.6932
  174SOPE  H13Y19818   5.110   4.728   8.805  0.6247  0.5516  0.4165
  174SOPE  C31419819   5.291   4.748   8.707 -0.1012 -0.7766  0.1295
  174SOPE  H14X19820   5.399   4.720   8.717  0.2691  0.1668 -1.0773
  174SOPE  H14Y19821   5.280   4.854   8.736  2.1175 -0.8777  1.4780
  174SOPE  C31519822   5.262   4.730   8.560  0.3163 -0.1887 -0.5677
  174SOPE  H15X19823   5.284   4.623   8.541 -1.0828 -0.7195  0.7197
  174SOPE  H15Y19824   5.336   4.791   8.504 -0.6579  1.9077  0.3777
  174SOPE  C31619825   5.120   4.759   8.512  0.2499  0.4980 -0.8450
  174SOPE  H16X19826   5.082   4.861   8.534 -3.1573 -0.6158 -1.3091
  174SOPE  H16Y19827   5.064   4.692   8.580 -1.0467  1.6744 -0.7428
  174SOPE  C31719828   5.095   4.715   8.369 -0.0972 -0.1097 -0.0057
  174SOPE  H17X19829   4.989   4.683   8.363 -1.1367  3.3114 -0.4455
  174SOPE  H17Y19830   5.155   4.624   8.343 -0.1163 -0.5596  1.4912
  174SOPE  C31819831   5.120   4.821   8.270 -0.7576  0.2994  0.3579
  174SOPE  H18X19832   5.063   4.914   8.289  2.4303  2.5857 -1.0093
  174SOPE  H18Y19833   5.101   4.787   8.166  1.4799 -1.4937  0.4807
  174SOPE  H18Z19834   5.228   4.847   8.271 -0.2802 -1.4720 -1.2224
  175SOPE     N19835   4.901   5.678   9.646 -0.0561 -0.4465  0.0046
  175SOPE   HN119836   4.990   5.668   9.592 -0.7891 -0.4982 -1.2183
  175SOPE   HN219837   4.832   5.687   9.569 -0.0125  1.4591  0.1868
  175SOPE   HN319838   4.916   5.764   9.701  0.1127  0.2418 -1.0995
  175SOPE   C1219839   4.866   5.565   9.740  0.1006 -0.5134  0.4078
  175SOPE  H12A19840   4.882   5.469   9.686 -0.6307 -1.7375  2.3229
  175SOPE  H12B19841   4.756   5.571   9.747 -0.2013  1.4287 -4.1489
  175SOPE   C1119842   4.938   5.571   9.870 -0.4027  0.2052 -0.2265
  175SOPE  H11A19843   4.934   5.467   9.909 -1.4705  0.2183 -0.3120
  175SOPE  H11B19844   4.869   5.629   9.934 -0.2549  0.9447 -0.7272
  175SOPE     P19845   5.203   5.552   9.870  0.0898 -0.5208  0.1037
  175SOPE   O1319846   5.206   5.463   9.993  0.2595  0.1008  0.0662
  175SOPE   O1419847   5.320   5.635   9.851 -0.2269 -0.1475 -0.2635
  175SOPE   O1219848   5.066   5.633   9.867  0.5041  0.4209  0.1476
  175SOPE   O1119849   5.197   5.466   9.737  0.1891 -0.0040  0.5077
  175SOPE    C119850   5.314   5.384   9.699 -0.2161 -0.3968 -0.5554
  175SOPE    HA19851   5.396   5.390   9.774 -1.3760 -2.4357  0.9168
  175SOPE    HB19852   5.369   5.417   9.608 -2.6867 -0.6507 -2.1882
  175SOPE    C219853   5.294   5.231   9.688 -0.4485  0.1085 -0.1265
  175SOPE    HS19854   5.393   5.183   9.703 -1.1754 -0.9153  1.5228
  175SOPE   O2119855   5.248   5.198   9.554  0.3250  0.3141 -0.3103
  175SOPE   C2119856   5.287   5.080   9.508  0.0184 -0.3241 -0.1459
  175SOPE   O2219857   5.335   4.992   9.577  0.1768  0.2126 -0.5617
  175SOPE   C2219858   5.259   5.077   9.362 -0.0126 -0.0057 -0.1285
  175SOPE   H2R19859   5.355   5.062   9.308 -0.7073  0.3525 -1.4743
  175SOPE   H2S19860   5.212   5.173   9.330 -0.8949 -0.6452 -0.7755
  175SOPE    C319861   5.202   5.158   9.793 -0.5157  0.0476 -0.1062
  175SOPE    HX19862   5.235   5.188   9.895 -0.5897 -1.5594  0.3955
  175SOPE    HY19863   5.226   5.050   9.789 -0.6338  0.0918 -2.7200
  175SOPE   O3119864   5.065   5.184   9.757 -0.0038  0.6287 -0.0672
  175SOPE   C3119865   4.981   5.098   9.813  0.2074 -0.2064  0.4676
  175SOPE   O3219866   5.005   4.992   9.866 -0.5901 -0.1298  0.2530
  175SOPE   C3219867   4.847   5.155   9.786  0.5834  0.2150 -0.4487
  175SOPE   H2X19868   4.847   5.266   9.785 -0.1473  0.2187 -0.2121
  175SOPE   H2Y19869   4.771   5.130   9.863  1.3578  1.9996  0.9271
  175SOPE   C2319870   5.160   4.976   9.311 -0.1365 -0.5398 -0.3938
  175SOPE   H3R19871   5.075   4.984   9.382 -0.4317 -0.7917 -0.7168
  175SOPE   H3S19872   5.204   4.874   9.321  2.1243  0.2996 -1.4486
  175SOPE   C2419873   5.121   5.005   9.163 -0.1745  0.0541  0.5634
  175SOPE   H4R19874   5.090   5.111   9.146  1.0312  0.3852  0.3648
  175SOPE   H4S19875   5.213   4.985   9.104  0.0581  0.8701  0.6354
  175SOPE   C2519876   5.011   4.902   9.128  0.4883 -0.2326  0.0717
  175SOPE   H5R19877   5.047   4.797   9.138  0.8146 -0.2516 -1.2242
  175SOPE   H5S19878   4.925   4.911   9.197  0.3693 -2.5006  0.2332
  175SOPE   C2619879   4.970   4.917   8.982 -0.4222 -0.3679 -0.3324
  175SOPE   H6R19880   4.914   5.011   8.960  3.5423  2.1012 -0.3834
  175SOPE   H6S19881   5.062   4.916   8.920 -0.1875  0.2667 -0.0000
  175SOPE   C2719882   4.872   4.809   8.927 -0.5625  0.4221 -0.2214
  175SOPE   H7R19883   4.941   4.722   8.921 -1.8308 -0.6874  1.0481
  175SOPE   H7S19884   4.801   4.794   9.011 -1.5868 -2.3776 -1.5418
  175SOPE   C2819885   4.805   4.847   8.806 -0.2604  0.5600 -0.1896
  175SOPE   H8R19886   4.729   4.926   8.825 -0.3797  0.7257 -1.3531
  175SOPE   H8S19887   4.876   4.895   8.736 -0.5479  0.4506 -0.5559
  175SOPE   C2919888   4.751   4.732   8.736  0.8604 -0.2367  0.0232
  175SOPE   H9119889   4.742   4.645   8.802 -0.0044  0.9191  1.4740
  175SOPE  C21019890   4.721   4.725   8.601 -0.2293 -1.1976 -0.3177
  175SOPE  H10119891   4.713   4.621   8.564 -1.7799 -2.7446  3.9926
  175SOPE  C21119892   4.746   4.840   8.505 -0.3354 -0.2238 -0.7136
  175SOPE  H11R19893   4.854   4.859   8.523 -0.7833  1.6840  0.0761
  175SOPE  H11S19894   4.684   4.926   8.538  0.7139 -0.1244  1.0807
  175SOPE  C21219895   4.716   4.800   8.364  0.5533  0.6232  0.3127
  175SOPE  H12R19896   4.785   4.720   8.331 -0.4857 -0.5066  0.8439
  175SOPE  H12S19897   4.742   4.887   8.300  0.6862  1.4935  1.5228
  175SOPE  C21319898   4.574   4.760   8.350  0.5174 -0.6577  0.4065
  175SOPE  H13R19899   4.517   4.823   8.422  0.3226  0.2992 -0.5781
  175SOPE  H13S19900   4.556   4.657   8.387  1.1616 -0.0204  2.5482
  175SOPE  C21419901   4.518   4.798   8.212  0.0514 -0.0096 -0.4917
  175SOPE  H14R19902   4.582   4.769   8.125  1.2257 -3.5476  1.4701
  175SOPE  H14S19903   4.513   4.909   8.212  3.0291  0.1750 -0.0751
  175SOPE  C21519904   4.381   4.739   8.179 -0.3237 -0.7572 -0.1034
  175SOPE  H15R19905   4.312   4.770   8.260  2.0550 -1.0314  2.0916
  175SOPE  H15S19906   4.402   4.630   8.173 -0.2184 -0.6906 -0.9739
  175SOPE  C21619907   4.332   4.765   8.035  0.4983  0.3041  0.9703
  175SOPE  H16R19908   4.242   4.699   8.044 -0.4442  1.4142 -0.1137
  175SOPE  H16S19909   4.404   4.723   7.962  0.0153 -2.0769  1.8116
  175SOPE  C21719910   4.285   4.905   7.999 -0.6535  0.0691  0.1491
  175SOPE  H17R19911   4.219   4.869   7.917 -0.2323 -1.0106  0.2667
  175SOPE  H17S19912   4.367   4.961   7.951  0.5911 -3.9368 -2.6904
  175SOPE  C21819913   4.213   4.991   8.107  0.6878  0.7050 -0.3816
  175SOPE  H18R19914   4.126   4.939   8.153  1.0522 -0.4823 -1.0205
  175SOPE  H18S19915   4.178   5.081   8.051 -0.8411  0.3558  0.0014
  175SOPE  H18T19916   4.283   5.024   8.187  0.3198  1.3810 -0.3298
  175SOPE   C3319917   4.774   5.112   9.652 -0.3018 -0.3434 -0.0252
  175SOPE   H3X19918   4.672   5.154   9.638 -0.2992 -0.3146  0.0439
  175SOPE   H3Y19919   4.749   5.004   9.651 -1.4343 -0.0912 -0.2921
  175SOPE   C3419920   4.859   5.158   9.530  0.4029 -0.6544  1.0875
  175SOPE   H4X19921   4.960   5.110   9.526  1.4260  1.5440 -0.1969
  175SOPE   H4Y19922   4.873   5.266   9.548 -1.4519 -0.1437 -0.3967
  175SOPE   C3519923   4.796   5.142   9.385 -0.0101 -0.4264 -0.3805
  175SOPE   H5X19924   4.686   5.151   9.400  0.0454  0.0286 -0.2441
  175SOPE   H5Y19925   4.822   5.044   9.340 -0.0807 -0.1826 -0.9503
  175SOPE   C3619926   4.843   5.249   9.294  0.9736 -0.4098  0.8197
  175SOPE   H6X19927   4.950   5.281   9.292  0.8188  0.4116 -5.3101
  175SOPE   H6Y19928   4.792   5.341   9.330 -2.9758 -1.8322 -0.9156
  175SOPE   C3719929   4.796   5.232   9.149 -0.7035  0.1821  0.5489
  175SOPE   H7X19930   4.685   5.237   9.150 -0.6882  0.8703 -0.8947
  175SOPE   H7Y19931   4.838   5.137   9.111  0.2630  0.9491 -0.3346
  175SOPE   C3819932   4.844   5.346   9.058 -0.4264  0.3092  0.1506
  175SOPE   H8X19933   4.949   5.314   9.041 -1.0929 -0.7281 -2.2552
  175SOPE   H8Y19934   4.852   5.450   9.098  1.8594  0.2056  0.0202
  175SOPE   C3919935   4.765   5.326   8.921  0.2291 -0.1123 -0.3416
  175SOPE   H9X19936   4.681   5.399   8.922 -1.1254 -1.6584  1.1516
  175SOPE   H9Y19937   4.727   5.222   8.913 -2.0531  0.6674  0.0163
  175SOPE  C31019938   4.855   5.358   8.797  0.5687 -0.3110  0.3902
  175SOPE  H10X19939   4.920   5.271   8.774 -0.7857 -1.1453 -0.2712
  175SOPE  H10Y19940   4.921   5.445   8.816 -1.5692  2.0287 -2.4457
  175SOPE  C31119941   4.776   5.383   8.659  0.2108 -0.2395  0.2942
  175SOPE  H11X19942   4.702   5.463   8.680 -1.5443 -1.6100 -0.5246
  175SOPE  H11Y19943   4.706   5.296   8.656  0.0276 -0.1365  1.4232
  175SOPE  C31219944   4.864   5.398   8.546  0.4245  0.8468 -0.2153
  175SOPE  H12X19945   4.961   5.351   8.575 -0.1419 -0.8294 -0.9859
  175SOPE  H12Y19946   4.909   5.499   8.547  0.0380  1.0091  0.8012
  175SOPE  C31319947   4.812   5.341   8.414  0.3680  0.1604  0.8401
  175SOPE  H13X19948   4.790   5.233   8.419  2.0795 -0.2937 -0.6129
  175SOPE  H13Y19949   4.890   5.365   8.338 -0.9453  1.2719 -0.1844
  175SOPE  C31419950   4.685   5.409   8.374  0.5584 -0.1928 -0.5450
  175SOPE  H14X19951   4.708   5.518   8.375 -1.5853  0.2670 -0.5893
  175SOPE  H14Y19952   4.605   5.383   8.445 -0.7872 -1.3580 -2.4304
  175SOPE  C31519953   4.631   5.358   8.234  0.3834 -0.3545  0.2785
  175SOPE  H15X19954   4.716   5.349   8.163  1.4166  1.0726  1.3068
  175SOPE  H15Y19955   4.562   5.433   8.189  0.5774  0.4519  1.3053
  175SOPE  C31619956   4.546   5.234   8.221 -0.2453  1.1172 -0.3886
  175SOPE  H16X19957   4.446   5.249   8.266 -1.0633  0.6491 -2.0026
  175SOPE  H16Y19958   4.596   5.152   8.278  0.0102  1.3936 -0.2090
  175SOPE  C31719959   4.529   5.190   8.074 -0.4367 -0.1785  0.4300
  175SOPE  H17X19960   4.459   5.262   8.028 -0.3095 -0.0379  0.4587
  175SOPE  H17Y19961   4.465   5.101   8.094 -0.6387 -0.0741  0.2541
  175SOPE  C31819962   4.653   5.167   7.984 -0.3322 -0.5277 -0.6436
  175SOPE  H18X19963   4.714   5.093   8.040  2.9922  1.7735 -1.0464
  175SOPE  H18Y19964   4.708   5.258   7.951 -0.2974 -0.3954 -0.2245
  175SOPE  H18Z19965   4.632   5.108   7.893  1.9030 -0.6861 -1.0937
  176SOPE     N19966   5.864   5.038  10.087  0.3730 -0.3865  0.1588
  176SOPE   HN119967   5.843   5.139  10.074  1.3374 -0.5330 -2.9200
  176SOPE   HN219968   5.872   5.027  10.190  0.3748  1.1949  0.3400
  176SOPE   HN319969   5.954   5.007  10.045  1.4620  2.2820  0.4372
  176SOPE   C1219970   5.746   4.969  10.027 -0.4000  0.3120  0.1302
  176SOPE  H12A19971   5.755   4.982   9.917 -0.3097  1.3125  0.2547
  176SOPE  H12B19972   5.653   5.017  10.064  0.1293  1.9938 -0.6643
  176SOPE   C1119973   5.745   4.819  10.046 -0.6374 -0.1372  0.4148
  176SOPE  H11A19974   5.648   4.784  10.006 -0.8347  1.0948 -0.1899
  176SOPE  H11B19975   5.740   4.806  10.156 -1.6202  1.0491  0.5193
  176SOPE     P19976   5.882   4.598  10.001  0.4386 -0.2156  0.1095
  176SOPE   O1319977   5.849   4.539  10.128  0.5074 -0.3419 -0.6123
  176SOPE   O1419978   6.017   4.571   9.947 -0.4448 -0.6682 -0.5387
  176SOPE   O1219979   5.855   4.751   9.989  0.2761 -0.1501 -0.2836
  176SOPE   O1119980   5.775   4.558   9.893 -0.0373  0.6128  0.2506
  176SOPE    C119981   5.644   4.505   9.916 -0.2274 -0.5165  0.0272
  176SOPE    HA19982   5.571   4.588   9.911  0.9664  0.4754 -1.3293
  176SOPE    HB19983   5.629   4.460  10.016 -0.3634  0.2569  0.3535
  176SOPE    C219984   5.601   4.386   9.814 -0.2002 -0.5782  0.0547
  176SOPE    HS19985   5.653   4.294   9.848  1.8353  0.8331  0.9359
  176SOPE   O2119986   5.645   4.422   9.684 -0.4901  0.7424 -0.2803
  176SOPE   C2119987   5.742   4.348   9.623  0.0017  0.7477  0.0551
  176SOPE   O2219988   5.815   4.270   9.679 -0.4654  0.4754  0.1757
  176SOPE   C2219989   5.728   4.372   9.467  0.3935 -0.0261 -0.1686
  176SOPE   H2R19990   5.804   4.306   9.419 -0.2346 -0.3097 -0.7751
  176SOPE   H2S19991   5.762   4.475   9.442 -0.4691  0.3683  0.2653
  176SOPE    C319992   5.450   4.371   9.806 -0.4411  0.3459 -0.0331
  176SOPE    HX19993   5.400   4.456   9.754 -0.0788 -0.2065 -1.2965
  176SOPE    HY19994   5.417   4.369   9.912  0.5365 -1.8676  0.2445
  176SOPE   O3119995   5.415   4.248   9.740  0.1689 -0.2220  0.0145
  176SOPE   C3119996   5.299   4.191   9.783 -0.6333  0.1157 -0.0305
  176SOPE   O3219997   5.222   4.245   9.860 -0.2580 -0.3232 -0.3682
  176SOPE   C3219998   5.285   4.066   9.705  0.4436 -0.0491  0.7301
  176SOPE   H2X19999   5.319   3.976   9.760 -2.2462 -1.6308 -0.1262
  176SOPE   H2Y20000   5.353   4.071   9.617  0.5166 -0.3959  0.7647
  176SOPE   C2320001   5.595   4.323   9.412  0.2428  0.7187  0.8223
  176SOPE   H3R20002   5.517   4.393   9.447 -0.4303 -0.1657  1.1116
  176SOPE   H3S20003   5.558   4.226   9.453  2.4916  0.0292  1.3311
  176SOPE   C2420004   5.591   4.302   9.258 -0.0340 -0.2505 -0.1583
  176SOPE   H4R20005   5.693   4.262   9.235  1.4468  2.2226  1.8639
  176SOPE   H4S20006   5.513   4.232   9.221 -0.7917  0.2762  0.4555
  176SOPE   C2520007   5.584   4.441   9.189 -0.0460  0.3468 -0.1101
  176SOPE   H5R20008   5.500   4.506   9.220 -0.6533 -1.1545  1.4777
  176SOPE   H5S20009   5.682   4.487   9.213 -0.8130  3.0737 -2.0354
  176SOPE   C2620010   5.587   4.417   9.038 -0.1540  0.3178 -0.5217
  176SOPE   H6R20011   5.665   4.345   9.008  0.8085  1.1076  0.0728
  176SOPE   H6S20012   5.494   4.360   9.014 -1.1537 -0.0321  3.7072
  176SOPE   C2720013   5.586   4.542   8.945  0.2078  0.6087 -0.2296
  176SOPE   H7R20014   5.490   4.593   8.966 -0.1041 -0.8496  2.0673
  176SOPE   H7S20015   5.663   4.616   8.976 -0.0094  0.7933 -0.1326
  176SOPE   C2820016   5.574   4.500   8.791 -0.2762 -0.0799  0.3217
  176SOPE   H8R20017   5.505   4.414   8.787  1.1554 -1.2856  1.1013
  176SOPE   H8S20018   5.522   4.580   8.734 -4.6305 -1.3025  2.4081
  176SOPE   C2920019   5.705   4.439   8.729 -0.2265  0.0442 -0.1257
  176SOPE   H9120020   5.723   4.334   8.757  1.5070 -0.2878 -2.3683
  176SOPE  C21020021   5.762   4.480   8.619  0.2414  0.1447  0.4203
  176SOPE  H10120022   5.847   4.426   8.575  0.4677  0.0859  0.9232
  176SOPE  C21120023   5.715   4.599   8.535 -0.3688 -0.1365 -0.1004
  176SOPE  H11R20024   5.604   4.602   8.528 -0.3241  0.3617 -0.7060
  176SOPE  H11S20025   5.744   4.578   8.430  2.8777 -1.0975  0.9487
  176SOPE  C21220026   5.770   4.740   8.578  0.7292 -0.0038 -0.8263
  176SOPE  H12R20027   5.878   4.748   8.554  0.9975  0.5713  0.4942
  176SOPE  H12S20028   5.747   4.751   8.686  2.1172 -3.0583 -0.1834
  176SOPE  C21320029   5.699   4.850   8.495  0.3546 -0.1834 -0.4575
  176SOPE  H13R20030   5.592   4.837   8.522  0.1411 -0.1104 -1.2410
  176SOPE  H13S20031   5.715   4.835   8.386 -0.0243  0.2600 -0.5747
  176SOPE  C21420032   5.738   4.989   8.538  0.5321  0.1410 -0.0562
  176SOPE  H14R20033   5.751   4.983   8.648  3.4324  0.8915 -0.3010
  176SOPE  H14S20034   5.647   5.048   8.515 -1.3673 -1.9318  1.8429
  176SOPE  C21520035   5.863   5.048   8.480 -0.6009  0.4182 -1.0426
  176SOPE  H15R20036   5.946   4.984   8.516 -0.1762 -0.9876 -4.3761
  176SOPE  H15S20037   5.874   5.153   8.514 -0.2586  0.0449  0.0160
  176SOPE  C21620038   5.873   5.057   8.324  0.2725 -0.5161  0.2786
  176SOPE  H16R20039   5.784   5.108   8.284  1.2283 -2.3470 -4.4425
  176SOPE  H16S20040   5.889   4.954   8.285 -0.7938 -1.3820  2.0406
  176SOPE  C21720041   5.995   5.141   8.285 -0.0341  0.4214 -0.1392
  176SOPE  H17R20042   6.086   5.098   8.332  0.8946  1.6111 -0.8085
  176SOPE  H17S20043   5.985   5.241   8.331  0.4599  0.1063  0.6562
  176SOPE  C21820044   6.025   5.155   8.136 -0.4402  0.3260  0.1162
  176SOPE  H18R20045   5.940   5.202   8.083 -0.5987  0.1747  0.2400
  176SOPE  H18S20046   6.051   5.060   8.083  0.1920 -0.6805  2.1841
  176SOPE  H18T20047   6.113   5.222   8.125  0.2928 -0.6474 -0.0127
  176SOPE   C3320048   5.133   4.047   9.674 -0.6304  0.0775 -0.6218
  176SOPE   H3X20049   5.066   4.096   9.748  1.3058 -0.4171  1.4996
  176SOPE   H3Y20050   5.106   3.939   9.678  0.0477 -0.0426  0.9805
  176SOPE   C3420051   5.097   4.106   9.540  0.4425  0.0396 -0.0147
  176SOPE   H4X20052   5.155   4.048   9.465 -0.9821 -0.2419 -0.9152
  176SOPE   H4Y20053   5.128   4.213   9.537  2.1590 -0.4195  1.0278
  176SOPE   C3520054   4.947   4.094   9.496 -0.0256  0.6522  0.2432
  176SOPE   H5X20055   4.893   4.163   9.564  1.2763  0.5345  1.4251
  176SOPE   H5Y20056   4.908   3.991   9.508 -0.0778  0.4154 -1.8116
  176SOPE   C3620057   4.939   4.135   9.351  0.0046  0.0572  0.6242
  176SOPE   H6X20058   5.023   4.095   9.290  0.7065  2.0437  0.2521
  176SOPE   H6Y20059   4.943   4.246   9.362  0.8218  0.0007  0.9552
  176SOPE   C3720060   4.811   4.075   9.275  0.2784  0.6625  0.2472
  176SOPE   H7X20061   4.726   4.105   9.339 -1.3495 -3.3244  0.0788
  176SOPE   H7Y20062   4.822   3.964   9.280 -2.1651  0.3600 -0.6573
  176SOPE   C3820063   4.784   4.130   9.133  0.2566 -0.4306  0.1659
  176SOPE   H8X20064   4.696   4.074   9.094 -1.5617  2.2297  0.3221
  176SOPE   H8Y20065   4.865   4.096   9.065 -1.8407  0.2799 -2.7935
  176SOPE   C3920066   4.754   4.284   9.128  0.2376 -0.0439 -0.0462
  176SOPE   H9X20067   4.855   4.330   9.128  0.2745 -0.1259 -0.0113
  176SOPE   H9Y20068   4.700   4.319   9.219  1.6084 -0.7594  1.0492
  176SOPE  C31020069   4.669   4.339   9.014 -0.0465  0.2184  0.0551
  176SOPE  H10X20070   4.675   4.450   9.012  0.6404  0.2150  1.9880
  176SOPE  H10Y20071   4.563   4.306   9.019  0.2637 -0.9847 -0.9408
  176SOPE  C31120072   4.723   4.309   8.876  0.1152  0.2870  0.6049
  176SOPE  H11X20073   4.751   4.202   8.873  0.2652  0.3538 -0.4764
  176SOPE  H11Y20074   4.816   4.367   8.854 -0.6656  1.0661 -0.7058
  176SOPE  C31220075   4.626   4.349   8.771 -1.0771  0.9761  0.2900
  176SOPE  H12X20076   4.591   4.455   8.779 -1.3583  0.9830 -0.9874
  176SOPE  H12Y20077   4.536   4.284   8.773  0.5138 -1.3894 -2.0194
  176SOPE  C31320078   4.689   4.331   8.631  0.4171  0.6150 -0.2435
  176SOPE  H13X20079   4.740   4.233   8.624  0.5254  0.3268  3.6723
  176SOPE  H13Y20080   4.767   4.411   8.621  1.3360 -0.1969  0.3479
  176SOPE  C31420081   4.593   4.357   8.509  0.0741  0.6245  0.2006
  176SOPE  H14X20082   4.539   4.454   8.511  3.1428  2.4931 -3.3251
  176SOPE  H14Y20083   4.508   4.286   8.505 -1.0577  1.9595  0.1043
  176SOPE  C31520084   4.683   4.375   8.386  0.9543  0.1721 -0.3295
  176SOPE  H15X20085   4.762   4.297   8.390  1.2831  0.6102  2.1182
  176SOPE  H15Y20086   4.741   4.470   8.398  0.1469  0.6437 -0.1362
  176SOPE  C31620087   4.606   4.379   8.259 -0.5912  0.6868  0.2952
  176SOPE  H16X20088   4.526   4.456   8.266  0.8477  2.4503 -1.8455
  176SOPE  H16Y20089   4.553   4.281   8.258 -0.1584  0.4559 -0.3762
  176SOPE  C31720090   4.705   4.397   8.137  0.6024  0.3312  0.0504
  176SOPE  H17X20091   4.801   4.352   8.170  1.2918  1.7933  0.0906
  176SOPE  H17Y20092   4.710   4.501   8.098 -2.7367  0.5862  0.1443
  176SOPE  C31820093   4.649   4.317   8.021 -0.0219  0.2091  0.0322
  176SOPE  H18X20094   4.546   4.352   7.998  0.4753  1.5148 -0.1947
  176SOPE  H18Y20095   4.655   4.214   8.062 -1.9005  0.7563  1.7561
  176SOPE  H18Z20096   4.710   4.322   7.928  0.4941  1.5135  0.4450
  177SOPE     N20097   5.122   1.332  10.159 -0.2874 -0.1816  0.1698
  177SOPE   HN120098   5.109   1.407  10.229 -2.0000  0.9895 -1.3693
  177SOPE   HN220099   5.027   1.306  10.124 -0.1994 -1.5307  0.8719
  177SOPE   HN320100   5.167   1.252  10.209  1.3388  0.5978 -0.0413
  177SOPE   C1220101   5.202   1.395  10.055  0.1338  0.5668 -0.5083
  177SOPE  H12A20102   5.192   1.333   9.962  1.1887 -1.1240  0.4732
  177SOPE  H12B20103   5.307   1.387  10.091  0.3350  0.6096 -1.0769
  177SOPE   C1120104   5.171   1.548  10.037 -0.4982  0.1077 -0.2368
  177SOPE  H11A20105   5.073   1.551   9.985 -0.6076  1.5915  0.0506
  177SOPE  H11B20106   5.252   1.601   9.984  0.6559  0.5607  1.9220
  177SOPE     P20107   5.243   1.714  10.217  0.3605  0.0245 -0.2837
  177SOPE   O1320108   5.375   1.653  10.214  0.1683  0.2353  0.4492
  177SOPE   O1420109   5.205   1.781  10.345  0.7732  0.1189  0.0851
  177SOPE   O1220110   5.139   1.608  10.168  0.1535 -0.2962 -0.0536
  177SOPE   O1120111   5.235   1.829  10.104  0.0122  0.4560  0.3584
  177SOPE    C120112   5.110   1.865  10.042 -0.5431  0.2172 -0.0091
  177SOPE    HA20113   5.058   1.940  10.105  1.8773  1.1527  0.9360
  177SOPE    HB20114   5.038   1.783  10.021  2.6268 -2.2400 -1.8257
  177SOPE    C220115   5.133   1.939   9.904 -0.4017  0.7163  0.2309
  177SOPE    HS20116   5.038   1.969   9.856  0.4405  0.9440 -1.3450
  177SOPE   O2120117   5.184   1.844   9.816  0.1543  0.3668  0.5636
  177SOPE   C2120118   5.101   1.757   9.762  0.3352 -0.0311 -0.2649
  177SOPE   O2220119   4.980   1.754   9.783 -1.0663 -1.0220 -0.2729
  177SOPE   C2220120   5.187   1.657   9.680 -0.3013 -0.4905  0.0683
  177SOPE   H2R20121   5.114   1.574   9.664 -1.5288  0.4017  0.9582
  177SOPE   H2S20122   5.269   1.607   9.737  0.1822 -2.0998 -1.9898
  177SOPE    C320123   5.221   2.053   9.912 -0.1958  0.5079  0.1406
  177SOPE    HX20124   5.321   2.008   9.933 -0.4664  0.2461  0.8951
  177SOPE    HY20125   5.192   2.115  10.000  0.4431  1.0187 -0.0004
  177SOPE   O3120126   5.224   2.125   9.790 -0.3932 -0.5185 -0.1344
  177SOPE   C3120127   5.132   2.215   9.762  0.3670 -0.2932  0.2416
  177SOPE   O3220128   5.030   2.227   9.821  0.4386 -0.2002 -0.3392
  177SOPE   C3220129   5.163   2.297   9.636  0.6169  0.3884  0.3791
  177SOPE   H2X20130   5.237   2.368   9.680  1.5664 -0.0060 -0.5625
  177SOPE   H2Y20131   5.067   2.351   9.618  0.7061  0.0452 -1.1584
  177SOPE   C2320132   5.234   1.722   9.548  0.3087  0.0220  0.4957
  177SOPE   H3R20133   5.167   1.808   9.526 -0.2030 -0.2649  0.9008
  177SOPE   H3S20134   5.215   1.641   9.474  2.2869 -0.7282  0.7692
  177SOPE   C2420135   5.381   1.753   9.535  0.5314 -0.4584 -0.0518
  177SOPE   H4R20136   5.439   1.661   9.560  1.4374  0.6124  1.9004
  177SOPE   H4S20137   5.399   1.773   9.427  3.5162 -1.9481  0.1105
  177SOPE   C2520138   5.422   1.874   9.616  0.0353 -1.2571 -0.8329
  177SOPE   H5R20139   5.342   1.950   9.621  0.2868 -1.1242  1.2837
  177SOPE   H5S20140   5.443   1.842   9.720 -2.4244 -1.3964 -0.3478
  177SOPE   C2620141   5.552   1.945   9.560  0.3987 -0.7412  0.2549
  177SOPE   H6R20142   5.628   1.866   9.544 -1.0566 -1.8098 -1.7842
  177SOPE   H6S20143   5.524   1.987   9.461  1.2114 -2.3096 -0.6575
  177SOPE   C2720144   5.615   2.051   9.650 -0.2331 -0.3019  0.2168
  177SOPE   H7R20145   5.543   2.130   9.681  0.0267  1.4479 -3.3374
  177SOPE   H7S20146   5.642   1.995   9.742  1.1923 -0.0437 -0.0393
  177SOPE   C2820147   5.746   2.109   9.582  0.3488 -0.0170  0.1917
  177SOPE   H8R20148   5.813   2.154   9.658 -1.5114  3.2273  0.0067
  177SOPE   H8S20149   5.787   2.020   9.528  1.1591  1.7174 -2.1335
  177SOPE   C2920150   5.719   2.211   9.477  0.2107 -0.0595  0.2396
  177SOPE   H9120151   5.708   2.314   9.513 -2.2949  1.0807 -3.4770
  177SOPE  C21020152   5.698   2.191   9.344  0.7562  0.6612 -0.0175
  177SOPE  H10120153   5.688   2.280   9.280 -3.4987 -0.8241 -1.6391
  177SOPE  C21120154   5.688   2.047   9.281 -0.5065 -0.8958  0.1676
  177SOPE  H11R20155   5.696   1.963   9.353  1.7071 -0.4998  0.4008
  177SOPE  H11S20156   5.775   2.026   9.216 -0.5915 -0.2626 -0.1509
  177SOPE  C21220157   5.565   2.007   9.195  0.0778  0.9942  0.1125
  177SOPE  H12R20158   5.547   2.079   9.112 -1.0148 -1.2304 -1.6396
  177SOPE  H12S20159   5.476   2.003   9.261 -0.1997  1.1217 -0.2472
  177SOPE  C21320160   5.576   1.863   9.139  0.6896  0.0538  0.3960
  177SOPE  H13R20161   5.563   1.793   9.224  0.8333 -0.9102 -0.3591
  177SOPE  H13S20162   5.676   1.835   9.101  0.4487 -0.4845  0.1445
  177SOPE  C21420163   5.469   1.825   9.036  0.4762  0.0623  0.2894
  177SOPE  H14R20164   5.368   1.846   9.077  0.2451 -0.2794 -0.1028
  177SOPE  H14S20165   5.488   1.718   9.013  0.7581 -0.1643  1.5238
  177SOPE  C21520166   5.485   1.904   8.908  0.4333  0.2967  0.2785
  177SOPE  H15R20167   5.580   1.870   8.861 -0.4839 -2.3185  0.2276
  177SOPE  H15S20168   5.482   2.014   8.923  0.4648  0.3539 -0.1255
  177SOPE  C21620169   5.368   1.865   8.818  0.5190  0.7377 -0.0913
  177SOPE  H16R20170   5.290   1.923   8.873 -0.6817  0.9198 -1.9627
  177SOPE  H16S20171   5.342   1.758   8.817 -0.0503  0.8682  0.5157
  177SOPE  C21720172   5.389   1.919   8.676 -0.3784 -0.2881  0.7401
  177SOPE  H17R20173   5.322   1.851   8.619 -0.5286 -0.0459  0.6289
  177SOPE  H17S20174   5.494   1.889   8.652 -0.3518 -1.0781  1.8195
  177SOPE  C21820175   5.352   2.068   8.671  0.2321  0.1082 -0.5810
  177SOPE  H18R20176   5.359   2.102   8.565 -1.8720 -0.2500 -0.8627
  177SOPE  H18S20177   5.435   2.124   8.720  1.8794 -0.9806 -2.0761
  177SOPE  H18T20178   5.257   2.095   8.721 -0.7496 -0.4881 -2.0976
  177SOPE   C3320179   5.204   2.224   9.511  0.7092  0.2901  0.3477
  177SOPE   H3X20180   5.289   2.153   9.527  1.1229  0.3490 -1.4749
  177SOPE   H3Y20181   5.227   2.293   9.427 -0.7801  0.9759  0.4916
  177SOPE   C3420182   5.087   2.145   9.468  0.3016 -0.1342  0.1419
  177SOPE   H4X20183   5.005   2.211   9.431  0.2857 -0.2958 -0.1128
  177SOPE   H4Y20184   5.049   2.075   9.545  1.6741 -1.6110 -0.4983
  177SOPE   C3520185   5.128   2.065   9.342  0.0240  0.0271 -0.4068
  177SOPE   H5X20186   5.219   2.009   9.372  0.8904  1.3916 -0.4384
  177SOPE   H5Y20187   5.151   2.137   9.260 -0.8899 -1.5513 -2.0623
  177SOPE   C3620188   5.020   1.965   9.287 -0.3807 -0.3398 -0.7791
  177SOPE   H6X20189   4.935   2.026   9.249  0.2959  0.9184 -0.3175
  177SOPE   H6Y20190   4.976   1.905   9.369 -0.7803  0.3717 -0.4732
  177SOPE   C3720191   5.073   1.876   9.171  0.0963 -0.5049  0.5755
  177SOPE   H7X20192   5.176   1.848   9.202  0.1431 -2.3807 -1.1691
  177SOPE   H7Y20193   5.080   1.931   9.074 -0.3640 -1.3716  0.0395
  177SOPE   C3820194   5.001   1.743   9.160  0.1898  0.0261 -0.1872
  177SOPE   H8X20195   4.970   1.704   9.259  0.9324  1.1046  0.4719
  177SOPE   H8Y20196   5.080   1.676   9.121  0.3572  0.5780 -0.8094
  177SOPE   C3920197   4.877   1.743   9.066  0.2613 -0.5263 -1.0175
  177SOPE   H9X20198   4.799   1.809   9.109  1.5447  1.5326 -1.7959
  177SOPE   H9Y20199   4.840   1.639   9.081  1.2120 -0.7404 -0.1788
  177SOPE  C31020200   4.920   1.757   8.923  0.6711  0.1554 -0.6860
  177SOPE  H10X20201   4.996   1.680   8.897  0.1723 -1.1538  1.6085
  177SOPE  H10Y20202   4.970   1.854   8.902  2.0262  0.1202  2.1881
  177SOPE  C31120203   4.791   1.754   8.842 -0.7371 -0.1330 -0.4108
  177SOPE  H11X20204   4.712   1.820   8.884  0.9983 -0.1777  3.1056
  177SOPE  H11Y20205   4.756   1.649   8.844  0.1334 -0.4190  0.3200
  177SOPE  C31220206   4.826   1.781   8.700  0.1992  0.3627 -0.3686
  177SOPE  H12X20207   4.756   1.717   8.642  0.4267  1.0267 -1.3757
  177SOPE  H12Y20208   4.925   1.740   8.671  0.0054 -1.6944  1.7128
  177SOPE  C31320209   4.790   1.927   8.664  0.4736 -0.2921  0.4554
  177SOPE  H13X20210   4.848   2.005   8.718 -0.5113  1.1299 -0.4994
  177SOPE  H13Y20211   4.680   1.932   8.681  0.7697 -1.2171  2.8398
  177SOPE  C31420212   4.823   1.953   8.511 -0.4288 -0.1265  0.5474
  177SOPE  H14X20213   4.775   2.045   8.470 -1.3933  0.2957  2.5920
  177SOPE  H14Y20214   4.787   1.869   8.448  0.7144 -1.3351  1.4659
  177SOPE  C31520215   4.973   1.968   8.486 -0.2359 -1.0370 -0.1687
  177SOPE  H15X20216   5.030   1.875   8.508  0.5507 -0.0134  2.2764
  177SOPE  H15Y20217   5.010   2.045   8.556 -1.8892  0.8223 -1.3198
  177SOPE  C31620218   5.000   2.001   8.339 -0.6353 -0.9146  0.2570
  177SOPE  H16X20219   4.949   2.093   8.303  2.5297  0.8063  0.0534
  177SOPE  H16Y20220   4.947   1.921   8.282 -2.7054 -0.0590  0.9341
  177SOPE  C31720221   5.144   2.004   8.286  0.1808 -0.4900  0.0788
  177SOPE  H17X20222   5.205   1.915   8.311  3.4372  1.5851 -0.1611
  177SOPE  H17Y20223   5.201   2.092   8.323 -0.4318 -0.2410  0.4492
  177SOPE  C31820224   5.137   2.009   8.137 -0.1126  0.3798  0.1231
  177SOPE  H18X20225   5.241   2.018   8.099 -0.3450  2.6322  0.0103
  177SOPE  H18Y20226   5.082   2.100   8.106  1.2961  0.8490 -1.0526
  177SOPE  H18Z20227   5.093   1.915   8.098 -0.3054  0.6042 -0.1924
  178SOPE     N20228   2.365   7.198  10.220 -0.2598  0.1740 -0.0638
  178SOPE   HN120229   2.331   7.290  10.254  1.0509  0.5971  0.0991
  178SOPE   HN220230   2.334   7.126  10.288 -0.2600 -0.7097 -0.9777
  178SOPE   HN320231   2.468   7.199  10.223 -0.2044 -0.1625 -1.5491
  178SOPE   C1220232   2.301   7.177  10.091 -0.6954 -0.1505 -0.6362
  178SOPE  H12A20233   2.329   7.261  10.024  1.6831  0.2126  0.7544
  178SOPE  H12B20234   2.191   7.191  10.090 -0.4019  2.3614 -2.0720
  178SOPE   C1120235   2.343   7.048  10.019  0.3151  0.3878  0.2840
  178SOPE  H11A20236   2.453   7.052  10.002 -0.0567 -0.3818 -2.5472
  178SOPE  H11B20237   2.288   7.053   9.922  0.9498  1.2839 -0.0379
  178SOPE     P20238   2.201   6.836  10.059  0.0887  0.0752 -0.5933
  178SOPE   O1320239   2.074   6.900  10.082 -0.4034 -0.0664 -0.0636
  178SOPE   O1420240   2.232   6.700  10.125  0.0957 -0.2016 -0.0655
  178SOPE   O1220241   2.319   6.929  10.088  0.0515  0.1844 -0.5486
  178SOPE   O1120242   2.220   6.820   9.903 -0.0492  0.1478  0.1112
  178SOPE    C120243   2.280   6.709   9.837 -0.1973 -0.4635 -0.0146
  178SOPE    HA20244   2.210   6.626   9.813 -1.6230  0.5666  0.5600
  178SOPE    HB20245   2.364   6.665   9.896 -0.8492 -0.6707  0.7734
  178SOPE    C220246   2.339   6.776   9.709 -0.2837 -0.1259  0.2840
  178SOPE    HS20247   2.383   6.707   9.634 -0.4309 -0.4038  0.4493
  178SOPE   O2120248   2.436   6.872   9.749  0.0608 -0.0418  0.5398
  178SOPE   C2120249   2.554   6.809   9.774  0.6332 -0.0104  0.9540
  178SOPE   O2220250   2.573   6.686   9.763 -0.3551 -0.9126 -0.0874
  178SOPE   C2220251   2.643   6.902   9.856  0.4460 -0.1096  0.6905
  178SOPE   H2R20252   2.625   6.878   9.963 -0.5921 -1.2464  0.2703
  178SOPE   H2S20253   2.614   7.008   9.836  1.8760  0.0103 -0.7957
  178SOPE    C320254   2.225   6.849   9.629 -0.4388  0.3411 -0.7272
  178SOPE    HX20255   2.185   6.918   9.706 -2.3440  1.2043 -2.4278
  178SOPE    HY20256   2.142   6.778   9.603 -1.7325  2.0301 -1.2951
  178SOPE   O3120257   2.265   6.919   9.511 -0.6896 -0.0826  0.7181
  178SOPE   C3120258   2.185   7.007   9.460  0.0171 -0.3521 -0.6611
  178SOPE   O3220259   2.071   7.024   9.503  0.4815  0.0676 -0.2867
  178SOPE   C3220260   2.252   7.088   9.358  0.2661 -0.1673 -1.1193
  178SOPE   H2X20261   2.289   7.026   9.274  0.7385  0.9098 -1.7128
  178SOPE   H2Y20262   2.342   7.136   9.402 -0.8628 -1.6470  3.1204
  178SOPE   C2320263   2.792   6.883   9.825  0.7380 -0.0490 -0.4244
  178SOPE   H3R20264   2.795   6.901   9.715  0.0887  2.4828 -0.0697
  178SOPE   H3S20265   2.821   6.780   9.853 -3.4190 -1.5072 -1.0808
  178SOPE   C2420266   2.885   6.987   9.892  0.2903  0.2579 -0.2158
  178SOPE   H4R20267   2.876   6.985  10.002  1.8245  1.5176 -0.0541
  178SOPE   H4S20268   2.993   6.958   9.884  0.0260 -0.6101 -0.8054
  178SOPE   C2520269   2.869   7.128   9.836  0.1941 -0.8581 -0.9463
  178SOPE   H5R20270   2.876   7.125   9.725  1.1628 -1.1849 -0.8859
  178SOPE   H5S20271   2.769   7.168   9.860  1.7201  4.4502 -2.7877
  178SOPE   C2620272   2.967   7.230   9.904 -1.0700  0.2537 -0.0167
  178SOPE   H6R20273   2.955   7.238  10.015 -2.3041  2.0019 -0.2499
  178SOPE   H6S20274   3.070   7.198   9.879 -1.9068 -1.0614 -1.9256
  178SOPE   C2720275   2.957   7.369   9.853 -0.6415 -0.3848 -0.2295
  178SOPE   H7R20276   2.854   7.407   9.866 -0.3557 -0.0429  1.0693
  178SOPE   H7S20277   3.028   7.431   9.913 -1.2656 -0.4792  0.6039
  178SOPE   C2820278   2.996   7.396   9.702  0.0911 -0.4301 -0.4554
  178SOPE   H8R20279   3.103   7.369   9.689  0.8243  1.1290  2.0256
  178SOPE   H8S20280   2.941   7.340   9.623 -0.7044  1.0568 -0.9601
  178SOPE   C2920281   2.970   7.543   9.685  0.1834 -0.1024 -0.1105
  178SOPE   H9120282   2.867   7.572   9.709  1.2106  2.5194  1.2758
  178SOPE  C21020283   3.066   7.628   9.653  0.4198  0.6184  0.4265
  178SOPE  H10120284   3.027   7.728   9.629  1.3072  0.9726  0.4288
  178SOPE  C21120285   3.207   7.605   9.630 -1.1684 -0.0456 -0.0846
  178SOPE  H11R20286   3.228   7.496   9.626 -0.2345  0.0703  1.4025
  178SOPE  H11S20287   3.260   7.654   9.714 -1.4217 -2.4093  1.5071
  178SOPE  C21220288   3.263   7.658   9.496  0.0252  0.5159  0.1800
  178SOPE  H12R20289   3.372   7.636   9.497  0.3126  1.6637 -2.2576
  178SOPE  H12S20290   3.249   7.767   9.478 -0.6131  0.7260  1.8578
  178SOPE  C21320291   3.201   7.586   9.376 -0.9296  0.2206  0.1882
  178SOPE  H13R20292   3.093   7.611   9.368 -0.4479  1.4566 -3.1274
  178SOPE  H13S20293   3.212   7.476   9.386 -0.1934  0.3315  0.6548
  178SOPE  C21420294   3.291   7.610   9.248 -0.4592 -0.3103 -0.0524
  178SOPE  H14R20295   3.399   7.593   9.267 -0.4513  0.7893  0.9338
  178SOPE  H14S20296   3.279   7.717   9.219 -0.4033 -0.4615 -0.6378
  178SOPE  C21520297   3.260   7.531   9.122 -0.1033 -0.2793  0.3567
  178SOPE  H15R20298   3.293   7.432   9.162 -5.9167 -1.4542  2.6677
  178SOPE  H15S20299   3.331   7.547   9.038 -0.2377 -2.0975 -0.1255
  178SOPE  C21620300   3.118   7.533   9.070  0.5033  0.5216 -0.7301
  178SOPE  H16R20301   3.091   7.630   9.022  0.3223  1.6874  1.6553
  178SOPE  H16S20302   3.050   7.532   9.157 -0.7222 -0.3084 -1.6806
  178SOPE  C21720303   3.082   7.420   8.967  0.7372  0.3229 -0.3710
  178SOPE  H17R20304   3.115   7.445   8.864 -0.4640 -0.0259 -0.8620
  178SOPE  H17S20305   2.972   7.421   8.948  1.0630  0.8434 -2.2692
  178SOPE  C21820306   3.121   7.283   9.015  0.4597  0.1102 -0.0907
  178SOPE  H18R20307   3.042   7.211   8.984 -0.5148  1.3890 -0.6283
  178SOPE  H18S20308   3.116   7.289   9.126 -1.2844  1.6998 -0.2293
  178SOPE  H18T20309   3.226   7.254   8.994  1.0616  0.6122  2.0601
  178SOPE   C3320310   2.160   7.194   9.294  0.6246 -0.0348 -0.1125
  178SOPE   H3X20311   2.114   7.274   9.357 -1.9790 -1.3216 -0.3118
  178SOPE   H3Y20312   2.072   7.140   9.253  1.1627  0.3844 -1.8871
  178SOPE   C3420313   2.214   7.252   9.159  0.1283  0.1272 -0.4349
  178SOPE   H4X20314   2.139   7.326   9.124 -0.7214  0.2782  1.6262
  178SOPE   H4Y20315   2.217   7.167   9.088  1.3591  1.0908 -1.5679
  178SOPE   C3520316   2.347   7.332   9.164 -1.0774 -0.0820 -0.3654
  178SOPE   H5X20317   2.408   7.259   9.222 -2.6594 -0.7636  0.4782
  178SOPE   H5Y20318   2.335   7.427   9.219 -0.0375 -1.0399  1.5712
  178SOPE   C3620319   2.419   7.343   9.032 -0.6692 -0.0962 -0.9120
  178SOPE   H6X20320   2.358   7.399   8.958 -0.2168 -0.2448 -1.3926
  178SOPE   H6Y20321   2.448   7.248   8.982  0.3078 -0.2907 -0.0102
  178SOPE   C3720322   2.557   7.422   9.056  0.5784  0.8433  0.6723
  178SOPE   H7X20323   2.601   7.390   9.152 -0.1546  1.1669  1.1209
  178SOPE   H7Y20324   2.532   7.530   9.062  0.1692  0.8871 -1.3084
  178SOPE   C3820325   2.660   7.393   8.943  0.0992 -0.0930 -0.9310
  178SOPE   H8X20326   2.699   7.289   8.940  0.2012 -0.0631 -0.6407
  178SOPE   H8Y20327   2.750   7.452   8.970 -1.6086  1.8496  0.6316
  178SOPE   C3920328   2.603   7.424   8.805  1.1827  0.5164  0.8270
  178SOPE   H9X20329   2.523   7.498   8.827 -0.2233 -0.4064 -1.0273
  178SOPE   H9Y20330   2.553   7.335   8.762  0.1945 -0.2748  3.4819
  178SOPE  C31020331   2.710   7.477   8.708  0.6499 -0.5473  0.8318
  178SOPE  H10X20332   2.806   7.423   8.722  1.2188  0.9012  2.6610
  178SOPE  H10Y20333   2.740   7.582   8.725  4.1545 -1.5706  1.2657
  178SOPE  C31120334   2.662   7.463   8.559 -0.5438  0.7084 -0.8867
  178SOPE  H11X20335   2.565   7.514   8.539 -0.3186  1.2442 -0.6319
  178SOPE  H11Y20336   2.656   7.356   8.531  2.1336  0.0736  0.7592
  178SOPE  C31220337   2.765   7.519   8.460  0.4157 -0.0447  0.0254
  178SOPE  H12X20338   2.863   7.487   8.501  1.0570 -0.2771 -1.6420
  178SOPE  H12Y20339   2.760   7.630   8.460  0.6505 -0.0245 -1.3752
  178SOPE  C31320340   2.714   7.483   8.321 -0.4868  0.4726 -0.3363
  178SOPE  H13X20341   2.613   7.527   8.314 -0.4472  0.7352  0.6849
  178SOPE  H13Y20342   2.695   7.374   8.324 -1.0273  0.5506 -0.7801
  178SOPE  C31420343   2.793   7.536   8.205 -0.1398  0.3935  0.8058
  178SOPE  H14X20344   2.801   7.646   8.218  1.2436  0.0954  2.7695
  178SOPE  H14Y20345   2.734   7.515   8.113  0.2867 -1.6220  0.9712
  178SOPE  C31520346   2.939   7.485   8.198  0.4305  0.6401 -0.0828
  178SOPE  H15X20347   2.915   7.377   8.186  1.0439  0.7103 -2.2943
  178SOPE  H15Y20348   2.997   7.516   8.287 -2.2725  0.6929  1.7324
  178SOPE  C31620349   3.029   7.525   8.078  0.9149  0.1959  0.3505
  178SOPE  H16X20350   3.064   7.630   8.088 -0.7383  0.6857  1.2091
  178SOPE  H16Y20351   2.978   7.519   7.979  0.9740 -1.3453  0.4048
  178SOPE  C31720352   3.156   7.443   8.060 -0.3588 -0.0340  0.7530
  178SOPE  H17X20353   3.216   7.474   7.972 -1.7802 -0.3668 -0.3461
  178SOPE  H17Y20354   3.123   7.337   8.047  0.4060  0.0572 -2.1618
  178SOPE  C31820355   3.254   7.447   8.172 -0.5927 -0.9893  0.6982
  178SOPE  H18X20356   3.318   7.537   8.173 -0.2308 -1.1843 -1.9074
  178SOPE  H18Y20357   3.322   7.361   8.159 -1.5741 -1.5078 -1.1258
  178SOPE  H18Z20358   3.203   7.433   8.270 -2.1047 -0.3920  0.0233
  179SOPE     N20359   4.002   3.929   6.281 -0.0868  0.1265 -0.0170
  179SOPE   HN120360   4.100   3.964   6.285 -0.5465  1.3765  0.4204
  179SOPE   HN220361   3.968   3.957   6.187  1.0795  0.2572 -0.4050
  179SOPE   HN320362   3.942   3.968   6.356 -1.6133 -0.8345 -0.7176
  179SOPE   C1220363   3.986   3.776   6.281  0.0537 -0.4719  1.0908
  179SOPE  H12A20364   3.878   3.751   6.284 -0.4703  1.5031 -0.2943
  179SOPE  H12B20365   4.037   3.736   6.372 -0.6849 -2.2551  0.7264
  179SOPE   C1120366   4.049   3.709   6.155  0.2674 -0.0929 -0.0356
  179SOPE  H11A20367   4.023   3.601   6.153 -0.6768  0.1331 -0.2658
  179SOPE  H11B20368   4.160   3.709   6.166  0.3693 -0.1880 -1.0768
  179SOPE     P20369   4.034   3.690   5.898  0.0895 -0.4425  0.0236
  179SOPE   O1320370   4.068   3.773   5.779 -0.1466 -0.0561 -0.5801
  179SOPE   O1420371   3.909   3.613   5.881  0.4799 -0.5062  0.0418
  179SOPE   O1220372   4.016   3.778   6.033  0.3410  0.3655  0.3197
  179SOPE   O1120373   4.153   3.595   5.942 -0.6102  0.4918  0.0061
  179SOPE    C120374   4.161   3.463   5.874 -0.5997  0.2091  0.4244
  179SOPE    HA20375   4.174   3.472   5.764  0.7284 -0.4378  0.5049
  179SOPE    HB20376   4.076   3.393   5.888  0.0434 -0.5417  0.6532
  179SOPE    C220377   4.294   3.380   5.916  0.2597 -0.6199  0.0819
  179SOPE    HS20378   4.267   3.272   5.907 -0.1093 -0.4174 -1.2748
  179SOPE   O2120379   4.342   3.407   6.048 -0.1755  0.3337  0.0114
  179SOPE   C2120380   4.272   3.388   6.155 -0.1412  0.2796  0.8821
  179SOPE   O2220381   4.155   3.357   6.160  0.2880  0.1793 -0.0459
  179SOPE   C2220382   4.370   3.413   6.279  0.4492 -0.0907  0.2655
  179SOPE   H2R20383   4.404   3.516   6.256  1.1186 -0.4524 -0.3679
  179SOPE   H2S20384   4.462   3.352   6.274  0.2750 -0.2126 -1.6927
  179SOPE    C320385   4.414   3.398   5.816 -0.0868  0.1406 -0.2683
  179SOPE    HX20386   4.420   3.508   5.802  1.4019  0.2381  0.9455
  179SOPE    HY20387   4.385   3.363   5.715  1.2549 -0.9763 -0.2759
  179SOPE   O3120388   4.543   3.355   5.859 -0.1875 -0.3558 -0.1014
  179SOPE   C3120389   4.572   3.221   5.839  0.3530  0.4176  0.5770
  179SOPE   O3220390   4.493   3.142   5.797  0.3862 -0.1089  0.3458
  179SOPE   C3220391   4.712   3.192   5.896 -0.0225  0.0828  0.2075
  179SOPE   H2X20392   4.756   3.276   5.953 -1.0216  0.9017 -0.2013
  179SOPE   H2Y20393   4.777   3.188   5.806  0.2720  0.7689  0.3901
  179SOPE   C2320394   4.286   3.407   6.420 -0.4084  0.4443 -0.4429
  179SOPE   H3R20395   4.263   3.300   6.443 -1.4661  0.7181 -0.1913
  179SOPE   H3S20396   4.198   3.474   6.427  1.5549  2.9984  0.5672
  179SOPE   C2420397   4.380   3.436   6.536  0.4453 -0.4526 -0.8843
  179SOPE   H4R20398   4.480   3.387   6.539  0.6850  0.0279 -0.8913
  179SOPE   H4S20399   4.395   3.546   6.540  1.8624 -0.6119 -1.4466
  179SOPE   C2520400   4.316   3.390   6.669 -0.1899 -0.1049 -0.2779
  179SOPE   H5R20401   4.221   3.445   6.684  0.4081  1.1694 -1.0525
  179SOPE   H5S20402   4.285   3.284   6.666 -1.0660  0.1147  0.6867
  179SOPE   C2620403   4.413   3.426   6.788 -0.2920 -0.3951 -0.9419
  179SOPE   H6R20404   4.502   3.359   6.786 -0.9934 -1.4067  0.8161
  179SOPE   H6S20405   4.444   3.532   6.777 -2.0291  0.3945  1.2815
  179SOPE   C2720406   4.333   3.413   6.920 -0.3046  0.2071  0.3769
  179SOPE   H7R20407   4.249   3.483   6.895  0.1970  0.1263 -1.6773
  179SOPE   H7S20408   4.295   3.310   6.935 -1.9279  0.5301 -1.2163
  179SOPE   C2820409   4.420   3.448   7.045 -0.7415 -0.9170 -0.1352
  179SOPE   H8R20410   4.467   3.547   7.024 -0.1096 -1.0799  0.5043
  179SOPE   H8S20411   4.348   3.465   7.128 -0.8711  0.2182 -0.4696
  179SOPE   C2920412   4.523   3.342   7.084  0.1923 -0.0942 -0.3926
  179SOPE   H9120413   4.603   3.317   7.013  1.3986 -4.1883  2.2048
  179SOPE  C21020414   4.509   3.257   7.198 -0.5823 -0.5472  0.2421
  179SOPE  H10120415   4.596   3.194   7.220 -1.6873 -2.6488 -1.2160
  179SOPE  C21120416   4.405   3.242   7.303 -0.3773  0.3369 -0.4155
  179SOPE  H11R20417   4.402   3.132   7.320 -3.6020  0.1780 -1.8307
  179SOPE  H11S20418   4.303   3.280   7.282 -0.5364 -0.0324 -0.3155
  179SOPE  C21220419   4.447   3.313   7.434 -0.6549  0.2612 -0.0092
  179SOPE  H12R20420   4.372   3.303   7.515  0.9567  1.9276  1.7489
  179SOPE  H12S20421   4.458   3.424   7.425  0.6175  0.2385  1.1081
  179SOPE  C21320422   4.584   3.272   7.496 -0.4074  0.0123  0.3984
  179SOPE  H13R20423   4.593   3.325   7.593  0.1606 -2.8650  1.9769
  179SOPE  H13S20424   4.663   3.296   7.422  0.1829  0.3147  1.1194
  179SOPE  C21420425   4.617   3.119   7.528  0.2752  0.6910  0.0529
  179SOPE  H14R20426   4.719   3.121   7.573  0.3244 -1.0344  0.0290
  179SOPE  H14S20427   4.620   3.055   7.438  2.1892 -0.2684  0.7829
  179SOPE  C21520428   4.532   3.064   7.637 -0.3021  0.0752  0.2708
  179SOPE  H15R20429   4.543   2.955   7.655  0.5564  0.0784 -0.2003
  179SOPE  H15S20430   4.426   3.079   7.607 -0.3352 -2.4637 -1.0179
  179SOPE  C21620431   4.543   3.125   7.775  0.3710 -0.0631 -0.7222
  179SOPE  H16R20432   4.448   3.097   7.826  0.2443  1.3103 -0.1889
  179SOPE  H16S20433   4.544   3.234   7.754 -1.0855  0.4340  1.6234
  179SOPE  C21720434   4.669   3.095   7.862 -0.1939  0.0921 -0.8317
  179SOPE  H17R20435   4.680   3.166   7.947 -0.9963  1.0376 -1.5099
  179SOPE  H17S20436   4.755   3.100   7.793  0.4594 -1.9205 -0.1840
  179SOPE  C21820437   4.671   2.956   7.917 -0.5040  0.0165  0.2601
  179SOPE  H18R20438   4.604   2.949   8.006  0.5981  2.9333  1.3822
  179SOPE  H18S20439   4.775   2.931   7.948 -0.6762  0.0439  0.8786
  179SOPE  H18T20440   4.642   2.876   7.846 -0.8116  1.7428 -1.5915
  179SOPE   C3320441   4.709   3.077   5.998 -0.3325  0.7839  0.5417
  179SOPE   H3X20442   4.814   3.040   6.003  0.5148  3.1594  1.1174
  179SOPE   H3Y20443   4.656   2.983   5.972 -0.6176  0.8823  0.7624
  179SOPE   C3420444   4.661   3.119   6.136 -0.1416  0.0547  0.0091
  179SOPE   H4X20445   4.556   3.152   6.118  0.1983  1.0036 -0.3190
  179SOPE   H4Y20446   4.715   3.200   6.189  1.2356 -0.1298 -1.0664
  179SOPE   C3520447   4.660   3.007   6.242 -0.0336  0.9154  0.1696
  179SOPE   H5X20448   4.768   2.980   6.244 -0.1581  0.3546 -0.5544
  179SOPE   H5Y20449   4.597   2.926   6.198  1.8109  1.6219 -4.0270
  179SOPE   C3620450   4.617   3.042   6.377  0.2693  0.1249 -0.9356
  179SOPE   H6X20451   4.508   3.062   6.381  0.2163 -0.3970  0.5975
  179SOPE   H6Y20452   4.661   3.139   6.407  1.0876 -0.3652 -0.5283
  179SOPE   C3720453   4.667   2.943   6.487 -1.3495  0.9796  0.1050
  179SOPE   H7X20454   4.777   2.925   6.483 -1.5526 -0.5218  0.7542
  179SOPE   H7Y20455   4.642   2.847   6.436  0.1856  0.2584  0.6693
  179SOPE   C3820456   4.593   2.950   6.621 -0.3985  0.3171  0.2511
  179SOPE   H8X20457   4.616   2.860   6.682  1.6969  0.7694  0.1554
  179SOPE   H8Y20458   4.488   2.940   6.587  0.3886 -1.0214 -1.8069
  179SOPE   C3920459   4.620   3.074   6.702 -0.7740  0.3776  0.5795
  179SOPE   H9X20460   4.559   3.081   6.794  0.4619  0.3455  1.4257
  179SOPE   H9Y20461   4.595   3.160   6.637  2.0030 -0.7947 -2.1836
  179SOPE  C31020462   4.770   3.067   6.757  0.2683  0.2292  0.2374
  179SOPE  H10X20463   4.806   3.166   6.792  0.8372 -0.4499  1.6442
  179SOPE  H10Y20464   4.842   3.046   6.675 -0.0000  0.2958 -0.0126
  179SOPE  C31120465   4.787   2.967   6.870 -0.3549  0.5310 -0.9578
  179SOPE  H11X20466   4.818   2.866   6.836  0.0519  1.5085 -3.6503
  179SOPE  H11Y20467   4.688   2.957   6.920  0.9501 -3.6860  0.9914
  179SOPE  C31220468   4.878   3.014   6.985 -0.3549 -0.4045 -0.0301
  179SOPE  H12X20469   4.838   3.105   7.035 -1.8273  0.3943 -2.5521
  179SOPE  H12Y20470   4.977   3.049   6.950 -1.2336  1.5095 -0.6926
  179SOPE  C31320471   4.895   2.916   7.100  0.0802  0.0959 -0.3008
  179SOPE  H13X20472   4.948   2.825   7.067 -0.1883  0.5504 -2.0651
  179SOPE  H13Y20473   4.790   2.878   7.105  0.3760 -0.7555 -0.5388
  179SOPE  C31420474   4.935   2.978   7.234 -0.0860 -0.6014 -0.1425
  179SOPE  H14X20475   4.868   3.064   7.254 -0.4240 -1.2973  1.9149
  179SOPE  H14Y20476   5.039   3.016   7.229 -0.7559  1.3510  0.5997
  179SOPE  C31520477   4.925   2.891   7.367  0.0140 -0.5335 -0.4832
  179SOPE  H15X20478   4.969   2.790   7.352 -1.0963 -1.3777  1.5816
  179SOPE  H15Y20479   4.821   2.853   7.379 -0.1537  0.3142  0.9147
  179SOPE  C31620480   4.974   2.965   7.491 -0.2197 -0.1759 -0.3955
  179SOPE  H16X20481   4.918   3.059   7.511  0.2138 -0.1436  0.6515
  179SOPE  H16Y20482   5.078   3.000   7.476 -0.8837  1.2406 -1.7837
  179SOPE  C31720483   4.962   2.879   7.619  0.2801 -0.2878 -0.3263
  179SOPE  H17X20484   5.033   2.795   7.606 -0.8973 -0.8706 -3.3654
  179SOPE  H17Y20485   4.862   2.830   7.628  0.7726 -0.7655  3.6434
  179SOPE  C31820486   5.006   2.948   7.753 -0.0241 -0.0765  0.0408
  179SOPE  H18X20487   4.933   3.031   7.766 -0.3493 -0.2132 -0.8923
  179SOPE  H18Y20488   5.107   2.986   7.730  0.2302  0.0170  1.2591
  179SOPE  H18Z20489   5.001   2.890   7.849  1.4166  1.8654  1.3174
  180SOPE     N20490   3.880   1.066   5.748 -0.0166  0.4926 -0.2874
  180SOPE   HN120491   3.882   1.147   5.682 -0.3446  0.9253  0.2271
  180SOPE   HN220492   3.957   1.002   5.721 -0.8632 -1.2558  1.3829
  180SOPE   HN320493   3.798   1.008   5.722 -1.8177  2.8482 -0.0568
  180SOPE   C1220494   3.882   1.101   5.901 -0.0007 -0.3818  1.3492
  180SOPE  H12A20495   3.830   1.012   5.943 -0.5314 -1.2676 -1.0873
  180SOPE  H12B20496   3.824   1.194   5.916 -1.8137 -1.5263  1.5576
  180SOPE   C1120497   4.021   1.127   5.965 -0.1731  0.0589  0.1714
  180SOPE  H11A20498   4.075   1.030   5.954 -0.9363 -0.3477  0.0149
  180SOPE  H11B20499   4.013   1.156   6.073  0.7141  1.9088 -0.2300
  180SOPE     P20500   4.235   1.265   5.936  0.3017  0.0424 -0.1498
  180SOPE   O1320501   4.277   1.377   5.848  0.3353 -0.4866 -0.0524
  180SOPE   O1420502   4.315   1.144   5.924  0.3854 -0.2388  0.0656
  180SOPE   O1220503   4.078   1.243   5.898 -1.0187 -0.3829 -0.0047
  180SOPE   O1120504   4.223   1.312   6.087 -0.1913  0.0114  0.8114
  180SOPE    C120505   4.337   1.331   6.165 -0.0758  0.1134 -0.2615
  180SOPE    HA20506   4.370   1.437   6.163 -0.1258  0.1434  0.3206
  180SOPE    HB20507   4.426   1.282   6.121 -0.4225  0.5377 -1.4686
  180SOPE    C220508   4.303   1.289   6.309 -0.5190 -0.5581  0.1587
  180SOPE    HS20509   4.386   1.304   6.381 -1.5261 -1.2758  1.4947
  180SOPE   O2120510   4.254   1.158   6.313  0.3477  0.4164 -0.0413
  180SOPE   C2120511   4.334   1.061   6.254  0.4683 -0.4005  0.2156
  180SOPE   O2220512   4.451   1.079   6.231  0.2823  0.1378  0.2168
  180SOPE   C2220513   4.249   0.940   6.227 -0.4794  0.1171  0.4005
  180SOPE   H2R20514   4.262   0.916   6.119 -2.7763  1.1058 -0.1135
  180SOPE   H2S20515   4.142   0.955   6.249 -0.4189  1.5186 -0.2188
  180SOPE    C320516   4.184   1.371   6.369  0.1610 -0.6743 -0.2988
  180SOPE    HX20517   4.106   1.378   6.290  0.6890 -0.8683 -0.8414
  180SOPE    HY20518   4.230   1.471   6.381  0.0292 -0.5910 -0.5060
  180SOPE   O3120519   4.137   1.311   6.491 -0.2726 -0.2841 -0.1218
  180SOPE   C3120520   4.221   1.297   6.594  0.3498  0.4569 -0.1982
  180SOPE   O3220521   4.340   1.327   6.594  0.2465 -0.0585  0.5254
  180SOPE   C3220522   4.146   1.241   6.713  0.7145 -0.5060 -0.6238
  180SOPE   H2X20523   4.059   1.309   6.726 -0.1090 -1.3599 -1.5543
  180SOPE   H2Y20524   4.209   1.267   6.801  1.3943 -0.2989 -1.1694
  180SOPE   C2320525   4.294   0.820   6.310 -0.5370 -0.9151 -1.1865
  180SOPE   H3R20526   4.405   0.811   6.305 -0.2385  0.4744  1.6709
  180SOPE   H3S20527   4.253   0.726   6.269 -0.2624 -3.2540  3.6115
  180SOPE   C2420528   4.262   0.838   6.465 -0.6930 -0.8465  0.4688
  180SOPE   H4R20529   4.295   0.933   6.512  0.8001 -1.7437  1.2851
  180SOPE   H4S20530   4.152   0.840   6.483 -1.1697 -0.3570 -2.3594
  180SOPE   C2520531   4.332   0.721   6.542 -0.7102 -0.1385  0.7453
  180SOPE   H5R20532   4.294   0.626   6.499 -0.7068  0.0346  0.3555
  180SOPE   H5S20533   4.442   0.711   6.539 -0.6529  0.4362  0.7956
  180SOPE   C2620534   4.286   0.721   6.690  0.2351  0.3764 -0.5632
  180SOPE   H6R20535   4.326   0.809   6.743 -2.9006 -0.3679  3.2449
  180SOPE   H6S20536   4.176   0.722   6.678  0.3256  0.6406 -1.4248
  180SOPE   C2720537   4.313   0.588   6.758 -0.3452 -1.0279 -0.7990
  180SOPE   H7R20538   4.270   0.506   6.697 -0.9806 -0.9787 -0.4193
  180SOPE   H7S20539   4.422   0.568   6.755  0.2114  1.6725 -0.3434
  180SOPE   C2820540   4.256   0.594   6.901  0.2603  0.2729 -0.6325
  180SOPE   H8R20541   4.308   0.683   6.942 -0.3807  0.1750  0.4075
  180SOPE   H8S20542   4.146   0.611   6.896  0.4255  1.2114 -1.2207
  180SOPE   C2920543   4.294   0.469   6.977 -0.2697 -0.2558 -0.4818
  180SOPE   H9120544   4.309   0.379   6.916 -0.8699 -0.4335 -0.3686
  180SOPE  C21020545   4.320   0.458   7.110  0.0953 -0.2008 -0.2375
  180SOPE  H10120546   4.339   0.359   7.155 -1.3540 -1.0380 -1.4098
  180SOPE  C21120547   4.324   0.572   7.209 -0.5254  0.0471  0.5009
  180SOPE  H11R20548   4.265   0.658   7.171 -0.0609  1.1000  2.1003
  180SOPE  H11S20549   4.428   0.604   7.228 -1.6683  2.2812  3.3432
  180SOPE  C21220550   4.280   0.536   7.353  0.4797 -0.0576  0.2530
  180SOPE  H12R20551   4.348   0.465   7.404  1.3536 -0.4638 -1.4464
  180SOPE  H12S20552   4.182   0.483   7.353 -1.1320  2.7993  1.7833
  180SOPE  C21320553   4.287   0.663   7.439  0.9360 -0.8777 -0.2345
  180SOPE  H13R20554   4.217   0.741   7.401  0.3645 -0.7116  1.1362
  180SOPE  H13S20555   4.390   0.697   7.462  0.0639  1.4377  0.3621
  180SOPE  C21420556   4.225   0.626   7.578 -0.9889 -0.5135 -0.3413
  180SOPE  H14R20557   4.271   0.532   7.614  2.9562  1.0843 -1.0078
  180SOPE  H14S20558   4.118   0.602   7.558 -1.4127 -0.9568  2.3183
  180SOPE  C21520559   4.238   0.743   7.676 -0.4177 -0.0949 -0.0522
  180SOPE  H15R20560   4.155   0.746   7.751  0.2057  0.4398  0.6239
  180SOPE  H15S20561   4.235   0.845   7.632  0.6278 -0.0078  0.0820
  180SOPE  C21620562   4.356   0.734   7.777  0.0392 -0.2351  0.7719
  180SOPE  H16R20563   4.365   0.840   7.811 -1.6087  0.9090 -2.1483
  180SOPE  H16S20564   4.448   0.704   7.723  0.4359 -1.9481  2.3588
  180SOPE  C21720565   4.326   0.654   7.901  0.2830 -0.7504  0.4242
  180SOPE  H17R20566   4.305   0.554   7.859  0.1436 -0.6545  0.2643
  180SOPE  H17S20567   4.235   0.695   7.951 -0.5942 -1.4741 -0.5727
  180SOPE  C21820568   4.447   0.641   7.991  0.6242  0.6214  0.2424
  180SOPE  H18R20569   4.538   0.608   7.935  2.2079  2.8024  1.4572
  180SOPE  H18S20570   4.434   0.561   8.068  0.9793  0.7790  0.4675
  180SOPE  H18T20571   4.472   0.738   8.039 -0.2994  0.5976  0.7845
  180SOPE   C3320572   4.096   1.100   6.707 -0.2753 -0.2270  0.0841
  180SOPE   H3X20573   4.190   1.042   6.692  0.8560  1.8611 -1.2328
  180SOPE   H3Y20574   4.030   1.103   6.618  0.1587  1.8947 -0.2068
  180SOPE   C3420575   4.007   1.049   6.826 -0.0920 -0.0459  0.2670
  180SOPE   H4X20576   3.993   0.940   6.813  1.2170 -0.2317  0.2982
  180SOPE   H4Y20577   3.915   1.105   6.803 -0.4460 -0.7437 -0.0202
  180SOPE   C3520578   4.068   1.061   6.968 -0.4092 -0.2390  0.2589
  180SOPE   H5X20579   4.085   1.166   6.998  0.4439 -0.8733  2.1339
  180SOPE   H5Y20580   4.165   1.008   6.974 -0.9264 -1.6414 -2.6655
  180SOPE   C3620581   3.980   0.981   7.064  0.6053 -0.7359 -0.0991
  180SOPE   H6X20582   3.975   0.876   7.027 -2.0366 -1.0224  0.9443
  180SOPE   H6Y20583   3.877   1.020   7.046  0.7005 -1.6614 -2.9930
  180SOPE   C3720584   4.027   0.978   7.207  0.3428 -0.1344  0.2381
  180SOPE   H7X20585   4.033   1.084   7.242 -0.0223  0.0815 -0.3446
  180SOPE   H7Y20586   4.126   0.927   7.215  1.2873  1.7159  0.6106
  180SOPE   C3820587   3.932   0.902   7.305  0.1882 -0.1052 -0.0204
  180SOPE   H8X20588   3.958   0.795   7.291  3.3766  0.3626  1.7092
  180SOPE   H8Y20589   3.824   0.918   7.285  0.9234  1.2496 -3.1663
  180SOPE   C3920590   3.959   0.936   7.456 -0.1419 -0.0119  0.3119
  180SOPE   H9X20591   3.926   1.042   7.461 -0.1277  0.0906 -1.4658
  180SOPE   H9Y20592   4.065   0.916   7.484 -0.1910  0.7704  1.1065
  180SOPE  C31020593   3.873   0.856   7.556 -0.3533 -0.1636  0.0498
  180SOPE  H10X20594   3.926   0.759   7.570 -0.9237 -0.2458  1.7913
  180SOPE  H10Y20595   3.771   0.845   7.514 -0.7584  0.6028  0.8126
  180SOPE  C31120596   3.851   0.913   7.701 -0.4690  0.1746 -0.4197
  180SOPE  H11X20597   3.805   1.014   7.705 -0.5444  0.0713  1.7948
  180SOPE  H11Y20598   3.954   0.928   7.737 -0.3667 -0.3295 -0.5001
  180SOPE  C31220599   3.782   0.803   7.789 -0.7433  0.1910  0.1432
  180SOPE  H12X20600   3.810   0.809   7.896 -0.1218 -1.6029  0.0935
  180SOPE  H12Y20601   3.806   0.701   7.753 -1.9514 -0.8007  2.0559
  180SOPE  C31320602   3.630   0.817   7.787  0.1446 -0.1901 -0.1465
  180SOPE  H13X20603   3.595   0.832   7.683 -1.5499 -1.5561  0.2011
  180SOPE  H13Y20604   3.592   0.898   7.853 -1.5926 -1.2471  0.1921
  180SOPE  C31420605   3.553   0.701   7.847  0.6768 -0.2059 -0.1442
  180SOPE  H14X20606   3.452   0.725   7.887  1.2199 -1.5483  2.1201
  180SOPE  H14Y20607   3.606   0.670   7.940  0.6140 -1.0716 -0.3932
  180SOPE  C31520608   3.553   0.575   7.755 -0.2075  0.3226  0.1665
  180SOPE  H15X20609   3.539   0.498   7.834  0.3819  2.5185  2.5114
  180SOPE  H15Y20610   3.649   0.558   7.703 -0.3601  0.0899 -0.0421
  180SOPE  C31620611   3.428   0.572   7.663 -0.7110 -0.2294  0.0711
  180SOPE  H16X20612   3.437   0.476   7.608 -0.7607  0.3694 -0.9901
  180SOPE  H16Y20613   3.435   0.658   7.594 -1.7837 -1.3633 -1.4856
  180SOPE  C31720614   3.291   0.582   7.726  0.7822  0.2809 -0.2393
  180SOPE  H17X20615   3.218   0.567   7.644  1.6074 -1.2639 -0.7198
  180SOPE  H17Y20616   3.268   0.681   7.769  0.3149  0.4196 -0.8014
  180SOPE  C31820617   3.262   0.471   7.836 -0.2906  0.5187  0.1690
  180SOPE  H18X20618   3.258   0.367   7.798 -1.1811  0.0296  1.5422
  180SOPE  H18Y20619   3.177   0.491   7.906  0.1151 -0.9496  1.1137
  180SOPE  H18Z20620   3.346   0.479   7.909 -0.3880  0.2272  0.3145
  181SOPE     N20621   3.019   7.243   6.179 -0.1457 -0.1667  0.4170
  181SOPE   HN120622   3.078   7.223   6.262  1.1354  0.4600 -0.3329
  181SOPE   HN220623   3.056   7.333   6.143  0.3375 -0.2391  0.7392
  181SOPE   HN320624   2.915   7.251   6.185 -0.0460  0.3356  1.6571
  181SOPE   C1220625   3.059   7.125   6.081 -0.7527 -0.8153  0.1627
  181SOPE  H12A20626   2.990   7.043   6.114 -0.3271 -0.3394  2.3503
  181SOPE  H12B20627   3.165   7.090   6.085 -0.8330 -1.1008 -0.1513
  181SOPE   C1120628   3.035   7.165   5.927 -0.2128 -0.4847  0.3121
  181SOPE  H11A20629   2.937   7.219   5.926 -0.2396 -0.5146 -3.1439
  181SOPE  H11B20630   3.029   7.071   5.869 -0.9636 -0.9045  1.0504
  181SOPE     P20631   3.125   7.403   5.868  0.3247 -0.7063  0.3323
  181SOPE   O1320632   2.994   7.440   5.817  0.0071  0.6434  0.4226
  181SOPE   O1420633   3.239   7.468   5.797  0.0558 -0.5077 -1.1038
  181SOPE   O1220634   3.148   7.243   5.880 -0.5089 -0.3896  0.4536
  181SOPE   O1120635   3.122   7.455   6.014 -0.8881  0.1523 -0.0214
  181SOPE    C120636   3.247   7.461   6.092  0.6000 -0.3876 -0.4184
  181SOPE    HA20637   3.328   7.493   6.023  0.1939 -1.2578 -1.3285
  181SOPE    HB20638   3.274   7.360   6.129 -0.9908 -0.2586  1.1888
  181SOPE    C220639   3.248   7.553   6.218  0.1653  0.6187  0.7057
  181SOPE    HS20640   3.353   7.584   6.238  0.2712 -0.0755  1.2606
  181SOPE   O2120641   3.178   7.480   6.321 -0.3330  0.4696  0.3297
  181SOPE   C2120642   3.189   7.517   6.444 -0.3668 -0.0672  0.1618
  181SOPE   O2220643   3.282   7.585   6.494 -0.0190  0.6216  0.8295
  181SOPE   C2220644   3.068   7.469   6.529 -0.0530 -0.5288 -0.5141
  181SOPE   H2R20645   2.998   7.401   6.476 -0.3917 -0.5557 -0.0277
  181SOPE   H2S20646   3.018   7.561   6.565  2.9523  1.4973 -1.2567
  181SOPE    C320647   3.172   7.689   6.195  0.2388 -0.0297 -0.2567
  181SOPE    HX20648   3.069   7.660   6.168  0.1243  1.5778 -1.6339
  181SOPE    HY20649   3.208   7.747   6.107 -3.1865 -1.8627 -3.0042
  181SOPE   O3120650   3.174   7.786   6.311  0.7367  0.2182 -0.1092
  181SOPE   C3120651   3.301   7.851   6.313 -0.0765  0.0100  0.8056
  181SOPE   O3220652   3.391   7.840   6.234 -0.1598  0.6066  0.2720
  181SOPE   C3220653   3.297   7.952   6.428 -0.4210 -0.0349 -0.2354
  181SOPE   H2X20654   3.277   7.898   6.523  0.0514  0.1099 -0.0484
  181SOPE   H2Y20655   3.217   8.025   6.402  0.0510  0.4015 -0.4703
  181SOPE   C2320656   3.142   7.402   6.651  0.2047 -0.3097 -0.7871
  181SOPE   H3R20657   3.199   7.481   6.703  0.9647 -0.2865 -1.6437
  181SOPE   H3S20658   3.217   7.331   6.611 -1.6814 -1.2484 -2.8213
  181SOPE   C2420659   3.045   7.336   6.748 -0.2850 -0.0137 -0.0170
  181SOPE   H4R20660   2.968   7.407   6.784 -1.2395 -1.3993  0.7356
  181SOPE   H4S20661   2.998   7.255   6.689  2.5821 -1.0055 -1.0392
  181SOPE   C2520662   3.119   7.270   6.868  0.7587  0.0039  0.0509
  181SOPE   H5R20663   3.195   7.203   6.822  0.6987  1.5831 -2.4596
  181SOPE   H5S20664   3.166   7.349   6.929  0.1643  1.4151 -1.2850
  181SOPE   C2620665   3.031   7.189   6.961  0.3932  0.1171 -0.0358
  181SOPE   H6R20666   2.949   7.233   7.021 -2.5627 -3.9394 -0.9266
  181SOPE   H6S20667   2.956   7.136   6.899  0.9785 -1.2447  0.4034
  181SOPE   C2720668   3.099   7.065   7.027  0.2994 -0.2729 -0.2313
  181SOPE   H7R20669   3.023   7.004   7.080 -0.1337  1.1087  0.7824
  181SOPE   H7S20670   3.152   7.009   6.948  0.4848  0.4966 -0.6573
  181SOPE   C2820671   3.200   7.104   7.143 -0.0776  0.1648 -0.1835
  181SOPE   H8R20672   3.258   7.193   7.111 -2.0147  1.1138 -1.1983
  181SOPE   H8S20673   3.140   7.147   7.226  0.1804 -0.8053  0.5024
  181SOPE   C2920674   3.292   6.997   7.186 -0.0175 -1.1487  0.3022
  181SOPE   H9120675   3.394   7.003   7.145  0.0666  0.8371  0.7388
  181SOPE  C21020676   3.260   6.901   7.278 -0.3430 -0.3355  0.3057
  181SOPE  H10120677   3.341   6.835   7.313  0.4205  1.1441  1.3999
  181SOPE  C21120678   3.130   6.882   7.351 -0.0814  0.4245 -0.4117
  181SOPE  H11R20679   3.089   6.780   7.338  0.6294  0.0594  0.2271
  181SOPE  H11S20680   3.054   6.947   7.301 -0.5610 -0.1429 -0.4305
  181SOPE  C21220681   3.148   6.925   7.497  0.3176  0.0056  0.1267
  181SOPE  H12R20682   3.176   7.032   7.496  4.2855 -0.9621 -1.2354
  181SOPE  H12S20683   3.242   6.878   7.532  0.1162 -0.0847  0.5467
  181SOPE  C21320684   3.027   6.924   7.585 -0.7865 -0.2978  0.3265
  181SOPE  H13R20685   2.978   6.824   7.581 -2.8706  0.7266 -0.4469
  181SOPE  H13S20686   2.946   6.990   7.549  0.1348 -0.2283 -1.6954
  181SOPE  C21420687   3.064   6.962   7.731  0.1583  0.8695 -0.1403
  181SOPE  H14R20688   3.104   7.066   7.731  0.3324  0.8079  0.6991
  181SOPE  H14S20689   3.145   6.900   7.774 -0.9118 -0.2459  0.2727
  181SOPE  C21520690   2.944   6.963   7.823 -0.3832  0.1824  0.0851
  181SOPE  H15R20691   2.902   6.865   7.855  0.4441 -0.4547 -0.7850
  181SOPE  H15S20692   2.859   7.014   7.772  0.4232  1.4567 -0.0098
  181SOPE  C21620693   2.989   7.033   7.954 -0.5122 -0.3761 -0.2672
  181SOPE  H16R20694   3.035   7.132   7.935  0.6720 -0.5099  1.7286
  181SOPE  H16S20695   3.066   6.969   8.003  0.0434  0.7606  0.3643
  181SOPE  C21720696   2.872   7.033   8.056 -1.0683  0.8124  0.0590
  181SOPE  H17R20697   2.785   7.089   8.014 -1.7825 -0.6087 -0.3602
  181SOPE  H17S20698   2.923   7.092   8.136 -1.1237  0.5217  0.3072
  181SOPE  C21820699   2.847   6.897   8.124  0.5648 -0.5586  0.1497
  181SOPE  H18R20700   2.925   6.867   8.197  2.4206  3.8185  0.1458
  181SOPE  H18S20701   2.835   6.815   8.050 -0.1748  0.2255 -0.6077
  181SOPE  H18T20702   2.750   6.900   8.177  0.3580 -2.7090 -0.0942
  181SOPE   C3320703   3.433   8.023   6.441 -0.1394  0.4325  0.0801
  181SOPE   H3X20704   3.457   8.091   6.357  3.4829 -0.4215  0.3248
  181SOPE   H3Y20705   3.517   7.951   6.435 -1.5317 -1.3269  1.2029
  181SOPE   C3420706   3.441   8.109   6.569  0.4261  0.0327 -0.3337
  181SOPE   H4X20707   3.420   8.043   6.656  0.5164  0.7441  0.2332
  181SOPE   H4Y20708   3.355   8.179   6.569 -0.8085 -1.4441 -0.0132
  181SOPE   C3520709   3.574   8.181   6.576  0.6060 -0.0127  1.2670
  181SOPE   H5X20710   3.570   8.273   6.515 -1.7047 -0.0918  1.2387
  181SOPE   H5Y20711   3.662   8.122   6.544 -0.0068  0.0863 -0.6554
  181SOPE   C3620712   3.593   8.250   6.713 -0.1155  0.5350 -0.5299
  181SOPE   H6X20713   3.509   8.322   6.724 -0.0591  0.3825  1.0038
  181SOPE   H6Y20714   3.688   8.308   6.709  0.9546 -1.2120 -0.9629
  181SOPE   C3720715   3.591   8.158   6.836 -0.3322 -0.4662 -0.1651
  181SOPE   H7X20716   3.693   8.116   6.842  0.5246  1.5878 -0.0413
  181SOPE   H7Y20717   3.521   8.072   6.827 -1.3686  0.0246  2.4999
  181SOPE   C3820718   3.559   8.238   6.966 -0.2199  0.6668  0.2576
  181SOPE   H8X20719   3.491   8.324   6.945 -1.2401 -0.3522 -0.6888
  181SOPE   H8Y20720   3.651   8.295   6.989  0.6925 -0.5616 -0.3302
  181SOPE   C3920721   3.506   8.156   7.084  0.7755  0.3788 -0.1070
  181SOPE   H9X20722   3.571   8.068   7.105  0.1348  0.4913  2.5326
  181SOPE   H9Y20723   3.411   8.118   7.040  1.0059  1.4843 -1.5973
  181SOPE  C31020724   3.480   8.236   7.213  0.2260 -0.8736 -0.3634
  181SOPE  H10X20725   3.426   8.330   7.187 -0.3093 -1.3052 -0.8589
  181SOPE  H10Y20726   3.580   8.265   7.250 -0.2132 -0.1382  0.2689
  181SOPE  C31120727   3.409   8.158   7.329 -0.0240 -0.0041 -0.2003
  181SOPE  H11X20728   3.424   8.215   7.423  1.3399 -1.7754  0.6869
  181SOPE  H11Y20729   3.453   8.057   7.344 -0.4904 -0.0728  0.7429
  181SOPE  C31220730   3.256   8.166   7.300 -0.5989  1.0077 -0.1378
  181SOPE  H12X20731   3.239   8.100   7.212  0.1689  1.9851 -1.0336
  181SOPE  H12Y20732   3.227   8.271   7.276 -2.2039  0.5169 -0.3992
  181SOPE  C31320733   3.168   8.119   7.420  0.3245  0.0538 -0.4265
  181SOPE  H13X20734   3.190   8.181   7.510 -0.1725  0.5757 -0.6551
  181SOPE  H13Y20735   3.189   8.014   7.449  1.1727  0.8715  2.0155
  181SOPE  C31420736   3.019   8.154   7.400 -0.4125  0.3212 -0.8644
  181SOPE  H14X20737   3.011   8.265   7.391 -0.8093  0.5151  1.5633
  181SOPE  H14Y20738   2.955   8.123   7.485 -0.1492 -1.5403 -1.3343
  181SOPE  C31520739   2.955   8.098   7.278  0.7740  0.2103  0.5871
  181SOPE  H15X20740   2.958   7.987   7.278  3.1845  0.2318 -0.6309
  181SOPE  H15Y20741   3.021   8.128   7.194 -0.5800  1.8217  0.0852
  181SOPE  C31620742   2.809   8.145   7.248 -0.1583 -0.1582  0.1793
  181SOPE  H16X20743   2.814   8.256   7.247 -0.5636 -0.1057 -3.9695
  181SOPE  H16Y20744   2.729   8.106   7.314  0.6151  0.2086  1.3649
  181SOPE  C31720745   2.755   8.103   7.108 -0.5788 -0.5073  0.9118
  181SOPE  H17X20746   2.764   7.992   7.115 -0.4793 -0.7060 -1.8678
  181SOPE  H17Y20747   2.818   8.148   7.028  1.4180  0.9351  3.2162
  181SOPE  C31820748   2.613   8.148   7.089 -0.7730 -0.3229 -0.0321
  181SOPE  H18X20749   2.574   8.113   6.991  2.5464  0.2671 -1.6350
  181SOPE  H18Y20750   2.603   8.258   7.100  1.6988 -0.0080 -0.5630
  181SOPE  H18Z20751   2.550   8.112   7.173 -0.2623 -0.6537  0.2112
  182SOPE     N20752   4.631   1.041   6.023 -0.3988  0.1114 -0.6942
  182SOPE   HN120753   4.610   1.086   5.931 -0.1297  1.2283 -0.2247
  182SOPE   HN220754   4.591   0.946   6.028 -0.3950  0.2153  1.3375
  182SOPE   HN320755   4.571   1.093   6.090  0.8714 -2.1383  2.2519
  182SOPE   C1220756   4.777   1.048   6.051 -0.2530  0.6625 -0.2569
  182SOPE  H12A20757   4.793   0.994   6.147  0.5287  0.0747 -0.7144
  182SOPE  H12B20758   4.813   1.153   6.060 -2.5422  1.2738  2.4696
  182SOPE   C1120759   4.869   0.976   5.950 -0.2611  0.3031 -0.1325
  182SOPE  H11A20760   4.865   1.037   5.857 -1.4848  0.4520  0.0042
  182SOPE  H11B20761   4.835   0.872   5.930  1.0149 -0.0233 -0.6790
  182SOPE     P20762   5.106   0.886   5.919  0.1611  0.0869 -0.0066
  182SOPE   O1320763   5.232   0.883   5.999  0.9408  0.2575  0.2309
  182SOPE   O1420764   5.122   0.937   5.778 -0.5640  0.3837  0.3801
  182SOPE   O1220765   5.003   0.981   5.994  0.3321 -0.0936 -0.2341
  182SOPE   O1120766   5.038   0.741   5.924 -0.5852  0.4736 -0.4534
  182SOPE    C120767   5.013   0.686   6.057 -0.0752 -0.2621 -0.4727
  182SOPE    HA20768   4.939   0.744   6.117  0.7172  0.2409  0.0256
  182SOPE    HB20769   5.106   0.682   6.116  0.1136 -0.6616 -0.8001
  182SOPE    C220770   4.956   0.537   6.039  0.3264 -0.4735  0.5284
  182SOPE    HS20771   4.869   0.550   5.972 -1.1938  1.5307  2.8189
  182SOPE   O2120772   4.923   0.471   6.164  0.2413 -0.5502  0.7290
  182SOPE   C2120773   4.809   0.507   6.216  0.1174 -0.1287  0.2255
  182SOPE   O2220774   4.729   0.586   6.171 -0.6534 -0.2299 -0.4383
  182SOPE   C2220775   4.787   0.433   6.346  0.8688  0.0584 -0.6259
  182SOPE   H2R20776   4.872   0.476   6.404 -0.7729 -2.0336  3.5416
  182SOPE   H2S20777   4.808   0.324   6.349 -0.2369 -0.1998 -1.8243
  182SOPE    C320778   5.063   0.450   5.972  0.5388 -0.1193  0.4642
  182SOPE    HX20779   5.100   0.515   5.890  0.3775  2.2282  2.2078
  182SOPE    HY20780   5.017   0.357   5.932  0.1236  1.0234 -1.7682
  182SOPE   O3120781   5.175   0.423   6.066  0.3832  0.4308  0.1786
  182SOPE   C3120782   5.160   0.301   6.131 -0.8853 -0.3903  0.0422
  182SOPE   O3220783   5.076   0.219   6.107  0.6359  0.2128  0.1196
  182SOPE   C3220784   5.257   0.291   6.246 -0.1525 -0.9959  0.4365
  182SOPE   H2X20785   5.258   0.387   6.302  0.4797  0.2124 -1.6016
  182SOPE   H2Y20786   5.351   0.275   6.189 -0.1956  1.3763 -0.3303
  182SOPE   C2320787   4.647   0.464   6.407  0.3278  0.5495  0.0279
  182SOPE   H3R20788   4.565   0.418   6.348 -0.5069  0.0094  1.5813
  182SOPE   H3S20789   4.617   0.571   6.407 -0.2263  0.3960 -0.9982
  182SOPE   C2420790   4.647   0.398   6.551  0.4711 -0.0608 -0.7445
  182SOPE   H4R20791   4.745   0.385   6.600  0.1972 -2.3607 -0.7496
  182SOPE   H4S20792   4.593   0.472   6.614 -0.2496 -0.9276 -0.3293
  182SOPE   C2520793   4.581   0.253   6.548  0.6304  1.2151  0.0757
  182SOPE   H5R20794   4.473   0.278   6.545  0.4194  0.3564  0.4542
  182SOPE   H5S20795   4.617   0.210   6.452  3.0432  1.3320  0.8976
  182SOPE   C2620796   4.615   0.155   6.662 -0.1630  0.4404  0.3193
  182SOPE   H6R20797   4.596   0.051   6.627 -0.1293  0.3637  0.5288
  182SOPE   H6S20798   4.724   0.146   6.676 -0.0792 -0.6556 -0.9454
  182SOPE   C2720799   4.533   0.189   6.791  0.4833  0.2512  0.5030
  182SOPE   H7R20800   4.578   0.273   6.848  0.2569 -1.0752  2.6570
  182SOPE   H7S20801   4.429   0.224   6.774 -0.2912 -2.0707  0.4238
  182SOPE   C2820802   4.530   0.074   6.894  0.1444  0.0306  0.0630
  182SOPE   H8R20803   4.443   0.091   6.961 -0.2866 -0.5716 -0.3381
  182SOPE   H8S20804   4.527  -0.027   6.849 -0.7473 -0.8152  1.9926
  182SOPE   C2920805   4.649   0.081   6.978  0.2201  0.4103  0.2362
  182SOPE   H9120806   4.748   0.079   6.929  0.0962 -4.0180 -0.0488
  182SOPE  C21020807   4.658   0.091   7.111  0.1373  0.7086 -0.0350
  182SOPE  H10120808   4.762   0.084   7.147  0.5448 -1.1750 -1.4513
  182SOPE  C21120809   4.561   0.102   7.221  0.3680 -0.5016  0.0546
  182SOPE  H11R20810   4.564   0.010   7.284 -1.2609 -0.9082 -0.4450
  182SOPE  H11S20811   4.461   0.124   7.179  0.4621  0.2078  0.1861
  182SOPE  C21220812   4.589   0.227   7.308  0.1944  0.6517 -0.7363
  182SOPE  H12R20813   4.577   0.319   7.248 -3.9726  0.2175 -0.7093
  182SOPE  H12S20814   4.694   0.224   7.346  1.2479  3.9793 -3.1558
  182SOPE  C21320815   4.498   0.238   7.439 -0.5524 -0.4472  0.1334
  182SOPE  H13R20816   4.515   0.140   7.489  1.5516 -1.2322 -2.0354
  182SOPE  H13S20817   4.390   0.254   7.415 -0.1161  0.8402 -1.0592
  182SOPE  C21420818   4.547   0.342   7.539  0.6152  0.9203 -0.1260
  182SOPE  H14R20819   4.462   0.381   7.598  0.1612 -1.3614  0.7462
  182SOPE  H14S20820   4.592   0.429   7.485  3.2574 -0.1521  0.2539
  182SOPE  C21520821   4.657   0.292   7.634  0.1874 -0.1125  0.3471
  182SOPE  H15R20822   4.739   0.249   7.573 -1.1471 -1.5787 -0.4576
  182SOPE  H15S20823   4.616   0.208   7.693  1.7238 -0.9828  0.2147
  182SOPE  C21620824   4.709   0.388   7.741 -0.3554  0.4016 -0.4602
  182SOPE  H16R20825   4.643   0.405   7.828  0.4110  0.4934  0.1138
  182SOPE  H16S20826   4.719   0.482   7.683 -2.2667 -0.2270 -1.8724
  182SOPE  C21720827   4.853   0.356   7.790 -0.9495 -0.8760 -0.1467
  182SOPE  H17R20828   4.921   0.373   7.704  0.7035 -0.7370  1.1580
  182SOPE  H17S20829   4.846   0.249   7.821 -1.1368 -0.9168 -0.3305
  182SOPE  C21820830   4.886   0.448   7.905 -0.6248  0.1151 -0.8148
  182SOPE  H18R20831   4.987   0.436   7.949 -0.7927 -2.6892 -1.1349
  182SOPE  H18S20832   4.807   0.441   7.983  1.7928 -0.4328  1.6636
  182SOPE  H18T20833   4.878   0.550   7.861 -1.6625 -0.8589 -2.9967
  182SOPE   C3320834   5.211   0.188   6.355 -0.7679 -0.0591  0.7994
  182SOPE   H3X20835   5.242   0.089   6.315 -0.5262  0.3041  0.0930
  182SOPE   H3Y20836   5.103   0.194   6.380 -0.3589 -1.1819  3.0118
  182SOPE   C3420837   5.295   0.208   6.481 -0.1656 -0.2034 -0.0385
  182SOPE   H4X20838   5.253   0.294   6.537 -1.4838 -0.5193 -0.5212
  182SOPE   H4Y20839   5.403   0.227   6.466  0.2885 -1.5909  1.2231
  182SOPE   C3520840   5.290   0.088   6.577  0.2658  0.2363  0.4850
  182SOPE   H5X20841   5.338   0.000   6.530 -1.3571 -0.8796  0.8744
  182SOPE   H5Y20842   5.183   0.057   6.585 -0.2803  1.8663 -0.1668
  182SOPE   C3620843   5.350   0.114   6.715  0.2798  0.2280 -0.3611
  182SOPE   H6X20844   5.417   0.203   6.708  1.7934 -0.8874 -0.4318
  182SOPE   H6Y20845   5.414   0.029   6.747 -2.7529 -3.0283 -2.5206
  182SOPE   C3720846   5.249   0.160   6.831 -0.1522 -0.6118 -0.2011
  182SOPE   H7X20847   5.182   0.232   6.779 -1.8068  0.1350  2.8464
  182SOPE   H7Y20848   5.305   0.231   6.895 -1.6329 -0.7175  1.2136
  182SOPE   C3820849   5.166   0.049   6.900  0.0051 -0.3438  0.9005
  182SOPE   H8X20850   5.231  -0.037   6.926 -0.5356 -0.4074  2.0873
  182SOPE   H8Y20851   5.087   0.018   6.828  0.0735  1.1966  0.1436
  182SOPE   C3920852   5.077   0.108   7.017 -0.5184 -0.2258  0.8997
  182SOPE   H9X20853   4.988   0.043   7.031  0.6676 -1.2017  4.2070
  182SOPE   H9Y20854   5.047   0.208   6.981 -0.5178 -0.0506  1.3890
  182SOPE  C31020855   5.153   0.100   7.145  0.7979  0.1692  0.2658
  182SOPE  H10X20856   5.259   0.131   7.131  0.9848 -0.6021 -0.0428
  182SOPE  H10Y20857   5.165  -0.007   7.173  1.9621  0.3103  0.3367
  182SOPE  C31120858   5.087   0.181   7.264 -0.2590 -0.1016  0.1989
  182SOPE  H11X20859   4.983   0.150   7.284 -0.4398  0.9004  0.8472
  182SOPE  H11Y20860   5.060   0.279   7.220 -1.7539 -1.3655 -1.7362
  182SOPE  C31220861   5.160   0.191   7.396  0.1711 -0.8233 -0.8113
  182SOPE  H12X20862   5.130   0.281   7.454  0.5973 -1.6352  0.6948
  182SOPE  H12Y20863   5.271   0.187   7.392  0.1244 -0.7798 -2.2597
  182SOPE  C31320864   5.123   0.070   7.487  0.4133  0.6708  0.4236
  182SOPE  H13X20865   5.211   0.059   7.553  2.0080  0.8006 -1.6453
  182SOPE  H13Y20866   5.108  -0.003   7.405 -0.2464  0.8948  0.3328
  182SOPE  C31420867   4.998   0.081   7.571 -0.3085  0.4199 -0.3923
  182SOPE  H14X20868   4.907   0.112   7.514 -1.0648 -3.9262 -1.7113
  182SOPE  H14Y20869   5.017   0.152   7.655 -1.4712  0.3636 -0.0738
  182SOPE  C31520870   4.962  -0.048   7.655  0.1513  0.6052 -0.8617
  182SOPE  H15X20871   5.049  -0.091   7.708 -1.1697 -1.2183 -0.0998
  182SOPE  H15Y20872   4.930  -0.127   7.583 -2.2354 -0.4176  1.2429
  182SOPE  C31620873   4.852  -0.013   7.753  0.7233  0.6090 -0.4002
  182SOPE  H16X20874   4.760   0.028   7.706  2.0475 -0.0057 -3.7224
  182SOPE  H16Y20875   4.888   0.072   7.814 -3.3230 -0.3147  3.6046
  182SOPE  C31720876   4.812  -0.127   7.842 -0.1930  0.8666 -0.1228
  182SOPE  H17X20877   4.768  -0.078   7.931 -0.7603 -0.3588  0.2808
  182SOPE  H17Y20878   4.902  -0.179   7.882 -0.3395  0.1796 -0.6529
  182SOPE  C31820879   4.717  -0.231   7.772  0.7345 -0.0605  0.7874
  182SOPE  H18X20880   4.776  -0.302   7.710  0.9963  2.4421 -1.9568
  182SOPE  H18Y20881   4.636  -0.181   7.715 -0.2018  1.6746  3.5552
  182SOPE  H18Z20882   4.678  -0.296   7.853  0.5839 -0.2926  0.5309
  183SOPE     N20883   6.888   6.207   6.058 -0.1496  0.2540 -0.3533
  183SOPE   HN120884   6.871   6.286   6.122  0.8483  0.7851 -0.7423
  183SOPE   HN220885   6.986   6.206   6.024 -0.3561 -1.7589 -1.0044
  183SOPE   HN320886   6.827   6.211   5.973 -1.2129 -0.6359  0.3399
  183SOPE   C1220887   6.849   6.071   6.122 -0.2089 -0.3110  0.0965
  183SOPE  H12A20888   6.902   6.069   6.220 -1.2384 -0.9982  0.6564
  183SOPE  H12B20889   6.874   5.988   6.053 -2.1210 -1.2402  0.4950
  183SOPE   C1120890   6.692   6.063   6.130  0.3529  0.5212  0.2100
  183SOPE  H11A20891   6.645   6.163   6.141 -1.4433 -0.1477 -1.2514
  183SOPE  H11B20892   6.667   6.027   6.232  0.2496  1.7497  0.6244
  183SOPE     P20893   6.584   5.835   6.069  0.2368  0.0509  0.0195
  183SOPE   O1320894   6.626   5.753   5.953  0.0073  0.0323 -0.4587
  183SOPE   O1420895   6.436   5.857   6.096 -0.3155 -0.1413  0.1096
  183SOPE   O1220896   6.629   5.979   6.037  0.0449  0.1780 -0.2814
  183SOPE   O1120897   6.672   5.809   6.199  0.2523  0.0012 -0.1521
  183SOPE    C120898   6.705   5.669   6.216 -0.0244 -0.9114  0.0405
  183SOPE    HA20899   6.786   5.641   6.145  1.0403  0.3027  0.7406
  183SOPE    HB20900   6.620   5.598   6.217  0.2607 -1.2556 -0.1024
  183SOPE    C220901   6.772   5.665   6.358 -0.0500  0.8931  0.3461
  183SOPE    HS20902   6.819   5.566   6.375 -0.9282  0.1993 -1.1053
  183SOPE   O2120903   6.678   5.694   6.467  0.1000  0.3348 -0.1255
  183SOPE   C2120904   6.587   5.592   6.502  1.0856  0.1064 -0.5388
  183SOPE   O2220905   6.582   5.490   6.439 -0.9142  0.5160  0.0547
  183SOPE   C2220906   6.504   5.627   6.618  0.0801  0.0961 -0.0210
  183SOPE   H2R20907   6.398   5.616   6.588 -0.3111  0.8641  1.0706
  183SOPE   H2S20908   6.515   5.731   6.655  0.1858  0.3909 -0.8711
  183SOPE    C320909   6.885   5.768   6.369  0.7507  0.2205 -0.1709
  183SOPE    HX20910   6.845   5.869   6.393 -1.0303 -0.6972  0.8447
  183SOPE    HY20911   6.936   5.775   6.271  1.3540 -1.4562  0.0081
  183SOPE   O3120912   6.967   5.729   6.472 -0.1759  0.0717 -0.2037
  183SOPE   C3120913   7.091   5.776   6.484 -0.4230 -0.1537  0.3856
  183SOPE   O3220914   7.151   5.852   6.416  0.2301  0.1483  0.7598
  183SOPE   C3220915   7.160   5.698   6.596  0.1706  0.0375  0.2786
  183SOPE   H2X20916   7.260   5.741   6.619 -0.5117  0.5259  2.4356
  183SOPE   H2Y20917   7.187   5.597   6.557 -0.5340  0.1367 -0.4870
  183SOPE   C2320918   6.540   5.523   6.728 -0.7219 -0.8435  0.1469
  183SOPE   H3R20919   6.492   5.427   6.703  1.5742 -2.3907  1.4939
  183SOPE   H3S20920   6.486   5.543   6.823 -1.5168 -1.0077 -0.2706
  183SOPE   C2420921   6.688   5.517   6.761  0.0664 -0.4075  0.1736
  183SOPE   H4R20922   6.755   5.478   6.681  0.2593 -2.3571  1.2528
  183SOPE   H4S20923   6.721   5.618   6.793  2.9406 -1.0619 -0.5813
  183SOPE   C2520924   6.706   5.420   6.873 -0.6821 -0.2604 -0.3302
  183SOPE   H5R20925   6.632   5.436   6.955 -0.8298  3.3925 -1.0893
  183SOPE   H5S20926   6.698   5.314   6.841 -1.4579 -0.3011 -0.0016
  183SOPE   C2620927   6.838   5.423   6.949  0.6199 -0.3254 -0.2627
  183SOPE   H6R20928   6.922   5.402   6.880  2.0753 -0.7711  1.6144
  183SOPE   H6S20929   6.857   5.526   6.986  2.0923  0.1227 -2.1535
  183SOPE   C2720930   6.877   5.323   7.062 -0.0293 -0.5170  0.4797
  183SOPE   H7R20931   6.847   5.216   7.053 -0.0824 -0.3662 -1.2315
  183SOPE   H7S20932   6.988   5.314   7.066  0.0390  0.2470  0.2393
  183SOPE   C2820933   6.822   5.370   7.206 -0.0698 -0.2584  0.2403
  183SOPE   H8R20934   6.711   5.379   7.205 -0.2717 -2.3811 -0.8639
  183SOPE   H8S20935   6.823   5.280   7.272 -0.5327 -0.3921  0.0652
  183SOPE   C2920936   6.889   5.494   7.254  0.8492  0.2996  0.0352
  183SOPE   H9120937   6.857   5.586   7.203  0.1529  0.0936  0.0935
  183SOPE  C21020938   6.982   5.489   7.352 -0.7746 -0.2006  0.6731
  183SOPE  H10120939   7.009   5.587   7.395  3.0967 -1.3034  0.9494
  183SOPE  C21120940   7.029   5.367   7.428 -0.5738  0.2592  0.2839
  183SOPE  H11R20941   7.140   5.370   7.416 -0.3725 -0.2589  1.8725
  183SOPE  H11S20942   6.997   5.275   7.374 -2.7953  1.4533 -0.5073
  183SOPE  C21220943   6.996   5.370   7.581 -0.1105 -0.1971  0.0857
  183SOPE  H12R20944   6.891   5.403   7.595  0.0612  0.1339  0.6106
  183SOPE  H12S20945   7.065   5.443   7.630 -0.3927  0.5863 -0.6576
  183SOPE  C21320946   6.999   5.232   7.648 -0.4531 -0.5466 -0.2936
  183SOPE  H13R20947   7.105   5.201   7.637 -0.0970 -0.5488  2.6573
  183SOPE  H13S20948   6.929   5.162   7.598 -0.2527 -0.6548 -0.4205
  183SOPE  C21420949   6.961   5.234   7.800 -0.3951 -0.1585  0.0514
  183SOPE  H14R20950   7.033   5.295   7.860 -0.1139 -0.2589 -0.1836
  183SOPE  H14S20951   6.977   5.132   7.841  0.8386  0.5045  1.2900
  183SOPE  C21520952   6.819   5.262   7.828 -0.4752  0.0664  0.0716
  183SOPE  H15R20953   6.765   5.169   7.797  1.8754 -0.8447 -1.4436
  183SOPE  H15S20954   6.793   5.357   7.777  2.5036  1.3747  0.8843
  183SOPE  C21620955   6.788   5.276   7.982  0.5421  0.1948  0.1884
  183SOPE  H16R20956   6.816   5.378   8.016 -0.5466  1.2016 -1.8544
  183SOPE  H16S20957   6.852   5.199   8.030  0.9593 -0.1720 -0.9306
  183SOPE  C21720958   6.642   5.245   8.006 -0.5858  0.4013  0.2555
  183SOPE  H17R20959   6.622   5.147   7.958 -1.4909  0.8241 -0.2396
  183SOPE  H17S20960   6.581   5.329   7.965  1.9885  1.4643 -1.5707
  183SOPE  C21820961   6.602   5.228   8.149  0.3400  0.1002  0.4255
  183SOPE  H18R20962   6.631   5.320   8.204 -1.2934  1.3721 -0.8282
  183SOPE  H18S20963   6.654   5.143   8.200 -0.4619  0.2630  1.5176
  183SOPE  H18T20964   6.492   5.228   8.157  0.3528  1.5730  0.7215
  183SOPE   C3320965   7.092   5.709   6.732  0.3255 -0.3068  0.7172
  183SOPE   H3X20966   7.131   5.619   6.784  0.9833 -0.8251 -0.6593
  183SOPE   H3Y20967   6.983   5.692   6.720  0.5350 -0.1131 -1.6627
  183SOPE   C3420968   7.117   5.852   6.803  0.2227 -0.1376 -0.3852
  183SOPE   H4X20969   7.075   5.936   6.745 -2.4680 -1.6757 -0.7569
  183SOPE   H4Y20970   7.225   5.873   6.818  0.0346  0.8761 -0.4753
  183SOPE   C3520971   7.062   5.854   6.947  0.2946 -0.4940 -0.4267
  183SOPE   H5X20972   7.131   5.799   7.014  2.6400 -0.1022 -2.4592
  183SOPE   H5Y20973   6.973   5.787   6.946 -1.3140  1.5654 -0.1513
  183SOPE   C3620974   7.028   5.997   7.001 -0.5655  0.6575 -0.0410
  183SOPE   H6X20975   6.984   6.064   6.923 -0.2879  1.5327  0.5441
  183SOPE   H6Y20976   7.121   6.046   7.037 -1.2858  0.4053  2.2212
  183SOPE   C3720977   6.926   6.000   7.116 -0.3779 -0.5275  0.1357
  183SOPE   H7X20978   6.829   5.980   7.065  0.2811  1.1992 -1.8698
  183SOPE   H7Y20979   6.932   6.107   7.146  3.4852 -0.5806 -0.1386
  183SOPE   C3820980   6.956   5.917   7.246  0.2634 -0.1405 -0.3753
  183SOPE   H8X20981   7.050   5.957   7.288  0.0373 -0.4613  0.4415
  183SOPE   H8Y20982   6.975   5.811   7.219  1.5712 -0.2392  0.8843
  183SOPE   C3920983   6.835   5.933   7.340  0.8684 -0.6487  0.3057
  183SOPE   H9X20984   6.736   5.924   7.291  0.2577 -0.7740  1.5305
  183SOPE   H9Y20985   6.839   6.039   7.374 -0.0377  0.1052 -1.8597
  183SOPE  C31020986   6.841   5.856   7.471  0.2197  0.4538 -0.3478
  183SOPE  H10X20987   6.928   5.894   7.529  0.3681  0.0488 -0.3055
  183SOPE  H10Y20988   6.853   5.747   7.454 -1.9353  0.0230  0.8150
  183SOPE  C31120989   6.716   5.863   7.566  0.3938  0.8015 -0.2150
  183SOPE  H11X20990   6.626   5.839   7.506  0.2114  0.9715 -0.0139
  183SOPE  H11Y20991   6.710   5.966   7.607 -2.9695  0.4450  0.3270
  183SOPE  C31220992   6.719   5.772   7.695 -0.0541 -0.7453  0.2433
  183SOPE  H12X20993   6.824   5.773   7.729 -0.0920 -0.9730  0.3687
  183SOPE  H12Y20994   6.691   5.667   7.670 -1.1716 -0.2841 -0.5023
  183SOPE  C31320995   6.620   5.829   7.790 -0.2242 -0.0453 -0.5819
  183SOPE  H13X20996   6.541   5.878   7.730  0.3127  2.7932  0.9375
  183SOPE  H13Y20997   6.672   5.900   7.857  1.4323  0.7625 -2.6762
  183SOPE  C31420998   6.568   5.722   7.889  0.4551 -0.4108  0.4268
  183SOPE  H14X20999   6.659   5.670   7.926  0.7550 -0.7784 -0.8045
  183SOPE  H14Y21000   6.500   5.640   7.856 -0.3764  0.7713 -0.8395
  183SOPE  C31521001   6.493   5.786   8.005 -0.7079  0.1696 -0.1844
  183SOPE  H15X21002   6.398   5.833   7.971 -2.5991 -1.6128  2.4915
  183SOPE  H15Y21003   6.555   5.865   8.053  3.4936 -1.5986 -2.4648
  183SOPE  C31621004   6.448   5.689   8.115 -0.8219  0.2483  0.7483
  183SOPE  H16X21005   6.397   5.738   8.201  1.0931  0.3993  1.8304
  183SOPE  H16Y21006   6.540   5.642   8.155 -0.1072  0.6489 -0.3919
  183SOPE  C31721007   6.348   5.593   8.068  0.1396 -0.2536 -0.1875
  183SOPE  H17X21008   6.384   5.534   7.981 -1.2979 -0.6433 -0.5383
  183SOPE  H17Y21009   6.262   5.651   8.027 -0.1387 -0.2820  0.3625
  183SOPE  C31821010   6.295   5.498   8.173  0.6457 -0.0083 -1.1210
  183SOPE  H18X21011   6.213   5.541   8.235 -0.8341 -3.5007 -0.5633
  183SOPE  H18Y21012   6.372   5.448   8.236  0.1418  1.2247  0.5089
  183SOPE  H18Z21013   6.245   5.416   8.118 -1.7971  1.0583 -0.5549
  184SOPE     N21014   4.950   7.283   6.016  0.2399  0.0196  0.0955
  184SOPE   HN121015   4.863   7.288   6.073 -1.2649 -0.3259 -2.0608
  184SOPE   HN221016   4.991   7.377   6.035  0.1054 -0.2419  1.7023
  184SOPE   HN321017   4.916   7.278   5.917  0.3717  0.4234  0.0270
  184SOPE   C1221018   5.031   7.160   6.048 -0.0997 -0.5081 -0.7181
  184SOPE  H12A21019   5.052   7.157   6.157  1.0680 -1.1337 -0.9536
  184SOPE  H12B21020   5.123   7.176   5.987 -0.2373  1.7757 -0.3838
  184SOPE   C1121021   4.968   7.035   5.987 -0.3709 -0.1072 -0.3712
  184SOPE  H11A21022   5.022   6.939   6.004 -3.4002 -1.9011 -0.5580
  184SOPE  H11B21023   4.983   7.059   5.880  1.2062 -0.1028 -0.1685
  184SOPE     P21024   4.730   6.947   5.909  0.5109 -0.2055  0.2377
  184SOPE   O1321025   4.816   6.860   5.828 -0.0590 -0.0630  0.3403
  184SOPE   O1421026   4.647   7.038   5.832  0.5596 -0.1278  0.2118
  184SOPE   O1221027   4.822   7.033   6.004  0.1413 -0.7436 -0.0385
  184SOPE   O1121028   4.651   6.849   5.993 -0.6797 -0.5825 -0.3920
  184SOPE    C121029   4.626   6.859   6.137 -0.1391  0.2169 -0.1117
  184SOPE    HA21030   4.655   6.956   6.183  2.0776 -0.2153 -0.5805
  184SOPE    HB21031   4.674   6.776   6.194  2.5499  1.8379  0.0390
  184SOPE    C221032   4.469   6.872   6.152 -0.5541 -0.5821 -0.2749
  184SOPE    HS21033   4.434   6.931   6.065  1.5448 -0.1775 -0.8681
  184SOPE   O2121034   4.444   6.940   6.278  0.1483  0.2961  0.0831
  184SOPE   C2121035   4.337   7.019   6.271 -0.1332  0.1560  0.4245
  184SOPE   O2221036   4.255   7.023   6.180 -0.0788  0.1279  0.1125
  184SOPE   C2221037   4.326   7.098   6.403  0.0221  0.4226 -0.0709
  184SOPE   H2R21038   4.407   7.174   6.408  0.6764 -0.3220  0.9823
  184SOPE   H2S21039   4.336   7.022   6.483  0.3470  0.2117 -0.3094
  184SOPE    C321040   4.390   6.740   6.148  0.6777  0.0602  0.1981
  184SOPE    HX21041   4.401   6.709   6.042  0.2173 -2.1609  0.7779
  184SOPE    HY21042   4.283   6.761   6.169 -0.5605 -2.3748 -3.3010
  184SOPE   O3121043   4.448   6.635   6.230  0.3363 -0.3745  0.2497
  184SOPE   C3121044   4.395   6.629   6.356 -0.1507  0.6319  0.4850
  184SOPE   O3221045   4.289   6.665   6.398 -0.3938 -0.5728  0.3948
  184SOPE   C3221046   4.502   6.566   6.435 -0.3916  0.5834  0.4235
  184SOPE   H2X21047   4.588   6.539   6.371  0.2102  0.4988  1.2532
  184SOPE   H2Y21048   4.457   6.468   6.461 -0.8862  0.3776 -1.1626
  184SOPE   C2321049   4.194   7.174   6.408 -0.8776  0.0711 -0.1298
  184SOPE   H3R21050   4.109   7.112   6.372  0.5410 -0.7660 -2.1585
  184SOPE   H3S21051   4.183   7.269   6.351  2.1996  0.5174 -0.0925
  184SOPE   C2421052   4.158   7.238   6.551 -0.6573  0.1553  0.0599
  184SOPE   H4R21053   4.153   7.150   6.618 -0.3734 -0.6960 -1.0147
  184SOPE   H4S21054   4.247   7.285   6.599 -1.5736 -2.1706  4.2666
  184SOPE   C2521055   4.034   7.332   6.558  0.0876 -0.0306  0.2465
  184SOPE   H5R21056   4.052   7.429   6.508  2.4807 -0.3474  0.4591
  184SOPE   H5S21057   3.958   7.279   6.496 -0.8428  0.4748  0.9385
  184SOPE   C2621058   3.981   7.366   6.700  0.5490  1.1795 -0.0321
  184SOPE   H6R21059   3.895   7.437   6.703 -2.1348 -1.9218 -0.3913
  184SOPE   H6S21060   3.955   7.267   6.745 -1.4085  1.6834  0.0128
  184SOPE   C2721061   4.086   7.437   6.780  0.4985  0.1900  1.1001
  184SOPE   H7R21062   4.182   7.383   6.792  0.3772 -0.5613 -1.1553
  184SOPE   H7S21063   4.113   7.529   6.724 -0.0261 -0.6704 -0.5941
  184SOPE   C2821064   4.022   7.461   6.915 -0.2301 -1.0930 -0.4250
  184SOPE   H8R21065   4.075   7.546   6.964 -0.2925 -0.5498 -1.2772
  184SOPE   H8S21066   3.919   7.497   6.896  0.3484  0.1683 -1.2647
  184SOPE   C2921067   4.034   7.344   7.007 -0.4298 -0.6061 -0.4681
  184SOPE   H9121068   4.067   7.249   6.962  2.2432 -1.9093  3.9567
  184SOPE  C21021069   4.018   7.345   7.139  0.5206  0.3543 -0.2606
  184SOPE  H10121070   4.028   7.247   7.188 -1.9900 -1.0456 -2.4020
  184SOPE  C21121071   3.983   7.458   7.225  0.6730 -0.0649 -0.0853
  184SOPE  H11R21072   3.887   7.451   7.279  1.5673 -0.2598  1.5125
  184SOPE  H11S21073   4.002   7.554   7.173  2.9346 -0.2030  0.4026
  184SOPE  C21221074   4.108   7.474   7.319 -0.1674 -1.2777 -0.0953
  184SOPE  H12R21075   4.094   7.571   7.373  0.1803 -0.9394 -0.6112
  184SOPE  H12S21076   4.206   7.481   7.267  0.1506 -0.6376  0.5795
  184SOPE  C21321077   4.100   7.365   7.429  0.1750 -0.1354 -0.7976
  184SOPE  H13R21078   4.112   7.263   7.386 -0.3000  0.0827 -1.4687
  184SOPE  H13S21079   4.001   7.364   7.479  1.0295  0.8438  0.9357
  184SOPE  C21421080   4.186   7.386   7.559  0.0429 -0.8115  0.0912
  184SOPE  H14R21081   4.151   7.476   7.613  1.8438  0.0694 -0.1971
  184SOPE  H14S21082   4.281   7.404   7.504 -0.0134  0.3565  0.3680
  184SOPE  C21521083   4.186   7.272   7.651  0.4496  0.0687  0.1132
  184SOPE  H15R21084   4.204   7.180   7.591  0.8582 -1.3245  2.2716
  184SOPE  H15S21085   4.090   7.278   7.707  0.0819 -1.0580 -0.3950
  184SOPE  C21621086   4.299   7.282   7.752 -0.0534  0.1352 -1.1429
  184SOPE  H16R21087   4.396   7.286   7.699  0.9690  2.1717  0.7807
  184SOPE  H16S21088   4.305   7.189   7.813 -0.0473  1.6676  1.2876
  184SOPE  C21721089   4.289   7.398   7.848  0.2523  0.0527 -0.1843
  184SOPE  H17R21090   4.193   7.379   7.901  0.4985 -0.3580  0.1212
  184SOPE  H17S21091   4.284   7.494   7.794 -1.4220  0.3567  0.5089
  184SOPE  C21821092   4.411   7.399   7.941  0.4452 -0.4053  0.0485
  184SOPE  H18R21093   4.510   7.388   7.893  1.7814 -1.6283  2.9805
  184SOPE  H18S21094   4.400   7.319   8.017  0.0229  0.2964  0.7266
  184SOPE  H18T21095   4.407   7.496   7.995 -2.0967  0.5691 -1.7534
  184SOPE   C3321096   4.532   6.638   6.561 -0.7471  0.5681  0.3889
  184SOPE   H3X21097   4.591   6.577   6.634 -0.4852  1.0666  0.5967
  184SOPE   H3Y21098   4.437   6.664   6.613 -1.5287 -0.8276 -0.3144
  184SOPE   C3421099   4.631   6.751   6.529 -0.2331  0.1386 -0.1218
  184SOPE   H4X21100   4.587   6.816   6.451 -1.8303 -0.1426  0.5227
  184SOPE   H4Y21101   4.726   6.711   6.487 -0.0514  0.2062  0.2266
  184SOPE   C3521102   4.660   6.835   6.658  0.3041 -0.5266  0.1553
  184SOPE   H5X21103   4.707   6.759   6.724  1.2605 -0.5425 -0.5326
  184SOPE   H5Y21104   4.561   6.862   6.701  1.1623  1.1849  1.0871
  184SOPE   C3621105   4.755   6.957   6.638  0.0390  0.3433  0.6623
  184SOPE   H6X21106   4.722   7.048   6.693  0.8397  0.3223  1.1894
  184SOPE   H6Y21107   4.761   6.985   6.530  1.6905 -0.9311  0.3968
  184SOPE   C3721108   4.889   6.931   6.700  0.0824  0.4342  0.5796
  184SOPE   H7X21109   4.958   7.009   6.662  1.9517 -1.0109  0.9795
  184SOPE   H7Y21110   4.930   6.830   6.680 -0.8041  0.3730 -1.0120
  184SOPE   C3821111   4.877   6.941   6.854 -0.7489 -0.5078  1.0066
  184SOPE   H8X21112   4.814   6.858   6.892 -0.0061 -1.9364 -0.8289
  184SOPE   H8Y21113   4.833   7.039   6.881  0.4049 -0.1026  1.4676
  184SOPE   C3921114   5.016   6.934   6.927  0.2032  0.1844  0.4966
  184SOPE   H9X21115   5.086   7.017   6.902  2.5426 -2.1559 -0.8820
  184SOPE   H9Y21116   5.059   6.840   6.889  1.5655  0.4086  1.4711
  184SOPE  C31021117   4.982   6.922   7.077 -0.3671 -0.0981  0.3770
  184SOPE  H10X21118   5.072   6.867   7.111  0.8305  0.3656 -1.9148
  184SOPE  H10Y21119   4.888   6.866   7.098 -1.0084 -0.2162 -2.5116
  184SOPE  C31121120   4.978   7.054   7.148  0.2296  0.1751  0.2184
  184SOPE  H11X21121   4.897   7.120   7.110  0.1209  1.2300  2.2246
  184SOPE  H11Y21122   5.072   7.112   7.147 -0.6888  1.7129 -2.3351
  184SOPE  C31221123   4.940   7.038   7.300 -0.3035 -0.1163  0.6566
  184SOPE  H12X21124   4.940   7.137   7.350 -1.2932 -1.7790  4.0761
  184SOPE  H12Y21125   5.020   6.969   7.334 -0.8081 -1.1430 -0.1866
  184SOPE  C31321126   4.804   6.972   7.339  0.3077  0.8113  0.1138
  184SOPE  H13X21127   4.812   6.958   7.449 -0.4338 -1.0297 -0.0341
  184SOPE  H13Y21128   4.806   6.875   7.285 -0.3710  0.7366  0.2077
  184SOPE  C31421129   4.681   7.053   7.298  0.5289 -1.0440 -0.8652
  184SOPE  H14X21130   4.700   7.092   7.196 -0.3808 -2.2643 -1.5060
  184SOPE  H14Y21131   4.679   7.141   7.367 -0.9057 -1.6261 -0.1223
  184SOPE  C31521132   4.551   6.983   7.296 -0.3496 -0.4099 -0.6895
  184SOPE  H15X21133   4.525   6.951   7.399 -1.6153 -2.0599 -1.4913
  184SOPE  H15Y21134   4.556   6.882   7.250  0.6165  0.8028 -3.3573
  184SOPE  C31621135   4.438   7.064   7.236  0.1588 -0.0677  0.8921
  184SOPE  H16X21136   4.477   7.100   7.139 -2.8738  0.5650 -0.1533
  184SOPE  H16Y21137   4.419   7.154   7.298  0.1264 -0.8594  2.0573
  184SOPE  C31721138   4.313   6.980   7.212  0.0039 -0.5666  0.2169
  184SOPE  H17X21139   4.326   6.895   7.142 -0.3933 -0.6822  0.2820
  184SOPE  H17Y21140   4.253   7.059   7.161  1.3449  0.1065 -0.3509
  184SOPE  C31821141   4.255   6.927   7.339 -0.5013 -0.2360 -0.0939
  184SOPE  H18X21142   4.327   6.854   7.382  0.2455  1.3993  1.5005
  184SOPE  H18Y21143   4.159   6.877   7.315 -1.2739  2.3032 -2.5235
  184SOPE  H18Z21144   4.238   7.011   7.410  0.7266 -0.6379  0.6967
  185SAPI   C1221145   5.573   2.063  10.098  0.6241 -0.3352 -0.0076
  185SAPI    H221146   5.566   2.096   9.992 -1.1228 -1.3426 -0.2113
  185SAPI    O221147   5.448   2.077  10.158 -0.0242 -0.4534 -0.5875
  185SAPI   HO221148   5.402   2.149  10.116  0.4939 -1.0916 -2.2956
  185SAPI   C1321149   5.614   1.915  10.101  0.5503 -0.1313  0.2534
  185SAPI    H321150   5.717   1.917  10.061 -0.3443  1.0492 -2.0892
  185SAPI    O321151   5.529   1.835  10.022  0.3456  0.2847 -0.0404
  185SAPI   HO321152   5.438   1.846  10.051  0.0767 -0.8617 -0.4052
  185SAPI   C1421153   5.611   1.870  10.249 -0.0762 -0.0317  0.1254
  185SAPI    H421154   5.515   1.873  10.304 -0.1740 -2.8524  0.1729
  185SAPI    O421155   5.635   1.734  10.261  0.5594 -0.2222 -0.0886
  185SAPI   HO421156   5.563   1.686  10.219  2.4608 -1.8826 -1.5010
  185SAPI   C1521157   5.712   1.956  10.319 -0.2060  0.6951 -0.0678
  185SAPI    H521158   5.807   1.936  10.266  0.0570 -0.6462  0.8736
  185SAPI    O521159   5.729   1.926  10.458 -0.7432 -0.0349 -0.0072
  185SAPI   HO521160   5.804   1.976  10.490  0.2612 -1.3489 -0.2548
  185SAPI   C1621161   5.679   2.102  10.313 -0.4474  0.1182 -0.4131
  185SAPI    H621162   5.580   2.119  10.360 -0.5436 -1.4525 -0.0237
  185SAPI    O621163   5.771   2.184  10.385  0.0319  0.1233  0.9072
  185SAPI   HO621164   5.858   2.173  10.346 -0.6930 -0.1141 -0.6669
  185SAPI   C1121165   5.673   2.152  10.172 -0.0607 -0.2345  0.0371
  185SAPI    H121166   5.773   2.133  10.126 -0.8591  0.2462 -1.9398
  185SAPI     P21167   5.724   2.399  10.078  0.1689  0.0725  0.0220
  185SAPI   O1321168   5.864   2.358  10.072 -0.1869  0.2748  0.2748
  185SAPI   O1421169   5.708   2.539  10.121 -0.6759 -0.4127 -0.4598
  185SAPI   O1221170   5.634   2.292  10.173 -0.1238  0.0575 -0.2605
  185SAPI   O1121171   5.649   2.384   9.944  0.0280 -0.1864  0.1958
  185SAPI    C121172   5.705   2.436   9.821 -0.1134  0.3720  0.3131
  185SAPI    HA21173   5.812   2.465   9.827  0.5046 -1.5249 -1.2786
  185SAPI    HB21174   5.696   2.354   9.747 -2.2054 -0.3296  1.3124
  185SAPI    C221175   5.622   2.549   9.760  0.9449 -0.1714 -0.1981
  185SAPI    HS21176   5.541   2.582   9.828 -0.2017 -0.5834 -1.3272
  185SAPI   O2121177   5.581   2.515   9.622  1.0468  0.1419  0.7450
  185SAPI   C2121178   5.471   2.570   9.582 -0.3176  0.6681 -0.1417
  185SAPI   O2221179   5.400   2.644   9.648 -0.1482 -0.1957 -0.0063
  185SAPI   C2221180   5.451   2.529   9.428  0.1669 -0.0936 -0.6128
  185SAPI   H2R21181   5.446   2.418   9.431 -1.2159 -0.0286 -0.1808
  185SAPI   H2S21182   5.356   2.574   9.393 -0.2672  0.3976  1.1454
  185SAPI    C321183   5.709   2.679   9.769  0.1490 -0.4216 -0.3347
  185SAPI    HX21184   5.754   2.685   9.870  1.3195  1.0860 -0.9198
  185SAPI    HY21185   5.653   2.773   9.750  2.1995  0.9368  0.1657
  185SAPI   O3121186   5.817   2.685   9.667  0.6375  0.9093  0.8103
  185SAPI   C3121187   5.946   2.678   9.703  0.4784 -0.1507  0.4402
  185SAPI   O3221188   5.984   2.696   9.818  0.4140  1.0321 -0.1608
  185SAPI   C3221189   6.032   2.653   9.574  0.3051 -0.3484  0.0895
  185SAPI   H2X21190   5.980   2.567   9.527  1.0660 -1.9269  2.0608
  185SAPI   H2Y21191   6.136   2.625   9.604  1.1375  4.5739  2.2750
  185SAPI   C2321192   5.563   2.578   9.332  0.0819 -0.4701  0.3906
  185SAPI   H3R21193   5.655   2.516   9.342 -0.1748 -0.9941 -0.4202
  185SAPI   H3S21194   5.587   2.683   9.358  0.5920  0.3912 -3.1738
  185SAPI   C2421195   5.515   2.573   9.187  0.4453 -0.4258 -0.0117
  185SAPI   H4R21196   5.580   2.637   9.123 -0.2884  0.7952  0.4352
  185SAPI   H4S21197   5.419   2.629   9.185  0.9162  0.3735 -1.4122
  185SAPI   C2521198   5.493   2.434   9.123  0.0098  0.3665  0.6318
  185SAPI   H5R21199   5.428   2.363   9.177  0.1860  0.2285  0.6611
  185SAPI   C2621200   5.543   2.399   9.006 -0.0877 -0.0340 -1.0021
  185SAPI   H6R21201   5.533   2.296   8.968 -0.2609 -0.7134  0.8264
  185SAPI   C2721202   5.635   2.491   8.919 -0.6643  0.2170 -0.2350
  185SAPI   H7R21203   5.694   2.551   8.992  0.6443 -1.5138  0.1736
  185SAPI   H7S21204   5.569   2.565   8.869  0.6377  0.7904 -1.1513
  185SAPI   C2821205   5.732   2.419   8.822 -0.4864 -0.3708  0.1085
  185SAPI   H8R21206   5.796   2.341   8.866 -1.5572 -0.9247  0.7052
  185SAPI   C2921207   5.753   2.464   8.699 -0.0110 -0.5646  0.5466
  185SAPI   H9R21208   5.821   2.416   8.627 -3.3747 -1.4050 -2.2264
  185SAPI  C21021209   5.682   2.590   8.633  0.1727  0.1799  0.2181
  185SAPI  H10R21210   5.743   2.629   8.548 -0.8217 -0.4206 -0.7746
  185SAPI  H10S21211   5.671   2.680   8.698  1.9851 -0.3000  1.2261
  185SAPI  C21121212   5.551   2.544   8.582 -0.6336  0.0343 -0.7917
  185SAPI  H11R21213   5.520   2.442   8.609 -1.3654 -0.1214 -2.1318
  185SAPI  C21221214   5.477   2.618   8.501 -0.0588  0.2673  0.0673
  185SAPI  H12R21215   5.380   2.578   8.469 -1.0565  1.7195  1.1564
  185SAPI  C21321216   5.512   2.758   8.445 -0.2956 -0.1857  0.3255
  185SAPI  H13R21217   5.615   2.791   8.467 -0.2150  0.3767 -0.9065
  185SAPI  H13S21218   5.452   2.839   8.491 -1.1163 -0.8737  0.4756
  185SAPI  C21421219   5.489   2.769   8.297  0.6142  0.0272 -0.3917
  185SAPI  H14R21220   5.553   2.710   8.229 -1.8517 -1.4120 -1.5209
  185SAPI  C21521221   5.386   2.831   8.233  0.0890  0.2738  0.4193
  185SAPI  H15R21222   5.390   2.837   8.124 -0.3583 -0.5330  0.3520
  185SAPI  C21621223   5.272   2.903   8.292 -0.3378 -0.6216  0.0212
  185SAPI  H16R21224   5.267   2.892   8.402  0.1008  3.0620  0.4677
  185SAPI  H16S21225   5.174   2.857   8.264 -0.2442 -0.7054 -0.1656
  185SAPI  C21721226   5.269   3.049   8.248 -0.2186  0.3549  0.4452
  185SAPI  H17R21227   5.371   3.092   8.240  0.0946 -0.6836 -1.5145
  185SAPI  H17S21228   5.212   3.109   8.322 -2.6486  0.8510 -1.7214
  185SAPI  C21821229   5.203   3.073   8.101 -0.6303  0.5301 -0.1452
  185SAPI  H18R21230   5.100   3.030   8.102 -0.9750  1.3389  0.2746
  185SAPI  H18S21231   5.264   3.013   8.032  1.1358  1.6222  0.4412
  185SAPI  C21921232   5.193   3.217   8.065  0.1765  0.4465  0.0355
  185SAPI  H19R21233   5.289   3.268   8.040  0.4174 -0.1612 -0.3071
  185SAPI  H19S21234   5.164   3.264   8.161 -2.0094 -0.1982 -0.2770
  185SAPI  C22021235   5.080   3.246   7.967  0.5315  0.3365 -0.0661
  185SAPI  H20R21236   5.049   3.353   7.974  0.9777  0.4292  0.4988
  185SAPI  H20S21237   5.000   3.180   8.008  1.5433  0.6152  2.4424
  185SAPI  H20T21238   5.101   3.207   7.865  1.2055 -0.7759  0.4987
  185SAPI   C3321239   6.027   2.768   9.479  0.3855  0.9106  0.3490
  185SAPI   H3X21240   6.066   2.862   9.524  4.2716 -0.2682 -0.4100
  185SAPI   H3Y21241   5.923   2.781   9.442  0.6387  2.2414  0.0710
  185SAPI   C3421242   6.113   2.738   9.362  0.0503 -0.5960 -0.1646
  185SAPI   H4X21243   6.106   2.636   9.320 -0.5595  0.0787 -1.7576
  185SAPI   H4Y21244   6.220   2.752   9.388  0.6528  0.2834 -2.9193
  185SAPI   C3521245   6.083   2.837   9.241  0.2066  0.2344 -0.1551
  185SAPI   H5X21246   6.075   2.943   9.272 -3.5885 -0.1513  0.4398
  185SAPI   H5Y21247   5.988   2.815   9.186  0.2137 -2.2993  0.7868
  185SAPI   C3621248   6.203   2.837   9.137  0.4991  0.4363  0.5012
  185SAPI   H6X21249   6.220   2.736   9.095  2.5039  0.6020  0.8756
  185SAPI   H6Y21250   6.296   2.849   9.197  2.0537  0.2277 -1.8056
  185SAPI   C3721251   6.199   2.948   9.043  0.5244 -0.6532  0.6942
  185SAPI   H7X21252   6.306   2.952   9.013  1.2715 -2.5491  2.9733
  185SAPI   H7Y21253   6.185   3.049   9.088  2.4437 -0.2994  0.5819
  185SAPI   C3821254   6.117   2.930   8.918  0.3805 -0.0198  0.1121
  185SAPI   H8X21255   6.016   2.969   8.942  0.8757  2.7879 -2.1000
  185SAPI   H8Y21256   6.094   2.825   8.889  3.5425 -0.9526  0.7276
  185SAPI   C3921257   6.174   3.000   8.799  0.3291 -0.2899  0.6767
  185SAPI   H9X21258   6.259   2.939   8.762  1.3388  1.8734 -0.6880
  185SAPI   H9Y21259   6.216   3.101   8.821 -1.2863  0.7965 -1.0905
  185SAPI  C31021260   6.084   3.031   8.683  0.3372 -0.8385  0.1089
  185SAPI  H10X21261   6.040   2.941   8.635 -0.3854  0.9445 -2.7661
  185SAPI  H10Y21262   6.139   3.097   8.611  1.0127 -1.2304  0.2580
  185SAPI  C31121263   5.964   3.121   8.722 -0.2330 -0.5395 -0.1940
  185SAPI  H11X21264   5.983   3.173   8.818 -1.6322  1.3003 -0.8787
  185SAPI  H11Y21265   5.873   3.059   8.735 -0.7204  0.0168 -0.9117
  185SAPI  C31221266   5.930   3.229   8.612 -0.4341 -0.3432 -0.9574
  185SAPI  H12X21267   5.837   3.283   8.639 -0.5076 -1.2421  0.6733
  185SAPI  H12Y21268   5.919   3.183   8.512 -1.6263 -0.6160 -0.7029
  185SAPI  C31321269   6.029   3.348   8.602  0.0333  0.0631 -0.3650
  185SAPI  H13X21270   6.128   3.324   8.558  1.1656 -0.4646  2.3630
  185SAPI  H13Y21271   6.055   3.384   8.703 -2.2153  1.0707 -0.1003
  185SAPI  C31421272   5.979   3.470   8.525  0.0488 -0.0001  0.0121
  185SAPI  H14X21273   6.047   3.554   8.548  0.7676 -0.4505 -0.4687
  185SAPI  H14Y21274   5.877   3.492   8.564 -0.1391  2.5311 -1.7680
  185SAPI  C31521275   5.965   3.447   8.370 -0.2857 -0.9443 -0.6601
  185SAPI  H15X21276   5.901   3.360   8.344  0.6546 -1.9718  0.3711
  185SAPI  H15Y21277   6.066   3.416   8.335 -0.1930 -1.1522 -0.2080
  185SAPI  C31621278   5.918   3.570   8.288  0.6269 -0.3648 -0.0796
  185SAPI  H16X21279   5.992   3.652   8.301  0.4822 -0.3440  0.6124
  185SAPI  H16Y21280   5.821   3.608   8.325  1.1700  1.6745 -0.6650
  185SAPI  C31721281   5.904   3.535   8.137 -0.3882 -0.6692 -0.4843
  185SAPI  H17X21282   5.848   3.623   8.101 -2.3543 -1.3953  0.6941
  185SAPI  H17Y21283   5.833   3.450   8.121 -0.5747 -0.5432 -0.3295
  185SAPI  C31821284   6.040   3.509   8.067  0.3535  0.3980  0.3979
  185SAPI  H18X21285   6.023   3.498   7.958  2.5710  0.1466  0.0437
  185SAPI  H18Y21286   6.076   3.414   8.112  3.6701  0.9230 -0.9895
  185SAPI  H18Z21287   6.119   3.584   8.091  0.6220 -0.5186  2.4627
  186SAPI   C1221288   5.753   0.305  10.326  0.4011  0.4279 -0.5196
  186SAPI    H221289   5.716   0.232  10.251  0.7441 -0.6243  0.3133
  186SAPI    O221290   5.665   0.314  10.436 -0.1839 -0.2587  0.0760
  186SAPI   HO221291   5.590   0.360  10.397  0.2960  0.4264 -0.0513
  186SAPI   C1321292   5.891   0.248  10.363  0.3199  0.2802 -0.2240
  186SAPI    H321293   5.948   0.234  10.268 -0.7827  3.6967 -1.4584
  186SAPI    O321294   5.870   0.127  10.428  0.4095  0.3847  0.3764
  186SAPI   HO321295   5.808   0.151  10.497  0.0571  2.4998 -0.6311
  186SAPI   C1421296   5.964   0.344  10.455  0.0075 -0.3999 -0.1254
  186SAPI    H421297   5.903   0.360  10.547  1.0874  0.0296  0.5169
  186SAPI    O421298   6.087   0.289  10.502  0.7611  0.4836 -0.4169
  186SAPI   HO421299   6.152   0.301  10.432  0.7675 -0.6267 -0.6012
  186SAPI   C1521300   5.979   0.480  10.388 -0.7430  0.1855 -0.2301
  186SAPI    H521301   6.044   0.464  10.299  0.1218  0.1375  0.3921
  186SAPI    O521302   6.045   0.577  10.472 -0.1685 -0.1463 -0.1932
  186SAPI   HO521303   5.989   0.601  10.546 -0.3847 -3.4036  0.8144
  186SAPI   C1621304   5.845   0.542  10.346  0.1826 -0.3685 -0.0906
  186SAPI    H621305   5.794   0.546  10.445  1.7502  0.1225  0.7092
  186SAPI    O621306   5.849   0.676  10.300 -0.3795 -0.2562  0.1401
  186SAPI   HO621307   5.798   0.690  10.220 -0.7488  0.6071  0.5148
  186SAPI   C1121308   5.773   0.443  10.253 -0.0458 -0.0009 -0.4838
  186SAPI    H121309   5.835   0.418  10.165  0.8871  0.8364 -0.0702
  186SAPI     P21310   5.593   0.588  10.084 -0.2012  0.3001 -0.0372
  186SAPI   O1321311   5.692   0.699  10.077  0.5099 -0.0818 -0.3277
  186SAPI   O1421312   5.457   0.623  10.121 -0.4599 -0.5533 -0.0108
  186SAPI   O1221313   5.642   0.488  10.208  0.0100 -0.2916  0.5140
  186SAPI   O1121314   5.600   0.503   9.954 -0.4098 -0.1460  0.2964
  186SAPI    C121315   5.550   0.370   9.963 -0.0909 -0.6641  0.7125
  186SAPI    HA21316   5.615   0.300  10.020  0.9329 -0.7801 -0.5766
  186SAPI    HB21317   5.449   0.361  10.008 -0.2243  1.5960  0.8984
  186SAPI    C221318   5.537   0.289   9.825  0.7688 -0.0724 -0.5447
  186SAPI    HS21319   5.467   0.206   9.851 -2.2648  2.7817  0.7574
  186SAPI   O2121320   5.666   0.226   9.786 -0.2354  0.8378  0.0730
  186SAPI   C2121321   5.655   0.139   9.682 -0.0100 -0.0730  0.3737
  186SAPI   O2221322   5.548   0.091   9.652  0.5428 -0.1088  0.6238
  186SAPI   C2221323   5.791   0.119   9.615 -0.0933 -0.2971  0.3427
  186SAPI   H2R21324   5.842   0.218   9.620  2.7162 -1.4262 -3.3732
  186SAPI   H2S21325   5.858   0.061   9.682 -0.4866  0.8464  1.7459
  186SAPI    C321326   5.464   0.380   9.721  0.7864  0.1041 -0.1119
  186SAPI    HX21327   5.531   0.466   9.697  1.0623  0.1102  0.6634
  186SAPI    HY21328   5.370   0.410   9.773  0.4919 -1.0574  0.0402
  186SAPI   O3121329   5.451   0.332   9.590 -0.0059 -0.3368  0.1262
  186SAPI   C3121330   5.335   0.260   9.564 -0.2931 -0.1500  0.3701
  186SAPI   O3221331   5.236   0.260   9.634  0.3658 -0.1933  0.4299
  186SAPI   C3221332   5.347   0.202   9.424  0.0180  0.6214 -0.6138
  186SAPI   H2X21333   5.453   0.171   9.405  0.8008  1.6523  1.8915
  186SAPI   H2Y21334   5.327   0.277   9.344 -2.4529 -0.5181 -1.0919
  186SAPI   C2321335   5.782   0.052   9.471  0.2331 -0.0324  0.2025
  186SAPI   H3R21336   5.713  -0.034   9.457  0.7793 -0.7276  1.6934
  186SAPI   H3S21337   5.875  -0.002   9.441  0.9889  1.2860  0.1023
  186SAPI   C2421338   5.768   0.162   9.368  0.3743  0.2818 -0.4273
  186SAPI   H4R21339   5.863   0.219   9.366  1.1137 -0.8770  0.7458
  186SAPI   H4S21340   5.692   0.235   9.402  0.6118  0.2723  0.1268
  186SAPI   C2521341   5.738   0.104   9.230 -0.4567 -0.0582  0.0532
  186SAPI   H5R21342   5.771   0.003   9.200  0.8677  0.1150  0.8686
  186SAPI   C2621343   5.678   0.180   9.133  0.1182  0.4473  0.5017
  186SAPI   H6R21344   5.678   0.134   9.033  2.5487 -0.9276  1.0953
  186SAPI   C2721345   5.623   0.319   9.134  0.4230 -0.7224 -0.6358
  186SAPI   H7R21346   5.649   0.374   9.227  0.6174 -1.8354 -0.0184
  186SAPI   H7S21347   5.513   0.312   9.149  0.8604  0.4948  4.1619
  186SAPI   C2821348   5.655   0.399   9.007 -0.6257 -0.6385  0.7559
  186SAPI   H8R21349   5.744   0.463   9.019 -1.0004 -0.1293  0.8406
  186SAPI   C2921350   5.580   0.400   8.895  0.3344  0.7302  0.5753
  186SAPI   H9R21351   5.604   0.457   8.804  2.3349 -0.0956  0.5671
  186SAPI  C21021352   5.452   0.319   8.877 -0.4949 -0.4470  0.2561
  186SAPI  H10R21353   5.361   0.372   8.912 -0.2513 -0.8460  1.5156
  186SAPI  H10S21354   5.441   0.222   8.931 -3.7125 -0.7203 -0.8035
  186SAPI  C21121355   5.431   0.279   8.730 -0.0891  0.4205  0.2513
  186SAPI  H11R21356   5.491   0.193   8.696 -0.0454  0.6972 -0.3707
  186SAPI  C21221357   5.358   0.341   8.635  0.0138  0.0764  0.1573
  186SAPI  H12R21358   5.340   0.284   8.543  0.1025 -1.6392  1.1820
  186SAPI  C21321359   5.273   0.466   8.648 -0.0501  0.1196  0.6890
  186SAPI  H13R21360   5.252   0.487   8.755  0.7559 -0.0052  0.8742
  186SAPI  H13S21361   5.173   0.435   8.613 -0.1230  0.2622  0.7707
  186SAPI  C21421362   5.331   0.593   8.591  0.1703  0.0427 -0.4660
  186SAPI  H14R21363   5.410   0.640   8.651  0.4536 -0.2318 -0.6252
  186SAPI  C21521364   5.304   0.663   8.482  0.4229  0.2314  0.9421
  186SAPI  H15R21365   5.374   0.743   8.454  0.0973  0.1214 -0.1844
  186SAPI  C21621366   5.197   0.620   8.389  0.4271  0.7746  0.0912
  186SAPI  H16R21367   5.118   0.698   8.387  0.7099  1.0277 -2.8873
  186SAPI  H16S21368   5.150   0.520   8.403  0.1958  0.9206  0.3675
  186SAPI  C21721369   5.262   0.627   8.246  0.9810 -0.1231  0.3040
  186SAPI  H17R21370   5.301   0.730   8.236 -0.4176  0.6292  2.1494
  186SAPI  H17S21371   5.182   0.604   8.172 -0.1778 -0.1809  1.5442
  186SAPI  C21821372   5.365   0.522   8.215  0.3653  0.7003  0.2503
  186SAPI  H18R21373   5.318   0.428   8.251  1.7694  0.3325  1.1213
  186SAPI  H18S21374   5.460   0.541   8.268  0.1651 -0.8729  1.1976
  186SAPI  C21921375   5.401   0.516   8.067  0.0094  0.2537  0.0958
  186SAPI  H19R21376   5.310   0.502   8.006 -0.6618 -1.0674  1.3598
  186SAPI  H19S21377   5.468   0.432   8.040 -0.6325 -0.3255  0.2893
  186SAPI  C22021378   5.481   0.636   8.014 -0.1788 -0.0973 -0.7216
  186SAPI  H20R21379   5.412   0.723   8.011  0.0420  0.1414  0.8072
  186SAPI  H20S21380   5.525   0.614   7.914 -0.3195 -0.8800 -0.6186
  186SAPI  H20T21381   5.568   0.659   8.079 -0.4261 -0.7068 -0.1605
  186SAPI   C3321382   5.253   0.078   9.390  0.9796 -0.2119 -0.2899
  186SAPI   H3X21383   5.152   0.114   9.418  1.9759 -0.7825  4.4758
  186SAPI   H3Y21384   5.282  -0.010   9.451 -0.3207 -0.6124 -0.2431
  186SAPI   C3421385   5.286   0.044   9.246 -0.4869 -0.4583  0.4589
  186SAPI   H4X21386   5.391   0.010   9.234 -0.5837 -0.3509 -0.7760
  186SAPI   H4Y21387   5.278   0.128   9.174 -1.0573 -2.6995 -2.1578
  186SAPI   C3521388   5.194  -0.065   9.190 -0.1649 -0.7801 -0.7839
  186SAPI   H5X21389   5.090  -0.049   9.226  0.2312  1.8523 -0.7091
  186SAPI   H5Y21390   5.219  -0.160   9.241  1.8378 -0.3442 -0.9065
  186SAPI   C3621391   5.189  -0.075   9.037 -0.2413 -0.6152 -0.0250
  186SAPI   H6X21392   5.171   0.030   9.006 -0.6106 -1.7554 -3.9181
  186SAPI   H6Y21393   5.099  -0.130   9.002  0.1597 -3.0802  2.6375
  186SAPI   C3721394   5.315  -0.115   8.959  0.6531  0.8643 -0.5248
  186SAPI   H7X21395   5.317  -0.225   8.976 -1.2039  1.1212  1.6681
  186SAPI   H7Y21396   5.401  -0.063   9.005  0.6095  1.5792 -1.2472
  186SAPI   C3821397   5.322  -0.079   8.813 -0.1860 -0.0950 -0.0237
  186SAPI   H8X21398   5.309   0.032   8.806  0.6333 -0.0620 -1.0697
  186SAPI   H8Y21399   5.230  -0.113   8.760 -0.6816 -1.8773  1.9590
  186SAPI   C3921400   5.456  -0.121   8.741  0.4357  0.1055 -0.0149
  186SAPI   H9X21401   5.460  -0.230   8.761 -1.1442  0.1503  0.6065
  186SAPI   H9Y21402   5.539  -0.068   8.792  0.6738 -0.8670  0.5976
  186SAPI  C31021403   5.468  -0.085   8.589 -0.2546  0.2973  0.1978
  186SAPI  H10X21404   5.423   0.016   8.579  1.8520  1.1551 -0.8548
  186SAPI  H10Y21405   5.401  -0.153   8.532 -0.2746  0.1002  0.4501
  186SAPI  C31121406   5.605  -0.075   8.534  0.0548  0.8398 -0.2463
  186SAPI  H11X21407   5.632  -0.182   8.518 -4.0313 -0.2665 -0.5536
  186SAPI  H11Y21408   5.667  -0.032   8.615  1.4809 -2.2960  0.4122
  186SAPI  C31221409   5.613   0.005   8.401  0.1308  0.2450  0.1154
  186SAPI  H12X21410   5.542  -0.037   8.326  0.6278  1.1695 -0.8878
  186SAPI  H12Y21411   5.708  -0.019   8.349 -0.7384 -2.2631 -0.4114
  186SAPI  C31321412   5.599   0.154   8.407  0.2446  0.0265 -0.6220
  186SAPI  H13X21413   5.503   0.175   8.459 -0.2167  0.8433 -1.7850
  186SAPI  H13Y21414   5.580   0.182   8.301  2.7186  4.9072  0.0756
  186SAPI  C31421415   5.724   0.223   8.465 -0.6458  0.2900  0.0016
  186SAPI  H14X21416   5.816   0.178   8.421 -0.8366 -1.0367  0.9139
  186SAPI  H14Y21417   5.740   0.205   8.574  1.0148 -2.0417 -0.5732
  186SAPI  C31521418   5.716   0.376   8.451  0.3951  0.2240 -0.7603
  186SAPI  H15X21419   5.611   0.411   8.459  0.3774 -0.2422  1.3376
  186SAPI  H15Y21420   5.744   0.379   8.344  4.7562 -0.8315  0.2557
  186SAPI  C31621421   5.807   0.468   8.527 -0.5380 -0.2208 -0.1755
  186SAPI  H16X21422   5.889   0.401   8.560  0.0434  0.3876 -0.3852
  186SAPI  H16Y21423   5.755   0.492   8.622 -0.4285 -0.1953 -0.1240
  186SAPI  C31721424   5.865   0.580   8.444 -0.2073 -0.1554  0.7195
  186SAPI  H17X21425   5.880   0.669   8.509  0.2056 -0.7425  1.4286
  186SAPI  H17Y21426   5.797   0.619   8.365 -0.0770 -0.5549  0.4127
  186SAPI  C31821427   6.002   0.539   8.378  0.1883  0.0605  0.4765
  186SAPI  H18X21428   6.030   0.626   8.316 -1.8686  0.9963  0.8075
  186SAPI  H18Y21429   5.993   0.447   8.316  1.0386 -1.1471  2.1052
  186SAPI  H18Z21430   6.081   0.534   8.455 -1.0104  1.4520  1.8214
  187SAPI   C1221431   1.063   2.169   5.499  0.7996  1.1002  0.2821
  187SAPI    H221432   0.970   2.109   5.500  1.9036 -0.8937 -4.2290
  187SAPI    O221433   1.165   2.071   5.524 -0.2750  0.5184 -0.1727
  187SAPI   HO221434   1.146   2.017   5.601  2.6251  1.1284  1.0370
  187SAPI   C1321435   1.084   2.240   5.364 -0.3361 -0.0015  0.4889
  187SAPI    H321436   1.019   2.328   5.347  0.7763  0.3675 -2.1628
  187SAPI    O321437   1.057   2.156   5.249 -0.1280  0.4272 -0.0201
  187SAPI   HO321438   1.147   2.153   5.216 -0.5278  0.0300 -1.0810
  187SAPI   C1421439   1.218   2.314   5.368  0.4765 -0.4532  0.5790
  187SAPI    H421440   1.297   2.238   5.384  0.0681 -0.8885  0.5462
  187SAPI    O421441   1.251   2.381   5.240 -0.1159 -0.0726 -0.0141
  187SAPI   HO421442   1.342   2.362   5.215 -0.6030 -2.0087 -0.4227
  187SAPI   C1521443   1.218   2.417   5.482  0.2342  0.2177 -0.5607
  187SAPI    H521444   1.132   2.484   5.463 -0.5464 -0.3042  1.0803
  187SAPI    O521445   1.336   2.491   5.473 -0.2479  0.2757 -0.1756
  187SAPI   HO521446   1.324   2.577   5.432 -0.5724  1.3705  2.0778
  187SAPI   C1621447   1.203   2.346   5.612 -0.0015 -0.0538 -0.5182
  187SAPI    H621448   1.288   2.274   5.621  0.9056  1.1482  0.7526
  187SAPI    O621449   1.208   2.441   5.725 -0.3577 -0.4282  0.2108
  187SAPI   HO621450   1.280   2.505   5.723 -2.2984  1.8894  2.2701
  187SAPI   C1121451   1.069   2.272   5.619 -0.0932 -0.3855 -0.0341
  187SAPI    H121452   0.989   2.342   5.586 -0.1908 -0.1569  0.6793
  187SAPI     P21453   0.945   2.264   5.860 -0.0969 -0.6658 -0.0713
  187SAPI   O1321454   0.852   2.362   5.791 -0.4544 -0.2649  0.3689
  187SAPI   O1421455   1.015   2.322   5.982 -0.1366 -0.3217  0.0300
  187SAPI   O1221456   1.053   2.207   5.745  0.1058  0.6299  0.3373
  187SAPI   O1121457   0.874   2.128   5.897  0.2987  0.5929  0.4613
  187SAPI    C121458   0.966   2.030   5.951  0.1927 -0.1378  0.0357
  187SAPI    HA21459   1.033   1.999   5.868 -1.2426  0.5323 -1.4082
  187SAPI    HB21460   1.027   2.062   6.038 -0.4660  0.3302  0.3344
  187SAPI    C221461   0.906   1.896   6.001 -0.0341  0.2004  0.4611
  187SAPI    HS21462   0.803   1.878   5.963 -0.2062  1.3523  0.3821
  187SAPI   O2121463   0.910   1.887   6.145  0.2873 -0.3436  1.0055
  187SAPI   C2121464   0.804   1.959   6.193  1.1882  0.2338  0.0970
  187SAPI   O2221465   0.707   1.993   6.128 -0.1912  0.7360 -0.0187
  187SAPI   C2221466   0.836   2.014   6.330  0.4399 -0.2058  0.1183
  187SAPI   H2R21467   0.913   1.944   6.371  1.6333 -0.0850 -1.8583
  187SAPI   H2S21468   0.873   2.116   6.308 -1.9306  0.2724 -1.7997
  187SAPI    C321469   0.993   1.777   5.944  0.5396 -0.1427  0.2112
  187SAPI    HX21470   1.100   1.803   5.954  0.6680 -1.6090  3.1373
  187SAPI    HY21471   0.956   1.770   5.840  0.4514  3.2166 -0.0389
  187SAPI   O3121472   0.953   1.656   6.019  0.1356 -0.7077  0.3934
  187SAPI   C3121473   1.024   1.627   6.123 -0.4795  0.8923  0.4317
  187SAPI   O3221474   1.134   1.665   6.146  0.4341  0.2914 -0.5788
  187SAPI   C3221475   0.931   1.532   6.209 -0.1900 -0.4843 -0.0110
  187SAPI   H2X21476   0.971   1.431   6.185 -2.5701 -1.8112  1.4238
  187SAPI   H2Y21477   0.827   1.534   6.170 -0.4403  0.7746  0.7013
  187SAPI   C2321478   0.718   2.020   6.431 -0.9601  0.3501  1.1952
  187SAPI   H3R21479   0.670   1.920   6.429 -2.2842  0.9845 -1.8141
  187SAPI   H3S21480   0.645   2.099   6.401 -0.9516  0.7221  2.1545
  187SAPI   C2421481   0.744   2.042   6.577 -0.0319 -0.2637  0.0073
  187SAPI   H4R21482   0.818   1.969   6.616 -0.0389  0.4308  1.3545
  187SAPI   H4S21483   0.643   2.026   6.621  0.1034 -0.4979  0.2324
  187SAPI   C2521484   0.803   2.175   6.590  0.2220  0.3861  0.3014
  187SAPI   H5R21485   0.876   2.199   6.511  2.2083 -2.4208  1.2049
  187SAPI   C2621486   0.790   2.250   6.697  0.4168 -0.1166 -0.3986
  187SAPI   H6R21487   0.847   2.344   6.705 -0.6266  0.3831  1.4807
  187SAPI   C2721488   0.706   2.211   6.818 -0.6304  0.4133  0.6753
  187SAPI   H7R21489   0.775   2.150   6.880 -0.4021 -0.4082 -0.3733
  187SAPI   H7S21490   0.615   2.156   6.784 -1.3492  1.3644  1.0338
  187SAPI   C2821491   0.663   2.333   6.899  0.3360  0.2974  0.0399
  187SAPI   H8R21492   0.560   2.364   6.875  0.2681  0.6378  0.7496
  187SAPI   C2921493   0.732   2.392   6.993  0.1102 -0.2325  0.3152
  187SAPI   H9R21494   0.688   2.479   7.044  1.6307  0.7518 -0.0554
  187SAPI  C21021495   0.868   2.359   7.048 -0.3061  0.6184 -0.5594
  187SAPI  H10R21496   0.929   2.452   7.040 -1.4270  1.5623  1.5276
  187SAPI  H10S21497   0.923   2.286   6.984 -0.4399  0.3332 -0.3492
  187SAPI  C21121498   0.864   2.312   7.198 -0.3661 -0.5603 -0.3067
  187SAPI  H11R21499   0.776   2.255   7.232 -0.1330  0.4039  1.9896
  187SAPI  C21221500   0.950   2.336   7.299 -0.2144 -1.4658  0.2179
  187SAPI  H12R21501   0.934   2.285   7.396 -1.8211 -1.1372  0.1416
  187SAPI  C21321502   1.075   2.424   7.294  0.0867  0.6335  0.5013
  187SAPI  H13R21503   1.144   2.372   7.224 -0.7527 -1.7874  1.3938
  187SAPI  H13S21504   1.135   2.418   7.388  0.7317 -0.3529  0.0343
  187SAPI  C21421505   1.044   2.566   7.260 -0.0504  0.0062 -0.3450
  187SAPI  H14R21506   1.074   2.588   7.156 -1.2379 -0.8538 -0.8823
  187SAPI  C21521507   1.009   2.656   7.350 -0.3744  0.1851  0.0757
  187SAPI  H15R21508   0.965   2.753   7.320 -1.3567  0.1844  1.4581
  187SAPI  C21621509   0.987   2.629   7.503  0.1704 -0.1188 -0.4862
  187SAPI  H16R21510   1.016   2.525   7.529  2.3954  0.6276  0.1463
  187SAPI  H16S21511   0.877   2.631   7.515  0.2542  0.2622  0.2619
  187SAPI  C21721512   1.065   2.720   7.608 -0.4344 -0.6495 -0.0886
  187SAPI  H17R21513   1.013   2.700   7.704 -1.6766 -1.9122 -1.0025
  187SAPI  H17S21514   1.056   2.830   7.596 -1.7259 -0.6094  1.0648
  187SAPI  C21821515   1.212   2.673   7.619  0.3207  0.0315 -0.5923
  187SAPI  H18R21516   1.270   2.674   7.524 -1.2745 -1.2536 -1.5999
  187SAPI  H18S21517   1.198   2.564   7.635  1.5318 -0.2296 -1.2475
  187SAPI  C21921518   1.298   2.720   7.741 -0.7957  0.5191 -0.1036
  187SAPI  H19R21519   1.380   2.645   7.747 -1.5408 -0.4079 -1.2545
  187SAPI  H19S21520   1.241   2.703   7.834  0.2611  0.8661  0.6136
  187SAPI  C22021521   1.333   2.865   7.743  0.0288 -0.1558 -0.2708
  187SAPI  H20R21522   1.396   2.905   7.660 -0.6974 -1.0036 -1.2395
  187SAPI  H20S21523   1.389   2.884   7.837 -2.8537  1.3805  1.1856
  187SAPI  H20T21524   1.234   2.914   7.752 -0.5753 -1.1365 -1.4569
  187SAPI   C3321525   0.920   1.554   6.362 -0.0125  0.8551 -0.3772
  187SAPI   H3X21526   1.016   1.596   6.401 -0.5648  2.6447 -0.9195
  187SAPI   H3Y21527   0.909   1.453   6.407  3.6032  1.4023  1.9487
  187SAPI   C3421528   0.803   1.648   6.406 -0.0612  0.0594 -0.3444
  187SAPI   H4X21529   0.715   1.627   6.341 -0.0692 -0.9453 -0.0038
  187SAPI   H4Y21530   0.831   1.752   6.379  0.3360  0.1483  0.4076
  187SAPI   C3521531   0.779   1.639   6.560  0.2932  0.4080 -0.2915
  187SAPI   H5X21532   0.754   1.534   6.583  1.2104  0.2984  0.1938
  187SAPI   H5Y21533   0.691   1.698   6.594  0.6626  2.6503 -2.9705
  187SAPI   C3621534   0.897   1.689   6.646 -0.1259  0.2090 -0.5176
  187SAPI   H6X21535   0.915   1.788   6.599  1.0558 -0.3241 -1.2150
  187SAPI   H6Y21536   0.987   1.625   6.632  0.4338  1.4027 -2.5449
  187SAPI   C3721537   0.873   1.715   6.793  0.2374  0.0973 -0.7959
  187SAPI   H7X21538   0.831   1.625   6.842  1.8667 -0.6979 -0.8343
  187SAPI   H7Y21539   0.801   1.800   6.793 -0.0336 -0.1038 -3.3542
  187SAPI   C3821540   0.996   1.755   6.878 -0.6264 -0.4185 -0.2627
  187SAPI   H8X21541   1.042   1.843   6.828 -0.0627 -0.7279 -0.2860
  187SAPI   H8Y21542   1.075   1.678   6.869 -1.0491 -0.8592 -0.1847
  187SAPI   C3921543   0.975   1.781   7.033  0.3215  0.0892  0.1470
  187SAPI   H9X21544   0.916   1.694   7.068  1.0169  0.1280  1.4559
  187SAPI   H9Y21545   0.922   1.878   7.048  0.5674  0.1353  0.7362
  187SAPI  C31021546   1.105   1.807   7.105 -0.0652 -0.4924  0.1786
  187SAPI  H10X21547   1.160   1.882   7.044 -0.3391  0.1816  0.7435
  187SAPI  H10Y21548   1.173   1.719   7.106  0.1441 -0.3541 -1.0456
  187SAPI  C31121549   1.076   1.874   7.234 -0.2912  0.5826 -0.1054
  187SAPI  H11X21550   1.026   1.972   7.220 -3.1756 -0.9699 -1.1003
  187SAPI  H11Y21551   1.167   1.895   7.293 -0.8002  1.0673  0.5188
  187SAPI  C31221552   0.979   1.800   7.333  0.7127  0.3249 -0.1041
  187SAPI  H12X21553   1.024   1.704   7.364 -1.5181 -1.3564 -1.9035
  187SAPI  H12Y21554   0.883   1.776   7.282  1.0729  0.0785 -0.6578
  187SAPI  C31321555   0.954   1.886   7.458 -0.5216  0.3661  0.1323
  187SAPI  H13X21556   0.917   1.988   7.434  1.7054  0.6838 -2.1875
  187SAPI  H13Y21557   1.045   1.897   7.521  0.8938 -2.3512 -1.3588
  187SAPI  C31421558   0.833   1.835   7.542 -0.1848  0.4013  0.1898
  187SAPI  H14X21559   0.857   1.731   7.574  3.1405  0.7047 -1.1067
  187SAPI  H14Y21560   0.743   1.828   7.476  0.4215  0.9270 -0.7104
  187SAPI  C31521561   0.813   1.921   7.664  0.5305 -0.5394 -0.3671
  187SAPI  H15X21562   0.786   2.026   7.637 -1.9237 -1.5282 -1.9041
  187SAPI  H15Y21563   0.903   1.910   7.728 -0.4358  0.8720  1.3054
  187SAPI  C31621564   0.704   1.871   7.763 -0.8350  0.2352  0.0841
  187SAPI  H16X21565   0.691   1.762   7.750 -0.0958  0.4031 -2.1408
  187SAPI  H16Y21566   0.607   1.912   7.728 -0.1797  0.3766 -1.6075
  187SAPI  C31721567   0.724   1.936   7.903  0.2480  0.0863  0.5437
  187SAPI  H17X21568   0.822   1.908   7.947 -0.7003 -1.0471  1.9813
  187SAPI  H17Y21569   0.650   1.899   7.977  0.2274  1.9358  1.4544
  187SAPI  C31821570   0.717   2.092   7.912 -0.6947 -0.2364  0.2649
  187SAPI  H18X21571   0.822   2.125   7.901 -0.6850 -0.1124  0.7379
  187SAPI  H18Y21572   0.669   2.118   8.008  0.7120  0.8311  0.6910
  187SAPI  H18Z21573   0.654   2.136   7.832  0.9447 -0.2611 -1.0618
  188SAPI   C1221574   0.817   5.285   5.782 -0.0894  0.1241 -0.2808
  188SAPI    H221575   0.815   5.244   5.886 -1.8953  0.7589 -0.0570
  188SAPI    O221576   0.846   5.173   5.698 -0.1644  0.0092  0.3208
  188SAPI   HO221577   0.942   5.168   5.700 -0.0749  1.9445  1.8299
  188SAPI   C1321578   0.680   5.339   5.751  0.0024 -0.3373 -0.7225
  188SAPI    H321579   0.654   5.423   5.819 -3.8013 -0.0997 -2.3325
  188SAPI    O321580   0.578   5.234   5.774 -0.4606  0.0636 -0.1309
  188SAPI   HO321581   0.492   5.269   5.799 -0.1178 -2.1969  4.7197
  188SAPI   C1421582   0.677   5.393   5.606 -0.4935  0.0244 -0.0737
  188SAPI    H421583   0.700   5.307   5.539  0.0107  2.4347 -3.0758
  188SAPI    O421584   0.547   5.445   5.576 -0.2904 -0.0555  0.0346
  188SAPI   HO421585   0.526   5.404   5.492 -2.5842  0.8300  0.1491
  188SAPI   C1521586   0.782   5.505   5.594  0.2232 -0.0426  0.1591
  188SAPI    H521587   0.770   5.579   5.677  3.3884  1.4122 -0.5807
  188SAPI    O521588   0.777   5.568   5.467 -0.2930  0.2343 -0.0834
  188SAPI   HO521589   0.756   5.661   5.476 -2.1511 -0.1262 -0.4210
  188SAPI   C1621590   0.918   5.445   5.624  0.5064 -0.0828  0.2647
  188SAPI    H621591   0.943   5.369   5.547 -0.6107  0.0717 -0.2448
  188SAPI    O621592   1.027   5.543   5.623  0.8609  0.5587  0.1481
  188SAPI   HO621593   1.091   5.520   5.691  0.0767 -1.6738  0.1894
  188SAPI   C1121594   0.925   5.388   5.763  0.3674 -0.0178 -1.3006
  188SAPI    H121595   0.899   5.470   5.834  0.2060 -1.4261  0.2854
  188SAPI     P21596   1.116   5.317   5.948 -0.1287  0.3214 -0.1337
  188SAPI   O1321597   1.251   5.266   5.933 -0.0163 -0.1807  0.1843
  188SAPI   O1421598   1.026   5.227   6.027 -0.3342 -1.2342 -0.0194
  188SAPI   O1221599   1.055   5.327   5.792 -0.0098 -0.5213  0.5024
  188SAPI   O1121600   1.110   5.466   5.999  0.2371  0.1717  0.3777
  188SAPI    C121601   1.038   5.500   6.118  0.2005 -0.1210 -0.6444
  188SAPI    HA21602   0.935   5.459   6.112 -0.4490  0.6400  3.6610
  188SAPI    HB21603   1.097   5.466   6.206 -0.0563  0.9250 -0.0600
  188SAPI    C221604   1.006   5.654   6.134 -0.1702 -0.6579 -0.1903
  188SAPI    HS21605   1.096   5.716   6.116 -1.6466  1.0783 -1.7613
  188SAPI   O2121606   0.946   5.670   6.267  0.3097 -0.1882 -1.2301
  188SAPI   C2121607   0.950   5.787   6.320  0.6695 -0.6212 -0.1776
  188SAPI   O2221608   0.996   5.890   6.266  0.4469  0.0776 -0.4702
  188SAPI   C2221609   0.889   5.778   6.466 -0.2162 -0.2997  0.1003
  188SAPI   H2R21610   0.930   5.858   6.531 -0.5324 -1.1245  1.3302
  188SAPI   H2S21611   0.780   5.791   6.453  0.1883  1.9053 -1.2432
  188SAPI    C321612   0.907   5.705   6.027  0.4221 -0.1198  0.3919
  188SAPI    HX21613   0.950   5.709   5.924 -1.0669 -0.4283 -0.2511
  188SAPI    HY21614   0.881   5.811   6.051 -1.8678 -0.9762  1.8152
  188SAPI   O3121615   0.781   5.629   6.009 -0.0146 -0.2452 -0.1750
  188SAPI   C3121616   0.689   5.643   6.096  0.0289 -0.2915 -0.3545
  188SAPI   O3221617   0.671   5.734   6.176  0.8921  0.2310 -0.1440
  188SAPI   C3221618   0.603   5.518   6.093  0.2992  0.5049  0.0923
  188SAPI   H2X21619   0.645   5.431   6.038  0.2265 -0.9839  2.3162
  188SAPI   H2Y21620   0.504   5.547   6.052  0.3533  0.1646 -0.2764
  188SAPI   C2321621   0.917   5.644   6.551 -0.4642  0.2094 -0.3178
  188SAPI   H3R21622   1.026   5.622   6.549 -0.7603 -1.1911 -2.2960
  188SAPI   H3S21623   0.876   5.554   6.500  0.0714  0.7415 -1.7274
  188SAPI   C2421624   0.859   5.643   6.692  0.1051  0.7136 -0.4469
  188SAPI   H4R21625   0.748   5.645   6.678  0.2222 -1.1266 -1.9026
  188SAPI   H4S21626   0.888   5.743   6.731  0.1805  2.0630 -3.7649
  188SAPI   C2521627   0.911   5.515   6.769  0.3855  0.1238  0.1201
  188SAPI   H5R21628   1.012   5.479   6.745 -0.4171 -2.5267  0.6296
  188SAPI   C2621629   0.843   5.432   6.842 -0.3471  0.4983  0.6777
  188SAPI   H6R21630   0.897   5.349   6.889  0.7318  1.0848  0.4813
  188SAPI   C2721631   0.695   5.440   6.868 -1.1735 -0.5005 -0.0925
  188SAPI   H7R21632   0.644   5.515   6.805 -0.8291  1.5152  1.9658
  188SAPI   H7S21633   0.687   5.487   6.969 -1.2695  1.2996 -0.9218
  188SAPI   C2821634   0.618   5.317   6.845  0.2744 -0.7572 -0.8341
  188SAPI   H8R21635   0.657   5.256   6.763  2.4585 -1.5502  0.7128
  188SAPI   C2921636   0.521   5.275   6.931 -0.2214  0.2725  0.4950
  188SAPI   H9R21637   0.472   5.178   6.917 -1.0879  0.7003  0.5369
  188SAPI  C21021638   0.482   5.356   7.055 -0.0068 -0.1233 -0.7307
  188SAPI  H10R21639   0.478   5.462   7.021  0.0663 -0.0356 -0.4700
  188SAPI  H10S21640   0.558   5.345   7.135 -0.3701 -1.4731 -0.5564
  188SAPI  C21121641   0.350   5.324   7.115 -0.0358  0.3063 -0.2763
  188SAPI  H11R21642   0.276   5.317   7.035 -0.9117  0.4381  0.5221
  188SAPI  C21221643   0.313   5.306   7.246 -0.2155  0.3687  0.1699
  188SAPI  H12R21644   0.206   5.304   7.269  0.5375 -0.2071  3.9092
  188SAPI  C21321645   0.403   5.312   7.368  0.2159  0.4004 -1.2883
  188SAPI  H13R21646   0.508   5.339   7.346 -0.0521 -0.2768 -3.5944
  188SAPI  H13S21647   0.406   5.210   7.413 -0.5121  1.0514  0.2775
  188SAPI  C21421648   0.358   5.418   7.462 -0.0407 -0.4248 -0.0803
  188SAPI  H14R21649   0.417   5.510   7.450 -0.4979  0.0785  1.3978
  188SAPI  C21521650   0.242   5.420   7.533 -0.8169  0.9306 -0.0020
  188SAPI  H15R21651   0.207   5.512   7.584 -3.0640 -0.1470  0.4884
  188SAPI  C21621652   0.144   5.307   7.529 -0.5660 -0.5131 -0.6324
  188SAPI  H16R21653   0.182   5.212   7.486 -1.4324 -0.6713 -1.0566
  188SAPI  H16S21654   0.051   5.337   7.477 -1.3112  1.5237  1.7745
  188SAPI  C21721655   0.083   5.276   7.666 -0.9365  0.1512  0.1018
  188SAPI  H17R21656   0.009   5.194   7.654  0.0214 -0.9249  1.4739
  188SAPI  H17S21657   0.034   5.371   7.695  1.2719  1.8579 -1.5484
  188SAPI  C21821658   0.180   5.224   7.769  0.1417  0.2862 -0.2321
  188SAPI  H18R21659   0.255   5.305   7.786 -1.2144  1.4000  0.5449
  188SAPI  H18S21660   0.213   5.120   7.752 -0.2744  0.1106  0.0464
  188SAPI  C21921661   0.127   5.226   7.913  0.6091 -0.2753  0.0498
  188SAPI  H19R21662   0.024   5.184   7.914  1.4546 -2.4028  1.6530
  188SAPI  H19S21663   0.125   5.330   7.952 -0.2323  0.0702 -0.8897
  188SAPI  C22021664   0.209   5.145   8.006  0.0903 -0.7952  0.5251
  188SAPI  H20R21665   0.316   5.176   8.006  0.2986 -1.4251 -1.2702
  188SAPI  H20S21666   0.210   5.041   7.968  0.7907  0.7882 -4.0483
  188SAPI  H20T21667   0.161   5.148   8.106 -1.3606 -2.4136 -0.1003
  188SAPI   C3321668   0.579   5.462   6.230 -0.0949  0.3132 -0.3971
  188SAPI   H3X21669   0.476   5.421   6.231  0.3040 -0.6950 -0.6367
  188SAPI   H3Y21670   0.575   5.538   6.310 -2.4237  0.6291 -0.7741
  188SAPI   C3421671   0.682   5.367   6.272  0.1343 -0.3325 -0.3316
  188SAPI   H4X21672   0.776   5.422   6.250 -0.4295  1.1886  0.9854
  188SAPI   H4Y21673   0.675   5.275   6.210 -0.1044  0.4096 -1.4165
  188SAPI   C3521674   0.680   5.336   6.426 -0.2822 -0.1934  0.1027
  188SAPI   H5X21675   0.588   5.275   6.439  0.1403 -1.4115 -2.3398
  188SAPI   H5Y21676   0.659   5.426   6.487  0.2551  2.0249 -2.9170
  188SAPI   C3621677   0.809   5.271   6.490  0.1378  0.3077 -0.2646
  188SAPI   H6X21678   0.806   5.275   6.601 -0.2651 -2.4815 -0.1454
  188SAPI   H6Y21679   0.897   5.330   6.457  0.7526 -0.9039 -0.8314
  188SAPI   C3721680   0.826   5.125   6.445  0.2366 -0.0204  0.0956
  188SAPI   H7X21681   0.933   5.093   6.451  0.2199 -0.5535 -2.1602
  188SAPI   H7Y21682   0.778   5.118   6.346  1.6594  2.2199 -0.7995
  188SAPI   C3821683   0.752   5.024   6.527 -0.2091 -0.4592 -0.0795
  188SAPI   H8X21684   0.756   4.919   6.489  0.3333 -0.2424 -0.6334
  188SAPI   H8Y21685   0.645   5.049   6.536  0.0662 -0.0951  2.6158
  188SAPI   C3921686   0.806   5.006   6.674 -0.7352 -0.3218 -0.1449
  188SAPI   H9X21687   0.793   5.102   6.728 -2.6753 -0.6584  0.0081
  188SAPI   H9Y21688   0.916   4.988   6.673 -0.7362 -0.2516 -1.3938
  188SAPI  C31021689   0.728   4.885   6.735  0.2347 -0.3246 -0.2509
  188SAPI  H10X21690   0.736   4.796   6.669  1.7944 -0.1326 -0.3351
  188SAPI  H10Y21691   0.623   4.923   6.736 -0.6231 -2.6075 -0.1100
  188SAPI  C31121692   0.779   4.852   6.875  0.1618  0.4811 -0.6589
  188SAPI  H11X21693   0.888   4.836   6.867  0.6772  3.0485  0.5295
  188SAPI  H11Y21694   0.724   4.761   6.906  0.6751  0.3222 -0.2171
  188SAPI  C31221695   0.754   4.965   6.971 -0.0927 -0.4960  0.4713
  188SAPI  H12X21696   0.651   5.002   6.958  0.1686 -0.7806 -2.6849
  188SAPI  H12Y21697   0.817   5.054   6.951 -1.9358  0.7914  0.3391
  188SAPI  C31321698   0.786   4.928   7.124 -0.1453  0.4406 -0.3480
  188SAPI  H13X21699   0.884   4.876   7.132  0.6361  1.9712  0.1417
  188SAPI  H13Y21700   0.710   4.851   7.149  0.2397  0.1616 -0.0287
  188SAPI  C31421701   0.766   5.043   7.230 -0.2107 -0.3174  0.6386
  188SAPI  H14X21702   0.787   5.007   7.332  1.3722 -3.1109 -0.6305
  188SAPI  H14Y21703   0.663   5.087   7.233 -0.7102 -1.4865  0.8578
  188SAPI  C31521704   0.862   5.160   7.204  0.1228 -0.0326 -0.5062
  188SAPI  H15X21705   0.840   5.197   7.102  0.8501  2.3440  0.1807
  188SAPI  H15Y21706   0.965   5.119   7.214 -0.1436 -1.0931 -1.8721
  188SAPI  C31621707   0.842   5.270   7.299  0.2453 -0.0886 -0.2307
  188SAPI  H16X21708   0.923   5.283   7.374  1.4985 -0.1967 -1.5659
  188SAPI  H16Y21709   0.739   5.270   7.343  0.1343  0.8777 -0.4750
  188SAPI  C31721710   0.847   5.394   7.217  0.0061  0.3401 -0.4424
  188SAPI  H17X21711   0.758   5.379   7.153 -1.2575  2.2646  0.7956
  188SAPI  H17Y21712   0.939   5.403   7.155  0.8871  1.2942  0.9572
  188SAPI  C31821713   0.825   5.522   7.304  0.5012 -0.7894  0.2583
  188SAPI  H18X21714   0.737   5.509   7.370 -0.8185 -1.4299 -1.5639
  188SAPI  H18Y21715   0.806   5.606   7.234 -0.0720 -1.9222 -0.9728
  188SAPI  H18Z21716   0.912   5.558   7.363  0.2378  1.1427 -0.4926
  189POPC     N21717   4.020   6.513  10.108 -0.2817  0.1888 -0.5119
  189POPC   C1221718   3.968   6.653  10.097 -0.4047  0.1138 -0.0408
  189POPC  H12A21719   4.061   6.707  10.093 -0.8518  0.7535 -1.7952
  189POPC  H12B21720   3.930   6.675  10.196 -1.2892  1.5431 -0.6958
  189POPC   C1321721   4.056   6.458   9.973  0.9248  0.7447  0.3934
  189POPC  H13A21722   3.965   6.451   9.916  0.4630  1.1838  1.0650
  189POPC  H13B21723   4.119   6.528   9.920  0.8804  1.7414  1.6195
  189POPC  H13C21724   4.102   6.361   9.981 -1.0872 -0.3033 -0.2670
  189POPC   C1421725   4.138   6.499  10.197  0.6971 -0.2612 -0.1547
  189POPC  H14A21726   4.223   6.562  10.173  1.0359 -1.2144 -1.5673
  189POPC  H14B21727   4.106   6.525  10.297 -1.7725 -1.7987 -0.5043
  189POPC  H14C21728   4.168   6.396  10.207  2.2430  0.1265 -0.6178
  189POPC   C1521729   3.920   6.418  10.162 -0.0934 -0.3101  0.0268
  189POPC  H15A21730   3.823   6.433  10.117  0.4925  0.8281 -0.8627
  189POPC  H15B21731   3.900   6.431  10.267  0.8562 -1.0830  0.3066
  189POPC  H15C21732   3.954   6.316  10.155 -3.1743 -1.2754 -2.4749
  189POPC   C1121733   3.862   6.699   9.995  0.1125 -0.3528  0.2395
  189POPC  H11A21734   3.903   6.706   9.892 -2.3015 -0.0337 -0.7229
  189POPC  H11B21735   3.857   6.807  10.024 -0.9066  0.4893 -2.9529
  189POPC     P21736   3.680   6.542   9.896  0.0924  0.2139 -0.4542
  189POPC   O1321737   3.538   6.563   9.867  1.1244  0.0537  0.5640
  189POPC   O1421738   3.706   6.413   9.967  0.0734  0.4887  0.4240
  189POPC   O1221739   3.732   6.654  10.001  0.5693 -0.2990 -0.0497
  189POPC   O1121740   3.773   6.542   9.774 -0.4470  0.0340 -0.6353
  189POPC    C121741   3.723   6.598   9.654 -0.0535  0.0861 -0.0360
  189POPC    HA21742   3.710   6.707   9.672  2.9634  0.6564 -0.9997
  189POPC    HB21743   3.628   6.557   9.614 -0.1149  0.7541 -0.5860
  189POPC    C221744   3.829   6.590   9.541  0.8801  0.4371 -0.6276
  189POPC    HS21745   3.916   6.653   9.570  0.3017  0.6915  0.5948
  189POPC   O2121746   3.768   6.637   9.416 -0.3539  0.0507  0.0562
  189POPC   C2121747   3.850   6.632   9.319 -1.0617  1.0044 -0.6166
  189POPC   O2221748   3.973   6.606   9.327  0.6907 -0.1721  0.0293
  189POPC   C2221749   3.772   6.680   9.192 -0.2927  0.4614  0.0577
  189POPC   H2R21750   3.705   6.768   9.206 -1.6169 -0.5571  0.2212
  189POPC   H2S21751   3.695   6.605   9.165 -0.4432  1.2402 -1.7339
  189POPC    C321752   3.879   6.438   9.540  0.1181 -0.4958  0.0188
  189POPC    HX21753   3.940   6.417   9.630 -1.3348  0.1248  1.1679
  189POPC    HY21754   3.955   6.423   9.460  0.8788  1.8058  0.2726
  189POPC   O3121755   3.769   6.346   9.517 -0.4326  0.2490  0.5715
  189POPC   C3121756   3.788   6.226   9.572  0.0088 -0.3545 -0.1589
  189POPC   O3221757   3.890   6.178   9.617  0.0744  0.0903 -0.2678
  189POPC   C3221758   3.654   6.147   9.565 -0.2080 -0.3543 -0.3447
  189POPC   H2X21759   3.564   6.208   9.542  0.2388  1.0773  1.6274
  189POPC   H2Y21760   3.643   6.088   9.658  1.4537 -0.2696 -0.0772
  189POPC   C2321761   3.858   6.715   9.070 -0.0738  0.2570 -0.4343
  189POPC   H3R21762   3.925   6.631   9.045 -1.1914 -0.2852 -1.6933
  189POPC   H3S21763   3.920   6.796   9.115 -0.9296  0.0098  1.2174
  189POPC   C2421764   3.781   6.766   8.945  0.7100  0.2083 -0.6405
  189POPC   H4R21765   3.704   6.832   8.989 -0.0396 -1.9823  1.4237
  189POPC   H4S21766   3.723   6.678   8.909  1.4973 -0.2754 -0.7534
  189POPC   C2521767   3.875   6.830   8.845  0.1962 -0.9654  1.1132
  189POPC   H5R21768   3.965   6.764   8.849  0.4060 -0.6920  0.9652
  189POPC   H5S21769   3.900   6.933   8.877  0.0612  0.1271 -2.1446
  189POPC   C2621770   3.813   6.829   8.701 -0.5196 -0.1978 -0.2861
  189POPC   H6R21771   3.740   6.910   8.682  0.5196  0.9366  0.4995
  189POPC   H6S21772   3.763   6.730   8.692 -2.6757  0.7482  0.7452
  189POPC   C2721773   3.927   6.833   8.598 -0.9382 -0.3759  0.2725
  189POPC   H7R21774   3.997   6.749   8.618  0.6901  0.8907  0.0223
  189POPC   H7S21775   3.984   6.928   8.595 -0.9670 -0.3101  1.3823
  189POPC   C2821776   3.880   6.801   8.461  0.7023 -0.0198  0.5049
  189POPC   H8R21777   3.810   6.881   8.428 -0.1802 -1.1391 -0.3703
  189POPC   H8S21778   3.816   6.711   8.479  1.9142 -0.5862  2.0887
  189POPC   C2921779   3.986   6.776   8.363  0.0614  0.3023 -0.2662
  189POPC   H9121780   4.056   6.698   8.395 -2.0122 -1.0848  1.0358
  189POPC  C21021781   4.012   6.837   8.240 -0.0844  0.7042 -0.7486
  189POPC  H10121782   4.092   6.802   8.174 -1.6765 -1.9038 -1.3389
  189POPC  C21121783   3.926   6.948   8.178  0.3319 -0.3383  0.2036
  189POPC  H11R21784   3.988   7.038   8.157 -0.7184  0.7391  1.5863
  189POPC  H11S21785   3.855   6.987   8.255  2.7030 -0.6911  2.6355
  189POPC  C21221786   3.858   6.915   8.049  0.5581  0.1285  0.2973
  189POPC  H12R21787   3.789   6.999   8.025 -1.7381 -1.2036  2.1245
  189POPC  H12S21788   3.799   6.824   8.071  0.3094  0.2978  0.3247
  189POPC  C21321789   3.962   6.897   7.938  0.0158 -0.2452  0.9850
  189POPC  H13R21790   4.042   6.831   7.978 -0.0024  0.4462  2.1682
  189POPC  H13S21791   4.022   6.990   7.930 -0.8693  0.3345  0.9869
  189POPC  C21421792   3.907   6.842   7.802 -0.4764  0.2054  0.2861
  189POPC  H14R21793   3.841   6.917   7.753 -1.8711 -1.0822  0.1668
  189POPC  H14S21794   3.829   6.765   7.815 -0.9269  0.6644  0.3081
  189POPC  C21521795   4.005   6.793   7.698 -0.3817  0.2745 -0.1367
  189POPC  H15R21796   4.076   6.875   7.675  0.6987 -1.1948 -2.2103
  189POPC  H15S21797   3.947   6.769   7.607 -1.0351  3.6890 -0.6634
  189POPC  C21621798   4.084   6.664   7.737 -0.4044  0.4742  0.0794
  189POPC  H16R21799   4.014   6.578   7.741  0.4061 -0.2859 -1.5987
  189POPC  H16S21800   4.113   6.654   7.844  0.8083 -0.7525 -0.3566
  189POPC  C21721801   4.211   6.635   7.658  0.3675  0.2357  0.1492
  189POPC  H17R21802   4.274   6.559   7.710 -0.9125  1.5928  3.8905
  189POPC  H17S21803   4.261   6.734   7.659 -0.6898  0.7818  1.2100
  189POPC  C21821804   4.189   6.606   7.514 -0.5968  0.4599  0.9840
  189POPC  H18R21805   4.118   6.521   7.506 -0.4477  0.2339  2.0401
  189POPC  H18S21806   4.279   6.558   7.470 -2.5368 -0.6358 -1.9602
  189POPC  H18T21807   4.165   6.690   7.445  0.9843 -0.7682 -1.1151
  189POPC   C3321808   3.662   6.043   9.449 -0.8995  1.0297  0.6244
  189POPC   H3X21809   3.568   5.987   9.430  0.0770  0.5297 -3.0215
  189POPC   H3Y21810   3.742   5.969   9.471 -1.5342  0.5620  1.4038
  189POPC   C3421811   3.682   6.117   9.321  0.0906 -0.2396  0.0272
  189POPC   H4X21812   3.775   6.178   9.318  0.4501 -0.8652 -2.9127
  189POPC   H4Y21813   3.598   6.186   9.296 -0.4060 -0.7595  0.2584
  189POPC   C3521814   3.688   6.019   9.201 -0.2276 -0.2093 -0.0517
  189POPC   H5X21815   3.720   5.918   9.235  0.6783  0.6192  1.6685
  189POPC   H5Y21816   3.769   6.035   9.127 -0.3041 -0.0564 -0.1031
  189POPC   C3621817   3.556   6.005   9.127  0.2300 -0.6104  0.7249
  189POPC   H6X21818   3.528   6.103   9.085 -1.1658 -0.6700  1.4758
  189POPC   H6Y21819   3.474   5.985   9.199  0.3845 -0.0876  1.0474
  189POPC   C3721820   3.555   5.911   9.001  0.2898  0.1734  0.8500
  189POPC   H7X21821   3.452   5.870   8.996  1.1803 -2.8920  4.6814
  189POPC   H7Y21822   3.615   5.818   9.012  0.4951 -0.1114 -2.0908
  189POPC   C3821823   3.589   5.981   8.872  0.6355 -0.1481 -0.1148
  189POPC   H8X21824   3.675   6.050   8.885  0.5484 -0.1421  0.4538
  189POPC   H8Y21825   3.496   6.038   8.853  0.2724 -0.7219 -0.0664
  189POPC   C3921826   3.589   5.885   8.751 -0.1647  0.9367  0.2293
  189POPC   H9X21827   3.504   5.814   8.741 -1.4562  2.0860  2.7393
  189POPC   H9Y21828   3.680   5.822   8.754 -1.3447 -0.6906  2.4745
  189POPC  C31021829   3.603   5.966   8.623  0.4808  0.4727  0.3673
  189POPC  H10X21830   3.669   6.053   8.644 -0.6286  0.9298  2.1680
  189POPC  H10Y21831   3.500   6.003   8.600  0.6578  0.5804 -0.2621
  189POPC  C31121832   3.643   5.884   8.503 -0.6683  0.0069  0.9201
  189POPC  H11X21833   3.575   5.797   8.504  0.3856 -0.9451 -2.8915
  189POPC  H11Y21834   3.747   5.848   8.517 -0.4809  0.1945  0.0722
  189POPC  C31221835   3.638   5.966   8.368 -0.1096 -0.2612 -0.5803
  189POPC  H12X21836   3.659   6.072   8.392 -3.2996  0.1808  0.5286
  189POPC  H12Y21837   3.533   5.969   8.330 -0.2675 -0.3991 -0.1589
  189POPC  C31321838   3.725   5.915   8.252 -0.1591 -0.3841 -0.8096
  189POPC  H13X21839   3.824   5.899   8.300 -1.1206 -1.3406  0.8774
  189POPC  H13Y21840   3.718   6.001   8.182 -0.9098  0.3740  0.1865
  189POPC  C31421841   3.674   5.785   8.198  0.8257  0.3482 -0.7481
  189POPC  H14X21842   3.578   5.804   8.146  1.0233 -0.1158 -1.2842
  189POPC  H14Y21843   3.646   5.707   8.273  2.2902 -0.8727 -1.4426
  189POPC  C31521844   3.762   5.731   8.084  0.5019  0.2872  0.5870
  189POPC  H15X21845   3.726   5.634   8.044 -1.4230  1.2544 -0.0738
  189POPC  H15Y21846   3.859   5.697   8.126  0.1214 -2.2079 -0.4818
  189POPC  C31621847   3.785   5.832   7.972  0.3485  0.1203  0.4044
  189POPC  H16X21848   3.853   5.775   7.906 -0.0224  0.6861 -0.4882
  189POPC  H16Y21849   3.844   5.920   8.006  0.5210 -0.1089  0.6965
  189POPC  H16Z21850   3.696   5.881   7.927 -0.1078 -0.7491  0.3555
  190POPC     N21851   6.198   2.542  10.158 -0.0619  1.0876  0.2192
  190POPC   C1221852   6.173   2.581  10.017  0.9008  0.2957 -0.1428
  190POPC  H12A21853   6.140   2.684  10.016 -1.1976 -0.3395 -1.6107
  190POPC  H12B21854   6.087   2.528   9.977  0.6421  2.2362 -2.2895
  190POPC   C1321855   6.252   2.399  10.165  0.0111  0.1826  0.3167
  190POPC  H13A21856   6.348   2.377  10.121 -0.1508  0.6404 -0.2683
  190POPC  H13B21857   6.248   2.372  10.270  0.5281 -1.2476 -0.0307
  190POPC  H13C21858   6.190   2.338  10.101  0.9194 -2.9197  2.2917
  190POPC   C1421859   6.292   2.628  10.226  0.4920  0.3215  0.2879
  190POPC  H14A21860   6.247   2.725  10.244  0.8035  0.3172  1.1229
  190POPC  H14B21861   6.343   2.596  10.315 -1.3912  1.7034  1.9158
  190POPC  H14C21862   6.369   2.647  10.152  0.5040 -2.2663 -0.4177
  190POPC   C1521863   6.072   2.553  10.239  0.9184 -0.1693  0.2882
  190POPC  H15A21864   6.093   2.528  10.342 -1.3910 -1.8256  0.4049
  190POPC  H15B21865   5.995   2.498  10.186 -1.2376  3.9640 -1.0596
  190POPC  H15C21866   6.031   2.653  10.238  0.3811 -0.3949 -0.4497
  190POPC   C1121867   6.280   2.581   9.908 -0.5119  0.3177  0.3318
  190POPC  H11A21868   6.221   2.603   9.817 -2.4753  2.1623  1.9693
  190POPC  H11B21869   6.328   2.483   9.889 -1.2201  0.1218 -0.4695
  190POPC     P21870   6.351   2.834   9.877  0.0258 -0.1857 -0.3459
  190POPC   O1321871   6.468   2.933   9.882  0.3780  0.4213  0.0695
  190POPC   O1421872   6.233   2.890   9.954  0.3013 -0.2482  0.7661
  190POPC   O1221873   6.379   2.687   9.937 -0.4606 -0.0088  0.5047
  190POPC   O1121874   6.320   2.812   9.723 -0.3886  0.0919  0.1098
  190POPC    C121875   6.416   2.747   9.641 -0.3187  0.2998 -0.4470
  190POPC    HA21876   6.374   2.653   9.602  0.0309 -1.3098  2.8655
  190POPC    HB21877   6.499   2.712   9.706 -1.5619  1.0315  1.5995
  190POPC    C221878   6.468   2.831   9.522 -0.4627  0.5752  0.0032
  190POPC    HS21879   6.378   2.850   9.460 -1.5530 -0.5707  1.1976
  190POPC   O2121880   6.591   2.771   9.466 -0.5069 -0.5332 -0.4637
  190POPC   C2121881   6.568   2.676   9.372  0.0978 -0.0734  0.7119
  190POPC   O2221882   6.459   2.638   9.338 -0.0427 -0.0712  0.4991
  190POPC   C2221883   6.700   2.611   9.344 -0.6291  0.3624  0.2416
  190POPC   H2R21884   6.733   2.569   9.442  1.8457  0.5203 -0.5030
  190POPC   H2S21885   6.772   2.694   9.329  1.1294 -1.0006  0.9910
  190POPC    C321886   6.503   2.970   9.570 -0.0042  0.0354 -0.5318
  190POPC    HX21887   6.593   2.957   9.634 -0.1362  0.2821 -0.2926
  190POPC    HY21888   6.427   3.016   9.637  1.5368  0.3934  1.0047
  190POPC   O3121889   6.527   3.060   9.465 -0.2978  0.3087  0.0347
  190POPC   C3121890   6.426   3.117   9.395 -0.0064 -0.9063 -0.0812
  190POPC   O3221891   6.311   3.086   9.408  0.3450 -0.3801  0.2875
  190POPC   C3221892   6.490   3.233   9.314  0.1538 -0.0038  0.2510
  190POPC   H2X21893   6.552   3.288   9.388  0.1085 -0.1344  0.3863
  190POPC   H2Y21894   6.409   3.299   9.275  0.9791  1.9359  1.7405
  190POPC   C2321895   6.698   2.502   9.233 -0.1837 -0.4028  0.2643
  190POPC   H3R21896   6.618   2.428   9.253 -1.0617  0.5928  0.4617
  190POPC   H3S21897   6.804   2.469   9.231 -0.0876 -0.0879  0.0640
  190POPC   C2421898   6.676   2.559   9.091 -0.2037  0.4142  0.2518
  190POPC   H4R21899   6.574   2.604   9.091 -0.8579 -1.0221 -1.1155
  190POPC   H4S21900   6.667   2.476   9.017  0.5223  1.4157 -0.9815
  190POPC   C2521901   6.780   2.660   9.043  0.0325 -0.2358 -0.5450
  190POPC   H5R21902   6.880   2.615   9.063  0.0244 -0.1270 -0.2570
  190POPC   H5S21903   6.779   2.759   9.094  3.7852 -0.1755 -0.4506
  190POPC   C2621904   6.780   2.685   8.885 -0.1424  0.0506 -0.2136
  190POPC   H6R21905   6.838   2.777   8.861  0.7065 -0.6270 -0.7654
  190POPC   H6S21906   6.679   2.724   8.859 -0.6641 -2.2211 -1.7051
  190POPC   C2721907   6.826   2.563   8.803  0.5330 -0.2157 -0.2115
  190POPC   H7R21908   6.753   2.486   8.835  1.3107 -0.6664  0.5094
  190POPC   H7S21909   6.928   2.525   8.828  0.1288 -0.4611  1.1294
  190POPC   C2821910   6.804   2.569   8.648 -0.2627  0.1320  1.0577
  190POPC   H8R21911   6.694   2.578   8.633 -0.6276 -2.3884  1.9624
  190POPC   H8S21912   6.844   2.475   8.606 -0.4477  0.4635  0.1301
  190POPC   C2921913   6.866   2.689   8.577  0.1908  0.9350 -0.2701
  190POPC   H9121914   6.950   2.729   8.636  1.4596 -0.6459 -0.9849
  190POPC  C21021915   6.829   2.739   8.455 -0.1065  0.0496 -0.0741
  190POPC  H10121916   6.882   2.827   8.416  1.2800 -0.3873  0.7901
  190POPC  C21121917   6.721   2.684   8.362  0.1426 -0.5366  0.3700
  190POPC  H11R21918   6.630   2.747   8.363  0.9493  0.6567  0.3428
  190POPC  H11S21919   6.689   2.585   8.402  0.7403 -0.9598 -0.1823
  190POPC  C21221920   6.766   2.660   8.217 -0.5831  0.0093  1.2887
  190POPC  H12R21921   6.858   2.599   8.226 -0.5373  0.0905  1.3814
  190POPC  H12S21922   6.787   2.757   8.166 -0.4592 -2.4389 -3.5377
  190POPC  C21321923   6.660   2.592   8.131 -0.1370  1.0473 -0.3514
  190POPC  H13R21924   6.628   2.495   8.175  1.5051  1.0592  0.9696
  190POPC  H13S21925   6.707   2.568   8.033  0.7697  2.2459 -0.2253
  190POPC  C21421926   6.545   2.684   8.103  0.1041 -0.0819  0.3307
  190POPC  H14R21927   6.586   2.783   8.072  1.1481 -1.0305 -1.4469
  190POPC  H14S21928   6.494   2.691   8.201  1.9604 -1.0125  1.3867
  190POPC  C21521929   6.450   2.636   7.997  0.2852 -0.6382 -0.2638
  190POPC  H15R21930   6.414   2.532   8.016 -2.8493  0.2026 -1.2667
  190POPC  H15S21931   6.507   2.632   7.902  1.7898 -0.6483  0.6169
  190POPC  C21621932   6.330   2.727   7.979 -0.6671  0.0285 -0.2498
  190POPC  H16R21933   6.369   2.831   7.983 -2.6353  0.8904 -2.2158
  190POPC  H16S21934   6.278   2.713   8.076 -0.1388 -1.3898 -0.1520
  190POPC  C21721935   6.252   2.703   7.851  0.3738 -0.3215 -0.1872
  190POPC  H17R21936   6.316   2.713   7.760  1.9364 -4.1458  0.3724
  190POPC  H17S21937   6.168   2.775   7.839  2.2881  2.5146  2.6214
  190POPC  C21821938   6.196   2.562   7.852  0.0975  0.4321 -0.0376
  190POPC  H18R21939   6.250   2.474   7.894  0.7088  1.1003  0.5826
  190POPC  H18S21940   6.160   2.546   7.748 -0.6615  0.0056  0.2860
  190POPC  H18T21941   6.099   2.573   7.905  0.0363  1.9123 -0.4362
  190POPC   C3321942   6.577   3.187   9.195  0.0510 -0.0158 -0.1347
  190POPC   H3X21943   6.658   3.130   9.246  0.3309  0.6017  0.1265
  190POPC   H3Y21944   6.616   3.278   9.145 -0.3072  0.3551  0.2582
  190POPC   C3421945   6.501   3.117   9.086  0.3627  0.9588 -0.5561
  190POPC   H4X21946   6.418   3.181   9.049 -0.9138 -0.3219  0.0885
  190POPC   H4Y21947   6.455   3.024   9.124 -0.4723  0.9256 -1.6477
  190POPC   C3521948   6.598   3.064   8.978  0.0259  0.7895  0.2416
  190POPC   H5X21949   6.678   2.999   9.018 -0.9229 -0.6709 -0.1824
  190POPC   H5Y21950   6.654   3.158   8.955 -1.1311  1.3331 -0.4417
  190POPC   C3621951   6.536   3.021   8.842 -0.1006 -0.2915 -0.0142
  190POPC   H6X21952   6.450   3.088   8.826  1.0658  1.0606 -0.7718
  190POPC   H6Y21953   6.504   2.914   8.840 -1.3245  0.0896 -1.7688
  190POPC   C3721954   6.628   3.049   8.717  0.0583 -0.2065 -0.1836
  190POPC   H7X21955   6.726   2.998   8.720 -0.2851 -0.8188  0.6671
  190POPC   H7Y21956   6.651   3.156   8.700 -0.4437 -0.0583  0.0519
  190POPC   C3821957   6.570   3.005   8.582  0.4896  0.8396 -0.9445
  190POPC   H8X21958   6.524   2.907   8.609 -3.2705  1.9597 -2.8939
  190POPC   H8Y21959   6.645   2.976   8.506  0.6840 -0.5438 -0.2541
  190POPC   C3921960   6.472   3.106   8.517  1.0359 -0.6117 -0.5321
  190POPC   H9X21961   6.515   3.208   8.515 -1.8086  0.6350 -0.3958
  190POPC   H9Y21962   6.375   3.108   8.570  3.1222  0.9170  3.4626
  190POPC  C31021963   6.445   3.068   8.369 -1.6513  0.5618 -0.3948
  190POPC  H10X21964   6.430   2.958   8.373 -0.4438  0.4249  0.6629
  190POPC  H10Y21965   6.546   3.079   8.325 -1.1440  1.4788  0.9582
  190POPC  C31121966   6.340   3.150   8.303 -0.1957  0.3315 -1.1855
  190POPC  H11X21967   6.359   3.259   8.310 -0.8322  0.2541  3.1190
  190POPC  H11Y21968   6.244   3.119   8.350  0.0349 -1.0546 -1.6069
  190POPC  C31221969   6.339   3.110   8.149 -0.6438  0.6368 -0.3508
  190POPC  H12X21970   6.331   2.999   8.147  1.5001  0.3507  3.2535
  190POPC  H12Y21971   6.443   3.142   8.127 -1.0546  0.1803 -3.1542
  190POPC  C31321972   6.229   3.172   8.064  0.9537 -0.3524  0.5745
  190POPC  H13X21973   6.230   3.283   8.061  0.5077 -0.3843 -0.6151
  190POPC  H13Y21974   6.134   3.132   8.106  0.8622  0.6539  1.3507
  190POPC  C31421975   6.231   3.118   7.923 -0.9071  0.5675  0.3125
  190POPC  H14X21976   6.153   3.171   7.865  0.3421  1.1962 -0.8223
  190POPC  H14Y21977   6.209   3.009   7.922 -1.7734  0.6780  2.8426
  190POPC  C31521978   6.364   3.134   7.846  0.5133 -0.3831  0.3518
  190POPC  H15X21979   6.362   3.060   7.763  2.8602  0.5146 -0.5537
  190POPC  H15Y21980   6.451   3.123   7.915  0.7774  2.2308  0.4839
  190POPC  C31621981   6.385   3.270   7.781  0.7641  0.0678  0.6026
  190POPC  H16X21982   6.403   3.346   7.860  4.5275 -1.4559  1.3261
  190POPC  H16Y21983   6.296   3.307   7.725  0.2341  0.0023  1.4031
  190POPC  H16Z21984   6.478   3.261   7.719 -0.5635  0.7767 -1.5530
  191POPC     N21985   4.368   4.231   5.868  1.0804  0.0084 -0.3096
  191POPC   C1221986   4.265   4.215   5.980  0.4980  0.6305  0.4927
  191POPC  H12A21987   4.235   4.111   5.976  0.8187  0.5477  0.2339
  191POPC  H12B21988   4.178   4.277   5.963 -1.6808 -1.7049  2.7256
  191POPC   C1321989   4.485   4.132   5.883  0.1012 -0.0438  0.3271
  191POPC  H13A21990   4.443   4.034   5.896 -0.4566  0.3425  1.5287
  191POPC  H13B21991   4.558   4.133   5.804  0.6712 -0.8220  0.8276
  191POPC  H13C21992   4.546   4.158   5.969  0.5777  1.7777 -0.5466
  191POPC   C1421993   4.298   4.195   5.739  0.6239  0.1354  0.2694
  191POPC  H14A21994   4.372   4.208   5.661  0.3804  2.6638  0.4100
  191POPC  H14B21995   4.263   4.093   5.742 -1.8373  0.9275 -1.0663
  191POPC  H14C21996   4.213   4.258   5.718  1.1628  0.7108 -0.2122
  191POPC   C1521997   4.412   4.376   5.852  0.5202 -0.5570 -0.2596
  191POPC  H15A21998   4.328   4.439   5.826 -0.7924 -1.5312  1.5025
  191POPC  H15B21999   4.490   4.383   5.778  0.6611  0.2845 -0.0243
  191POPC  H15C22000   4.449   4.420   5.943 -1.4035 -0.1077  0.3347
  191POPC   C1122001   4.294   4.249   6.130 -0.5129 -0.4889  1.0550
  191POPC  H11A22002   4.202   4.236   6.191 -0.8991  0.6007  0.7137
  191POPC  H11B22003   4.329   4.354   6.141  3.5400 -1.7773  1.2931
  191POPC     P22004   4.385   4.022   6.223  0.1672 -0.3622  0.1063
  191POPC   O1322005   4.428   3.943   6.109 -0.5911 -0.1925 -0.0158
  191POPC   O1422006   4.253   3.996   6.284  0.1985  0.3571 -0.1118
  191POPC   O1222007   4.399   4.172   6.183 -0.7511 -0.5649 -0.2571
  191POPC   O1122008   4.492   4.005   6.339 -0.4985  0.3765  0.7229
  191POPC    C122009   4.621   4.067   6.329 -0.0266  0.3914  0.2523
  191POPC    HA22010   4.673   4.064   6.427 -1.3465 -0.5361  0.9373
  191POPC    HB22011   4.619   4.173   6.294 -1.0422  0.3851  0.2617
  191POPC    C222012   4.719   3.989   6.227  0.1335  0.6428 -0.4698
  191POPC    HS22013   4.677   4.005   6.125 -1.4881 -0.8010 -0.0543
  191POPC   O2122014   4.696   3.855   6.266 -0.0953 -0.2578 -0.3548
  191POPC   C2122015   4.736   3.761   6.171  1.3470 -0.5064 -0.2877
  191POPC   O2222016   4.800   3.785   6.069  0.6481 -0.2971 -0.5252
  191POPC   C2222017   4.692   3.625   6.225 -0.0214  0.1572  0.0309
  191POPC   H2R22018   4.584   3.617   6.198 -0.0357  1.0360 -0.1857
  191POPC   H2S22019   4.694   3.618   6.336 -1.3384  0.3787  0.0765
  191POPC    C322020   4.865   4.037   6.234  0.1006  0.2173  0.1114
  191POPC    HX22021   4.876   4.142   6.197 -0.2881  0.9218  1.9699
  191POPC    HY22022   4.919   3.972   6.162 -1.0205  0.6703 -1.1763
  191POPC   O3122023   4.908   4.034   6.365  0.6581  0.3677 -0.2149
  191POPC   C3122024   4.982   3.927   6.405 -0.0217  0.0096  0.0055
  191POPC   O3222025   4.995   3.827   6.334 -0.3243 -0.8630  0.3400
  191POPC   C3222026   5.045   3.949   6.539 -0.0301 -0.2737 -0.4141
  191POPC   H2X22027   5.053   4.060   6.551 -1.9647 -0.2742  1.0549
  191POPC   H2Y22028   5.147   3.907   6.528  0.7545  1.6783 -0.9518
  191POPC   C2322029   4.758   3.490   6.160 -0.4433 -0.3863  0.1727
  191POPC   H3R22030   4.740   3.496   6.051 -0.2772  0.2566  0.1771
  191POPC   H3S22031   4.705   3.398   6.192 -0.8132 -0.2072  0.0836
  191POPC   C2422032   4.904   3.483   6.192 -0.7473  0.4637 -0.2847
  191POPC   H4R22033   4.959   3.570   6.151  0.4991 -0.9189 -1.5924
  191POPC   H4S22034   4.938   3.388   6.145  1.3914 -0.1207  2.3301
  191POPC   C2522035   4.953   3.459   6.337  0.5997 -0.2812 -0.0348
  191POPC   H5R22036   4.932   3.557   6.386  0.9423 -0.2690  0.0881
  191POPC   H5S22037   5.064   3.453   6.337  0.7037  1.3328  0.4068
  191POPC   C2622038   4.889   3.334   6.405  0.0002  0.2877 -0.7446
  191POPC   H6R22039   4.892   3.250   6.332 -0.4547  0.7218 -1.2678
  191POPC   H6S22040   4.780   3.352   6.415  0.2646  2.0526 -0.8831
  191POPC   C2722041   4.957   3.290   6.536 -0.0087 -0.3662  0.0098
  191POPC   H7R22042   5.059   3.252   6.512  0.0689  2.3645 -4.5907
  191POPC   H7S22043   4.898   3.203   6.573  2.1494 -1.4439  1.0084
  191POPC   C2822044   4.983   3.405   6.638  0.2663  0.7510  0.1481
  191POPC   H8R22045   5.050   3.473   6.580 -0.2510  0.6614 -0.5559
  191POPC   H8S22046   5.038   3.367   6.727 -1.1188  2.5890  1.8470
  191POPC   C2922047   4.861   3.481   6.679 -0.7374  0.2881 -0.1796
  191POPC   H9122048   4.811   3.528   6.593 -1.3584 -0.3589 -0.1722
  191POPC  C21022049   4.820   3.516   6.798 -0.1392 -0.1066 -0.6865
  191POPC  H10122050   4.724   3.569   6.804 -0.7217 -1.0691 -1.4570
  191POPC  C21122051   4.901   3.487   6.924  0.2988 -0.4836  0.2104
  191POPC  H11R22052   5.006   3.520   6.912  0.0562 -0.0766 -0.8636
  191POPC  H11S22053   4.886   3.383   6.959 -0.0367 -0.3549  0.4507
  191POPC  C21222054   4.845   3.563   7.053 -0.0237  0.0148 -0.3677
  191POPC  H12R22055   4.736   3.549   7.066 -0.0011 -0.0467 -0.2361
  191POPC  H12S22056   4.865   3.672   7.039  0.1885 -0.0265 -0.3841
  191POPC  C21322057   4.904   3.511   7.189  0.1565  0.9037 -0.2272
  191POPC  H13R22058   5.004   3.556   7.206  0.5594  0.0891 -0.3866
  191POPC  H13S22059   4.902   3.400   7.190 -0.5600  0.8831 -2.0287
  191POPC  C21422060   4.810   3.552   7.300 -0.2196 -0.7548 -0.5828
  191POPC  H14R22061   4.721   3.486   7.302 -0.7211 -0.0909 -0.8581
  191POPC  H14S22062   4.773   3.657   7.295  1.7237 -0.0412 -0.6310
  191POPC  C21522063   4.889   3.533   7.433  0.2805 -0.2316 -0.4340
  191POPC  H15R22064   4.807   3.560   7.503  0.2731  0.2139 -0.6091
  191POPC  H15S22065   4.963   3.614   7.451 -0.4649  0.7676 -1.7590
  191POPC  C21622066   4.938   3.392   7.452  0.0492  1.1503 -0.3895
  191POPC  H16R22067   5.008   3.374   7.368 -0.6798 -0.1572 -0.7308
  191POPC  H16S22068   4.851   3.326   7.430  1.5704 -1.4524  1.0586
  191POPC  C21722069   5.014   3.368   7.589 -0.1070 -0.0636  0.3959
  191POPC  H17R22070   5.012   3.260   7.613 -1.1859 -0.2335 -0.4453
  191POPC  H17S22071   4.949   3.418   7.665 -0.4419 -0.4138  0.3383
  191POPC  C21822072   5.148   3.440   7.620  0.1213 -0.4201  0.0206
  191POPC  H18R22073   5.143   3.550   7.606 -0.5065 -0.4446  0.0267
  191POPC  H18S22074   5.229   3.410   7.550 -1.5918  0.9207 -2.6365
  191POPC  H18T22075   5.172   3.418   7.726  0.6905  1.5952  0.3303
  191POPC   C3322076   4.958   3.892   6.659 -0.0567 -0.0440 -0.1519
  191POPC   H3X22077   4.978   3.784   6.674  0.5269  0.5162  3.7387
  191POPC   H3Y22078   4.851   3.891   6.629  0.0700  0.9645 -0.6301
  191POPC   C3422079   4.962   3.963   6.793 -0.3804  0.3322 -0.2909
  191POPC   H4X22080   4.866   3.939   6.843  0.8170 -1.6715  1.0895
  191POPC   H4Y22081   4.964   4.074   6.788  2.2538  0.3202 -0.4158
  191POPC   C3522082   5.078   3.902   6.867 -0.5299 -0.0306 -0.0672
  191POPC   H5X22083   5.173   3.923   6.813 -1.3747 -0.3026 -1.6910
  191POPC   H5Y22084   5.071   3.791   6.874  2.2839 -0.4230 -2.5377
  191POPC   C3622085   5.081   3.948   7.015  0.7649 -0.0883  0.2023
  191POPC   H6X22086   4.977   3.956   7.052  0.9112  1.1088  0.3889
  191POPC   H6Y22087   5.121   4.050   7.031  3.7283 -1.1777  0.0452
  191POPC   C3722088   5.142   3.851   7.119  0.1799 -0.2589 -0.2898
  191POPC   H7X22089   5.250   3.828   7.108 -0.4151 -3.0874 -0.6424
  191POPC   H7Y22090   5.093   3.753   7.105  1.8488 -1.1293 -0.2315
  191POPC   C3822091   5.121   3.911   7.255  0.9084 -0.2274 -0.4552
  191POPC   H8X22092   5.012   3.917   7.276  0.8044  0.5590 -1.1905
  191POPC   H8Y22093   5.150   4.018   7.262 -0.1223  0.0520 -0.2899
  191POPC   C3922094   5.193   3.840   7.372  0.0799  0.0294  0.3945
  191POPC   H9X22095   5.299   3.828   7.342  0.2187 -3.7799  2.1183
  191POPC   H9Y22096   5.153   3.738   7.392 -3.2057  1.5995  2.3303
  191POPC  C31022097   5.188   3.916   7.505  0.4316  0.1623  0.0482
  191POPC  H10X22098   5.252   4.007   7.495 -0.5934  1.1488  2.1078
  191POPC  H10Y22099   5.249   3.854   7.574 -1.0098 -1.4190 -0.0767
  191POPC  C31122100   5.052   3.965   7.557 -0.3300  0.7651  0.7898
  191POPC  H11X22101   5.006   4.044   7.494  1.2594  0.3145 -1.0093
  191POPC  H11Y22102   5.080   4.010   7.654  2.3597 -0.1074  0.4597
  191POPC  C31222103   4.950   3.862   7.594  0.6830 -0.2481 -0.9429
  191POPC  H12X22104   5.003   3.772   7.633  1.0462 -0.0686 -1.0266
  191POPC  H12Y22105   4.883   3.845   7.506 -1.2196  1.0881  0.2193
  191POPC  C31322106   4.838   3.906   7.694  1.0427  0.4455  0.1282
  191POPC  H13X22107   4.804   4.006   7.659  0.9019  0.4840  0.3793
  191POPC  H13Y22108   4.867   3.929   7.798 -1.5593  0.4136  0.8892
  191POPC  C31422109   4.713   3.821   7.697 -0.3018 -0.6711  0.2808
  191POPC  H14X22110   4.748   3.718   7.722  2.3614  0.7987  2.9662
  191POPC  H14Y22111   4.673   3.798   7.597 -2.8901  3.0812  0.3684
  191POPC  C31522112   4.620   3.883   7.801 -0.2081 -0.1856  0.7156
  191POPC  H15X22113   4.517   3.847   7.781 -0.4511  0.1763  1.2919
  191POPC  H15Y22114   4.605   3.991   7.779 -0.6816 -0.3090  0.4328
  191POPC  C31622115   4.659   3.870   7.953 -0.4537  0.4600 -0.1298
  191POPC  H16X22116   4.764   3.901   7.973 -0.5737 -0.7728  2.6004
  191POPC  H16Y22117   4.635   3.769   7.993 -2.2571 -0.3727 -3.1111
  191POPC  H16Z22118   4.604   3.954   8.000 -0.2179  0.0051  0.9650
  192POPC     N22119   2.377   6.508   6.074  0.2193  0.0627  0.3277
  192POPC   C1222120   2.382   6.450   6.216  0.2758 -0.1856 -0.3310
  192POPC  H12A22121   2.331   6.355   6.219  1.0156 -0.5768  0.0851
  192POPC  H12B22122   2.329   6.520   6.279 -0.9958  1.0847 -2.7297
  192POPC   C1322123   2.466   6.432   5.986 -0.2706  0.6074 -0.1205
  192POPC  H13A22124   2.450   6.325   5.993 -0.4636  0.5611 -1.2099
  192POPC  H13B22125   2.459   6.460   5.882  0.1130  1.3344  0.0490
  192POPC  H13C22126   2.567   6.447   6.021 -0.1959  0.2485 -0.1746
  192POPC   C1422127   2.237   6.506   6.033 -0.2816 -0.7296  0.5439
  192POPC  H14A22128   2.222   6.547   5.934  1.5800 -0.6357  0.2855
  192POPC  H14B22129   2.196   6.405   6.029  0.4137 -1.0166  0.6496
  192POPC  H14C22130   2.174   6.569   6.094 -0.1977 -0.5545  0.4457
  192POPC   C1522131   2.434   6.643   6.062 -0.2601 -0.1535  0.1100
  192POPC  H15A22132   2.382   6.723   6.113 -0.8124 -1.9544  2.4162
  192POPC  H15B22133   2.437   6.671   5.957 -0.6881 -1.8291 -0.3630
  192POPC  H15C22134   2.537   6.639   6.095 -0.2429  3.1360  0.6381
  192POPC   C1122135   2.523   6.416   6.275  0.1145 -0.5089 -0.6912
  192POPC  H11A22136   2.567   6.321   6.238  0.6588 -1.0288  1.2144
  192POPC  H11B22137   2.505   6.410   6.385 -1.1125 -0.1272 -0.8724
  192POPC     P22138   2.758   6.513   6.190 -0.0430 -0.0700 -0.2065
  192POPC   O1322139   2.814   6.648   6.172 -0.1066 -0.2584  0.3876
  192POPC   O1422140   2.745   6.424   6.075 -0.4048 -0.8218 -0.4085
  192POPC   O1222141   2.613   6.526   6.264 -0.1296 -0.2152 -0.1267
  192POPC   O1122142   2.843   6.442   6.306  0.1459 -0.1761 -0.1504
  192POPC    C122143   2.971   6.373   6.276  0.2849 -0.7608 -0.0964
  192POPC    HA22144   3.037   6.391   6.364  0.5165  2.9493 -0.9600
  192POPC    HB22145   3.014   6.418   6.185  0.0045 -0.8789 -0.2884
  192POPC    C222146   2.954   6.224   6.249 -0.3208 -0.8842 -0.4766
  192POPC    HS22147   2.891   6.216   6.157  0.9507  1.6329 -1.6103
  192POPC   O2122148   2.895   6.171   6.373  0.0742  0.5341  0.0525
  192POPC   C2122149   2.789   6.096   6.354 -0.6668  0.7617  0.2046
  192POPC   O2222150   2.746   6.081   6.244  0.3988 -0.0474 -0.1315
  192POPC   C2222151   2.747   6.038   6.493  0.2871 -0.5151  0.3299
  192POPC   H2R22152   2.740   5.928   6.482 -0.3684 -0.3501 -1.0554
  192POPC   H2S22153   2.648   6.086   6.505  1.5175  2.3940 -0.7307
  192POPC    C322154   3.080   6.152   6.221 -0.5745 -0.0064 -0.3576
  192POPC    HX22155   3.125   6.196   6.130 -2.5374  0.6531 -1.0481
  192POPC    HY22156   3.058   6.043   6.211  1.4373 -0.7349  2.4731
  192POPC   O3122157   3.163   6.183   6.330  0.3367  0.0711  0.4298
  192POPC   C3122158   3.191   6.092   6.417 -0.2576 -0.4818 -0.5075
  192POPC   O3222159   3.142   5.980   6.426 -0.0614 -0.3904  0.4476
  192POPC   C3222160   3.283   6.147   6.523 -0.3865  0.5391  0.0498
  192POPC   H2X22161   3.319   6.243   6.480 -1.2180  0.3301 -1.1236
  192POPC   H2Y22162   3.364   6.071   6.534 -0.9216  0.1438  1.2622
  192POPC   C2322163   2.848   6.068   6.600 -0.2530 -0.1777  0.2216
  192POPC   H3R22164   2.873   6.175   6.614  1.1781 -0.4478 -0.2184
  192POPC   H3S22165   2.944   6.014   6.587 -0.0188  0.3752 -0.3600
  192POPC   C2422166   2.802   6.019   6.740 -0.9430  0.3389 -0.0058
  192POPC   H4R22167   2.783   5.910   6.733 -0.3395  0.2662 -0.5913
  192POPC   H4S22168   2.709   6.076   6.764 -2.4525 -1.6733 -0.9352
  192POPC   C2522169   2.917   6.021   6.845 -0.3333  0.3268  0.7193
  192POPC   H5R22170   2.955   6.125   6.847  1.9062 -0.4876  1.9291
  192POPC   H5S22171   3.002   5.962   6.804 -1.1821 -0.6146  0.2893
  192POPC   C2622172   2.883   5.946   6.980  0.0395  0.4263 -0.1267
  192POPC   H6R22173   2.874   5.836   6.971  0.8080  0.1346  2.2937
  192POPC   H6S22174   2.786   5.994   7.003 -0.1255  0.7819 -1.5258
  192POPC   C2722175   2.989   5.969   7.088  0.9290  0.1941  0.9728
  192POPC   H7R22176   2.981   6.077   7.112  0.6113  0.3734  0.0873
  192POPC   H7S22177   3.092   5.958   7.048  1.0454 -2.4317  1.9124
  192POPC   C2822178   2.959   5.890   7.216 -0.3382 -0.4866 -0.5654
  192POPC   H8R22179   3.049   5.910   7.277 -0.0262 -2.4118 -0.3634
  192POPC   H8S22180   2.971   5.784   7.183  0.0418 -0.8265  0.6319
  192POPC   C2922181   2.842   5.912   7.307 -0.5174 -0.4718 -0.7196
  192POPC   H9122182   2.769   5.987   7.274 -1.1602 -0.0514  1.6029
  192POPC  C21022183   2.826   5.859   7.425  0.2001 -0.0953 -0.2098
  192POPC  H10122184   2.734   5.891   7.476  0.5306  1.0745 -0.3120
  192POPC  C21122185   2.914   5.768   7.501  0.7389 -0.6496 -0.5463
  192POPC  H11R22186   3.017   5.784   7.462  0.0269  0.9062 -1.8451
  192POPC  H11S22187   2.877   5.669   7.467 -0.3210 -0.8691  1.1962
  192POPC  C21222188   2.903   5.798   7.660  0.0488  0.4557  0.9460
  192POPC  H12R22189   2.801   5.769   7.693 -0.9336  1.5501 -1.0374
  192POPC  H12S22190   2.929   5.904   7.685  0.5435  1.0141 -1.8124
  192POPC  C21322191   3.001   5.712   7.741 -0.7003  0.1275  0.6234
  192POPC  H13R22192   3.109   5.732   7.721 -0.2495 -1.1977  1.6490
  192POPC  H13S22193   2.987   5.610   7.698 -0.9444  0.0182  0.9682
  192POPC  C21422194   2.982   5.708   7.894 -0.1118 -0.3246 -0.4353
  192POPC  H14R22195   3.039   5.623   7.935  2.1614  2.6533  2.9067
  192POPC  H14S22196   2.876   5.681   7.916 -0.3514  1.2774  0.4514
  192POPC  C21522197   3.004   5.832   7.973  0.2906 -0.5146  0.5340
  192POPC  H15R22198   2.944   5.918   7.936  0.6690 -1.1176 -1.5323
  192POPC  H15S22199   3.111   5.855   7.949  0.6760 -0.1201  2.5008
  192POPC  C21622200   2.978   5.823   8.128 -0.3456  0.1402  0.4198
  192POPC  H16R22201   3.028   5.733   8.169 -0.9630 -1.1536 -1.6429
  192POPC  H16S22202   2.869   5.802   8.126 -0.4386  0.6908 -0.3316
  192POPC  C21722203   3.010   5.955   8.202 -0.0279  0.4802  0.9947
  192POPC  H17R22204   2.994   6.042   8.134  0.0494 -0.0766  0.2522
  192POPC  H17S22205   3.119   5.944   8.224  0.1069  1.2268  0.7169
  192POPC  C21822206   2.922   5.966   8.323  0.0933 -0.3069 -0.5497
  192POPC  H18R22207   2.948   5.881   8.389  1.0289  0.5512  0.1950
  192POPC  H18S22208   2.811   5.967   8.316  0.1575  3.2656 -2.0276
  192POPC  H18T22209   2.956   6.059   8.373  0.6160 -1.0443  0.4672
  192POPC   C3322210   3.212   6.172   6.658 -0.4764 -0.5268  0.7124
  192POPC   H3X22211   3.158   6.079   6.685  0.1168 -0.8823  0.6858
  192POPC   H3Y22212   3.142   6.258   6.646  0.3778 -0.2872 -3.3227
  192POPC   C3422213   3.304   6.202   6.770 -1.3288  0.2702  0.8277
  192POPC   H4X22214   3.245   6.237   6.857  0.7982  2.3889  1.4969
  192POPC   H4Y22215   3.368   6.287   6.737 -0.1840 -2.1263 -3.6396
  192POPC   C3522216   3.407   6.088   6.818  0.3800 -0.8220  0.4967
  192POPC   H5X22217   3.483   6.090   6.737 -0.2235  1.6638 -0.0432
  192POPC   H5Y22218   3.344   5.997   6.809 -1.2121  0.3785 -0.8610
  192POPC   C3622219   3.461   6.124   6.951  0.1898 -0.3036 -0.3242
  192POPC   H6X22220   3.478   6.234   6.952 -0.8721 -0.1203 -1.3626
  192POPC   H6Y22221   3.561   6.077   6.959  0.3681  0.0799 -0.2801
  192POPC   C3722222   3.373   6.086   7.069 -0.5704  0.0179 -0.4608
  192POPC   H7X22223   3.325   5.987   7.057  0.0516 -0.1275 -1.8189
  192POPC   H7Y22224   3.299   6.167   7.085 -2.0582 -1.6950  1.6243
  192POPC   C3822225   3.448   6.092   7.203  0.1944 -0.6250 -0.0640
  192POPC   H8X22226   3.511   6.183   7.188 -0.3296 -0.3552 -0.6168
  192POPC   H8Y22227   3.508   5.999   7.204  0.1372 -0.6670 -0.4923
  192POPC   C3922228   3.339   6.102   7.314  0.0466 -0.2336 -0.5508
  192POPC   H9X22229   3.271   6.015   7.307 -2.0302  1.3305 -0.2060
  192POPC   H9Y22230   3.285   6.196   7.290 -1.9740 -0.8556  1.5270
  192POPC  C31022231   3.398   6.111   7.458  0.2507 -0.0843  0.2659
  192POPC  H10X22232   3.454   6.204   7.481 -0.4100  1.0866 -2.6517
  192POPC  H10Y22233   3.466   6.028   7.487 -0.1062  0.0323  1.4484
  192POPC  C31122234   3.292   6.098   7.572 -0.3754 -0.0240  0.1441
  192POPC  H11X22235   3.291   5.987   7.585  1.0841 -0.1245 -0.4580
  192POPC  H11Y22236   3.191   6.127   7.534 -0.7026 -1.9230 -0.4937
  192POPC  C31222237   3.341   6.165   7.696  0.2538  0.0822 -0.1531
  192POPC  H12X22238   3.342   6.276   7.691  1.8581  0.2564  2.8180
  192POPC  H12Y22239   3.442   6.130   7.727 -1.6328 -1.6198  4.5675
  192POPC  C31322240   3.252   6.131   7.820  0.5889 -0.3439 -0.4534
  192POPC  H13X22241   3.221   6.025   7.830  2.4851 -0.8901 -0.3069
  192POPC  H13Y22242   3.159   6.191   7.810 -0.4923 -2.2066 -2.0537
  192POPC  C31422243   3.329   6.184   7.942 -0.3881  0.0464 -0.2311
  192POPC  H14X22244   3.323   6.293   7.963 -0.5286 -0.0272  0.1153
  192POPC  H14Y22245   3.439   6.169   7.946 -0.5896 -1.1899  0.9100
  192POPC  C31522246   3.287   6.104   8.068 -0.6337 -0.1835 -0.1561
  192POPC  H15X22247   3.295   5.995   8.051 -0.8413 -0.1751 -0.3113
  192POPC  H15Y22248   3.182   6.129   8.094 -0.8596 -1.8243  0.5605
  192POPC  C31622249   3.375   6.131   8.190  0.5264 -0.0806  0.3038
  192POPC  H16X22250   3.338   6.084   8.284 -2.7186  2.0093  0.1694
  192POPC  H16Y22251   3.405   6.233   8.220 -1.9427  0.1855  2.0658
  192POPC  H16Z22252   3.475   6.092   8.164 -0.3060 -0.2575 -2.8597
  193SOD    SOD22253   5.848   5.360   3.984 -0.6175  0.0251  0.3801
  194SOD    SOD22254   4.476   6.309   3.047  0.1299  0.2904 -0.0853
  195SOD    SOD22255   6.196   1.974  12.547 -0.2578 -0.1670 -0.3533
  196SOD    SOD22256   3.283   1.454  11.879 -0.1457 -0.0669  0.6103
  197SOD    SOD22257   3.258   6.008   2.309 -0.2430  0.4434  0.5865
  198SOD    SOD22258   2.397   4.952   0.578 -0.4673 -0.5018  0.1997
  199SOD    SOD22259   1.693   6.218  15.605 -0.0451  0.3653 -0.0922
  200SOD    SOD22260   3.804   2.399   5.247 -0.4775 -0.1526 -0.0191
  201SOD    SOD22261   1.113   1.691   1.318  0.2235  0.4218  0.1711
  202SOD    SOD22262   0.304   1.393  15.698 -0.1855  0.3787 -0.4864
  203SOD    SOD22263   5.800   1.316   5.016 -0.0873  0.2591 -0.2267
  204SOD    SOD22264   4.993   3.609   2.540 -0.4451  0.0662 -0.0466
  205SOD    SOD22265   4.585   5.479  15.074 -0.3747 -0.1915  0.6250
  206SOD    SOD22266   3.320   4.908  14.645  0.0751 -0.3040 -0.5261
  207SOD    SOD22267   6.944   5.047   2.978  0.2123 -0.1139  0.1858
  208SOD    SOD22268   3.881   0.412  11.703  0.3359  0.6203 -0.0378
  209SOD    SOD22269   3.641   4.135   1.058 -0.1221 -0.3430 -0.5057
  210SOD    SOD22270   4.070   4.771  12.607 -0.3376 -0.0549 -0.0155
  211SOD    SOD22271   7.008   3.145  10.656 -0.3040 -0.0604  0.0852
  212SOD    SOD22272   6.291   2.012   4.630  0.1093 -0.2741 -0.1105
  213SOD    SOD22273   1.048   5.721   5.108 -0.0604  0.1290 -0.2774
  214SOD    SOD22274   5.546   5.571  10.775  0.2030  0.2630  0.5951
  215SOD    SOD22275   6.779   5.809   0.358 -0.6704  0.5691 -0.4041
  216SOD    SOD22276   5.052   6.077  14.342  0.6449 -0.1894  0.6420
  217SOD    SOD22277   2.003   7.219  11.044 -0.1093  0.0017 -0.3693
  218SOD    SOD22278   0.631   1.484  15.509 -0.1852 -0.5418 -0.3055
  219SOD    SOD22279   3.674   4.817  13.248 -0.0019 -0.1593  0.2009
  220SOD    SOD22280   6.415   3.278   5.527 -0.4512 -0.1115 -0.5623
  221SOD    SOD22281   2.030   6.488   2.637  0.1872  0.0878  0.5021
  222SOD    SOD22282   6.781   1.033  11.036 -0.1025 -0.2211  0.0142
  223SOD    SOD22283   0.164   1.988  12.266 -0.2145  0.7030  0.3055
  224SOD    SOD22284   6.708   5.829  13.662  0.3101  0.0675 -0.1842
  225SOD    SOD22285   5.588   4.751  12.944 -0.1009  0.3719  0.1739
  226SOD    SOD22286   4.040   0.972  14.788 -0.1753  0.3226 -0.4346
  227SOD    SOD22287   0.389   0.055  10.589 -0.1323  0.0652  0.3690
  228SOD    SOD22288   5.392   0.416   0.590 -0.0367 -0.5028  0.6494
  229SOD    SOD22289   1.643   2.418   2.380  0.3547 -0.4380 -0.0273
  230SOD    SOD22290   1.504   1.022  14.629 -0.1588 -0.2717  0.4192
  231SOD    SOD22291   0.220   1.148   5.934  0.1302 -0.0659 -0.5178
  232SOD    SOD22292   0.934   6.794  12.417 -0.0448  0.0053  0.0585
  233SOD    SOD22293   5.469   6.450  14.321  0.1226 -0.4195 -0.3178
  234SOD    SOD22294   5.718   7.193   4.849 -0.1689 -0.1465  0.2500
  235SOD    SOD22295   0.198   5.198   5.657  0.7932 -0.5919 -0.1224
  236SOD    SOD22296   2.209   5.083   3.997 -0.0331 -0.0740  0.1153
  237SOD    SOD22297   6.002   3.488   3.090 -0.6993  0.3837 -0.3192
  238SOD    SOD22298   2.112   6.269  10.556  0.7062  0.1656 -0.2717
  239SOD    SOD22299   6.900   6.925   1.461 -0.2892 -0.1141 -0.8497
  240SOD    SOD22300   2.976   2.655  15.396 -0.1588 -0.1065 -0.1157
  241SOD    SOD22301   0.359   3.026   5.878 -0.1769 -0.0148 -0.2460
  242SOD    SOD22302   2.029   4.634  13.356  0.3084 -0.1005 -0.1583
  243SOD    SOD22303   5.330   0.170  15.355 -0.0038 -0.2796  0.3840
  244SOD    SOD22304   4.121   0.883  14.095 -0.0594  0.3341  0.3465
  245SOD    SOD22305   1.255   2.965   6.037  1.1979 -0.3352 -0.4070
  246SOD    SOD22306   3.219   3.581  11.915  0.4859 -0.8174 -0.1169
  247SOD    SOD22307   5.291   3.293  12.381 -0.2066 -0.8740  0.0087
  248SOD    SOD22308   5.892   5.724   1.555  0.0052  0.1180 -0.5449
  249SOD    SOD22309   0.991   3.552   1.540  0.0423 -0.0593  0.5824
  250SOD    SOD22310   4.582   6.706   0.683  0.3421 -0.0230 -0.1165
  251SOD    SOD22311   5.610   3.111  15.101  0.5625 -0.3723 -0.1838
  252SOD    SOD22312   0.080   0.643   0.928 -0.1456 -0.2629  0.2755
  253SOD    SOD22313   5.838   4.464  15.283 -0.2168  0.0769 -0.4968
  254SOD    SOD22314   2.292   4.158  10.030  0.0007 -0.1144  0.2686
  255SOD    SOD22315   1.867   3.641  15.099 -0.3085 -0.0706 -0.4453
  256SOD    SOD22316   6.810   3.496   3.625  0.3469 -0.4580  0.3793
  257SOD    SOD22317   0.897   4.338   4.736 -0.0384 -0.0078  0.0075
  258SOD    SOD22318   1.474   0.315  14.324 -0.3833 -0.0952 -0.1180
  259SOD    SOD22319   2.480   3.530  11.347 -0.1914  0.0172 -0.1597
  260SOD    SOD22320   5.390   3.873   0.402  0.6947 -0.1804  0.1858
  261SOD    SOD22321   0.989   1.022  10.897 -0.2002  0.2946 -0.3473
  262SOD    SOD22322   4.995   1.437   3.697 -0.3086  0.2529 -0.1273
  263SOD    SOD22323   3.813   3.025   0.268  0.1580 -0.4374  0.4079
  264SOD    SOD22324   1.628   4.747  15.001 -0.2147  0.4262  0.0403
  265SOD    SOD22325   6.552   3.932  10.198  0.3857 -0.2602  0.1786
  266SOD    SOD22326   4.708   3.830  12.502 -0.4183 -0.1589  0.1711
  267SOD    SOD22327   3.494   1.122   2.274  0.3021  0.0745  0.1402
  268SOD    SOD22328   1.662   2.815  11.759 -0.4130 -0.3638  0.1681
  269SOD    SOD22329   6.762   2.399   5.324 -0.1925 -0.3341  0.0707
  270CLA    CLA22330   3.555   0.914   1.287 -0.0972  0.2896 -0.0635
  271CLA    CLA22331   0.381   3.700   0.145 -0.2243 -0.2604  0.0379
  272CLA    CLA22332   0.191   0.808  15.738 -0.0247 -0.3964  0.1627
  273CLA    CLA22333   5.320   3.470  15.855  0.1512  0.0261  0.4535
  274CLA    CLA22334   3.044   6.695   3.060 -0.0685 -0.4259  0.0440
  275CLA    CLA22335   6.383   3.518   3.487 -0.0287  0.2376 -0.2951
  276CLA    CLA22336   2.386   0.238   4.875 -0.2480  0.0700  0.2922
  277CLA    CLA22337   1.601   3.135   4.050 -0.4098  0.1053 -0.2356
  278CLA    CLA22338   4.894   1.740  13.520 -0.3603  0.0707  0.4071
  279CLA    CLA22339   7.041   5.027  14.849  0.4137  0.0620  0.2682
  280CLA    CLA22340   6.885   1.699  13.944 -0.2283  0.0472 -0.4165
  281CLA    CLA22341   0.782   6.999  12.396 -0.4332 -0.1084  0.5107
  282CLA    CLA22342   4.422   6.746  11.737  0.2465 -0.3634  0.2195
  283CLA    CLA22343   6.244   0.639  11.675 -0.1233  0.1168  0.1601
  284CLA    CLA22344   4.132   7.209  12.925 -0.0013  0.3191  0.1818
  285CLA    CLA22345   2.268   1.615  12.562 -0.0007  0.5427 -0.0533
  286CLA    CLA22346   1.964   1.035   3.980 -0.1901 -0.0282 -0.2322
  287CLA    CLA22347   5.498   6.137  14.857  0.0059  0.2711 -0.0036
  288CLA    CLA22348   1.285   2.743  15.367  0.4295  0.0640 -0.4391
  289CLA    CLA22349   5.691   4.921   4.589  0.0923 -0.3545 -0.1617
  290CLA    CLA22350   6.200   5.981   0.774 -0.1741 -0.0557 -0.4098
  291CLA    CLA22351   6.813   6.557   5.319  0.2266 -0.3519 -0.1905
  292CLA    CLA22352   1.192   3.131   1.960 -0.2521 -0.0210  0.5551
  293CLA    CLA22353   0.385   0.432   1.333  0.3049  0.1715  0.0662
  294CLA    CLA22354   2.880   2.642  15.149 -0.7482 -0.0082 -0.2854
  295CLA    CLA22355   3.223   1.286   4.321  0.0126  0.0323 -0.0725
  296CLA    CLA22356   4.908   0.810  15.444  0.2666 -0.1357 -0.1059
  297CLA    CLA22357   1.894   5.389  12.619 -0.1624 -0.0119 -0.0818
  298CLA    CLA22358   5.325   2.327  12.952  0.2468  0.3390  0.0036
  299CLA    CLA22359   3.238   4.222  14.970  0.3669  0.0303  0.5729
  300CLA    CLA22360   4.600   4.761  13.249 -0.2884 -0.2624 -0.2442
  301CLA    CLA22361   0.506   2.687  11.824 -0.2127  0.2123 -0.2926
  302CLA    CLA22362   6.237   3.386   2.618  0.0416 -0.5011 -0.2718
  303CLA    CLA22363   2.042   3.363   1.284 -0.3529 -0.2289 -0.4651
  304CLA    CLA22364   3.221   2.336   5.602 -0.2097 -0.0803 -0.1159
  305CLA    CLA22365   1.568   2.226   5.165  0.0890 -0.4363  0.4819
  306CLA    CLA22366   5.747   1.766   3.870 -0.3465  0.0887 -0.5586
  307CLA    CLA22367   6.288   1.012   0.771  0.0486  0.1742  0.1991
  308CLA    CLA22368   5.151   5.159   1.775 -0.1395 -0.0975 -0.2355
  309CLA    CLA22369   6.899   0.842  12.996  0.4965 -0.0412 -0.1101
  310CLA    CLA22370   2.240   3.156  12.076  0.1270  0.0014  0.5521
  311CLA    CLA22371   6.741   7.025   2.605 -0.0397 -0.2315  0.2723
  312CLA    CLA22372   3.782   1.374  14.981 -0.0579  0.2545 -0.0918
  313CLA    CLA22373   6.375   0.203  13.605 -0.0164  0.0610 -0.2614
  314CLA    CLA22374   0.140   4.470   3.147 -0.1840  0.1749  0.0030
  315CLA    CLA22375   2.429   5.978   1.775  0.0441 -0.7016 -0.0949
  316CLA    CLA22376   5.629   3.118  13.834 -0.0848  0.1216  0.0927
  317CLA    CLA22377   2.515   7.238   0.081  0.3691  0.0564 -0.2901
  318CLA    CLA22378   0.316   7.176  15.769  0.2121  0.1769  0.0581
  319CLA    CLA22379   3.164   0.439  10.441  0.1501 -0.5756 -0.2922
  320CLA    CLA22380   3.066   5.820   0.087  0.3917  0.2717  0.0867
  321CLA    CLA22381   3.473   4.591  14.274  0.2939 -0.6894  0.0887
  322CLA    CLA22382   2.434   0.859  10.246  0.0451  0.4558  0.1372
  323TIP3   OH222383   3.678   3.581  10.060 -0.5095 -0.5702  0.2224
  323TIP3    H122384   3.751   3.554  10.003 -0.9202  0.6103 -0.8851
  323TIP3    H222385   3.600   3.550  10.015 -0.7825 -0.5114  0.6578
  324TIP3   OH222386   3.728   3.885  10.590  0.0467  0.2762  0.1119
  324TIP3    H122387   3.818   3.916  10.579  0.7613 -1.1615  1.7139
  324TIP3    H222388   3.679   3.963  10.616  0.6008  1.2891 -1.7838
  325TIP3   OH222389   3.293   2.104  12.092  0.1735  0.2918  0.2272
  325TIP3    H122390   3.226   2.040  12.114  1.2088 -0.6576  0.6648
  325TIP3    H222391   3.255   2.155  12.020 -0.7123 -0.7100 -0.0225
  326TIP3   OH222392   6.440   5.265   9.973 -0.2247  0.2919  0.5871
  326TIP3    H122393   6.516   5.219   9.936 -0.8678  1.5286 -2.4042
  326TIP3    H222394   6.425   5.222  10.057  2.1812 -1.6953  0.0681
  327TIP3   OH222395   5.435   3.420  11.074  0.0238 -0.2464  0.1063
  327TIP3    H122396   5.531   3.412  11.076 -0.1326 -2.1297  1.1172
  327TIP3    H222397   5.412   3.414  10.981  0.7535 -1.4843  0.0048
  328TIP3   OH222398   4.638   4.557  10.519  0.4723  0.1691 -0.2313
  328TIP3    H122399   4.616   4.556  10.426 -2.0023  0.1853  0.2980
  328TIP3    H222400   4.564   4.603  10.560  1.4270 -0.0199  1.7603
  329TIP3   OH222401   4.574   2.006  11.062  0.4208 -0.0081 -0.1252
  329TIP3    H122402   4.612   2.075  11.117  1.2231 -1.0885  0.7024
  329TIP3    H222403   4.632   2.001  10.986  0.0993  0.5406 -0.4072
  330TIP3   OH222404   3.885   3.279  10.877  0.4303 -0.4762 -0.7642
  330TIP3    H122405   3.835   3.264  10.797 -0.7677 -1.5927  0.1868
  330TIP3    H222406   3.819   3.290  10.946  1.4520 -2.6950  0.6280
  331TIP3   OH222407   2.958   3.282  10.812  0.5610 -0.4828 -0.1378
  331TIP3    H122408   2.988   3.315  10.727  1.3025 -0.1878  0.2376
  331TIP3    H222409   2.927   3.194  10.794 -2.7108  0.8468 -1.4362
  332TIP3   OH222410   3.485   5.385  10.440 -0.3261 -0.0485  0.3750
  332TIP3    H122411   3.410   5.360  10.386 -0.0951  0.8629 -0.3747
  332TIP3    H222412   3.494   5.479  10.426  1.0669 -0.1891  0.3387
  333TIP3   OH222413   3.225   5.301  10.803 -0.1519  0.4501 -0.7872
  333TIP3    H122414   3.184   5.385  10.784  1.3544  1.4087  0.0974
  333TIP3    H222415   3.169   5.261  10.869 -0.0544  1.4326 -0.1007
  334TIP3   OH222416   3.787   6.772  10.325 -0.4930 -0.2237 -0.1778
  334TIP3    H122417   3.761   6.692  10.371  0.8113 -1.0156 -0.7847
  334TIP3    H222418   3.704   6.809  10.293 -1.3803  0.1643  2.4630
  335TIP3   OH222419   3.899   0.850   9.946  0.2297  0.7028 -0.4581
  335TIP3    H122420   3.961   0.898   9.891 -0.3714  0.1390 -1.6430
  335TIP3    H222421   3.822   0.906   9.950  0.1020  0.5305 -0.5499
  336TIP3   OH222422   6.261   3.988   9.644  0.2398 -0.1373 -0.2449
  336TIP3    H122423   6.198   4.058   9.662 -1.8654 -1.2432 -2.9336
  336TIP3    H222424   6.219   3.909   9.677  0.7231 -0.7180 -1.0027
  337TIP3   OH222425   1.112   6.007  10.868  0.3048 -0.1629  0.2018
  337TIP3    H122426   1.033   6.050  10.835  0.4923 -1.1123 -1.5096
  337TIP3    H222427   1.177   6.077  10.871 -0.6441  0.6788  1.8544
  338TIP3   OH222428   2.691   0.956  10.745  0.3639  0.3786  0.2683
  338TIP3    H122429   2.726   0.967  10.834  1.4913  1.3480 -0.2830
  338TIP3    H222430   2.723   1.032  10.697 -2.2671  1.1568 -0.3465
  339TIP3   OH222431   4.814   7.287  10.172 -0.4298 -0.8151  0.0613
  339TIP3    H122432   4.896   7.321  10.208  0.2108 -1.6068 -0.6406
  339TIP3    H222433   4.790   7.350  10.104  0.7997 -1.7962 -1.2915
  340TIP3   OH222434   0.216   3.700  10.378 -0.0285 -0.0149 -0.3190
  340TIP3    H122435   0.188   3.657  10.459  0.3444 -0.0172 -0.1913
  340TIP3    H222436   0.198   3.635  10.309 -0.5415  0.0687 -0.2626
  341TIP3   OH222437   0.694   3.016   9.896 -0.1322 -0.3077  0.0524
  341TIP3    H122438   0.734   3.096   9.861  0.4080  0.6177  2.6602
  341TIP3    H222439   0.603   3.039   9.910  0.0935 -0.0313  1.1046
  342TIP3   OH222440   0.231   2.905   9.933 -0.0017 -0.6501 -0.0635
  342TIP3    H122441   0.312   2.957   9.937  0.4463 -1.3408 -0.2280
  342TIP3    H222442   0.163   2.969   9.912  0.2887  0.1715  1.3627
  343TIP3   OH222443   5.618   5.361  10.749 -0.5663  0.1878 -0.0367
  343TIP3    H122444   5.711   5.343  10.760 -0.6813 -0.4374 -0.0526
  343TIP3    H222445   5.588   5.297  10.684 -1.0985  0.0784  0.3073
  344TIP3   OH222446   5.564   3.095  10.251 -1.3147  0.0281  0.5615
  344TIP3    H122447   5.579   3.086  10.157 -0.0560 -0.4362  0.7909
  344TIP3    H222448   5.549   3.006  10.281  0.2855 -0.0693  1.1098
  345TIP3   OH222449   6.153   5.025  10.922  0.7781 -0.4053  0.1554
  345TIP3    H122450   6.241   4.992  10.944  1.7829  0.4548 -2.3693
  345TIP3    H222451   6.102   4.945  10.904  2.2491 -0.7910 -2.5454
  346TIP3   OH222452   3.954   1.772  10.742 -0.4620 -0.8310  0.1801
  346TIP3    H122453   4.039   1.810  10.764  0.0239 -1.2240 -0.9446
  346TIP3    H222454   3.898   1.847  10.724  0.1717 -0.5883 -0.8793
  347TIP3   OH222455   3.934   0.894  10.217 -0.0982  0.6489  0.0791
  347TIP3    H122456   3.955   0.988  10.223  0.5645  0.4669  0.5835
  347TIP3    H222457   3.968   0.868  10.131 -0.8256  1.0090 -0.3210
  348TIP3   OH222458   3.766   1.562  10.449  0.7192  0.9074 -0.1708
  348TIP3    H122459   3.728   1.485  10.491  0.6709  0.9389 -0.1565
  348TIP3    H222460   3.769   1.541  10.356  0.3887  1.0261 -0.2086
  349TIP3   OH222461   6.938   1.455  11.493 -0.3020  0.2062 -0.8749
  349TIP3    H122462   6.973   1.518  11.430  1.6505 -1.7862 -1.8906
  349TIP3    H222463   6.959   1.369  11.454 -1.0573 -1.0590  1.4367
  350TIP3   OH222464   5.197   6.336  11.520 -0.8548  0.1730  0.5110
  350TIP3    H122465   5.122   6.396  11.516  0.8542  2.4043  0.6245
  350TIP3    H222466   5.211   6.321  11.613  1.4262  3.2422  0.7489
  351TIP3   OH222467   5.190   0.310  10.004  0.7801  0.3931 -0.5714
  351TIP3    H122468   5.227   0.236  10.052  0.9407 -0.4119 -1.9217
  351TIP3    H222469   5.145   0.270   9.930  0.0029  1.5893 -0.7574
  352TIP3   OH222470   2.259   6.438  10.493 -0.7408 -0.5023 -0.5547
  352TIP3    H122471   2.298   6.507  10.547 -1.3045 -2.7708  2.8696
  352TIP3    H222472   2.332   6.407  10.439  0.3156  0.5002  0.2668
  353TIP3   OH222473   0.335   6.910  10.736 -0.3511  0.0830  0.7865
  353TIP3    H122474   0.256   6.946  10.776  0.0376 -0.4119  2.0206
  353TIP3    H222475   0.304   6.835  10.685 -0.6821 -0.0764  1.2246
  354TIP3   OH222476   0.875   3.256  10.081  0.3115  0.0834  0.1644
  354TIP3    H122477   0.967   3.278  10.067 -0.1482  1.9919  0.0319
  354TIP3    H222478   0.836   3.255   9.994  0.3999 -1.6658  0.1334
  355TIP3   OH222479   1.408   4.851  10.175 -0.1976  0.1057 -0.3864
  355TIP3    H122480   1.345   4.916  10.144 -0.9280 -0.7214 -0.6456
  355TIP3    H222481   1.485   4.863  10.119  0.3559  1.9367  0.7232
  356TIP3   OH222482   6.467   4.494  10.197  0.2510 -0.0944  0.1984
  356TIP3    H122483   6.409   4.558  10.154  1.0570  0.2605 -0.3659
  356TIP3    H222484   6.471   4.421  10.135 -1.9238 -1.4059  1.5271
  357TIP3   OH222485   4.939   6.622   9.834 -0.3457  0.1627 -0.7778
  357TIP3    H122486   5.032   6.632   9.817 -0.0809 -0.4983  0.2641
  357TIP3    H222487   4.897   6.680   9.771  0.7462  0.1310 -1.5410
  358TIP3   OH222488   5.135   6.371   9.683 -0.2646  0.3994  0.0562
  358TIP3    H122489   5.068   6.308   9.659  0.1576  0.1983 -0.6009
  358TIP3    H222490   5.194   6.374   9.608  0.2613  0.8425  0.4787
  359TIP3   OH222491   3.558   0.975  12.351 -0.0961 -0.0584 -0.1524
  359TIP3    H122492   3.518   0.898  12.310 -0.5428  0.3879 -0.5779
  359TIP3    H222493   3.483   1.026  12.383  0.2460 -0.2871  1.0232
  360TIP3   OH222494   4.766   6.596  10.093 -0.6848  0.0744  0.6965
  360TIP3    H122495   4.835   6.555  10.145  1.2485  2.8651  0.4716
  360TIP3    H222496   4.792   6.581  10.003 -0.4327  1.0046  0.6096
  361TIP3   OH222497   0.778   0.179  10.523  0.7342 -0.0449 -0.1537
  361TIP3    H122498   0.780   0.156  10.430 -2.8384  0.2053 -0.3732
  361TIP3    H222499   0.771   0.095  10.568  1.6857 -0.1191 -0.1289
  362TIP3   OH222500   3.201   6.944  10.365 -0.0447  0.1866  0.8492
  362TIP3    H122501   3.119   6.920  10.410  1.4037 -2.9719  2.0037
  362TIP3    H222502   3.213   6.875  10.300  1.0237  1.3677 -0.2106
  363TIP3   OH222503   6.817   4.028   9.825  0.0351 -0.0177  0.2089
  363TIP3    H122504   6.748   4.028   9.759  1.9207 -1.4061 -1.8545
  363TIP3    H222505   6.815   3.940   9.862 -0.2870  0.4071  1.2058
  364TIP3   OH222506   1.488   2.833  11.070  0.1694  0.1473 -0.3877
  364TIP3    H122507   1.475   2.831  11.165  2.5617  0.2341 -0.0349
  364TIP3    H222508   1.484   2.926  11.048 -0.2256  0.1388 -0.3642
  365TIP3   OH222509   0.875   3.720  10.714  0.5949  0.5332 -0.4652
  365TIP3    H122510   0.823   3.789  10.755 -0.1551 -0.4336  0.2291
  365TIP3    H222511   0.944   3.766  10.667 -0.3426  1.7904 -0.6247
  366TIP3   OH222512   3.411   7.043  12.000  0.5161 -0.5896  0.5947
  366TIP3    H122513   3.472   6.970  11.992  0.6326 -0.5639  1.1967
  366TIP3    H222514   3.461   7.119  11.971  1.1409 -0.3929  2.1454
  367TIP3   OH222515   4.607   7.252  10.612  0.2465  0.3918 -0.0712
  367TIP3    H122516   4.677   7.303  10.653  2.8000 -1.7727 -1.5392
  367TIP3    H222517   4.579   7.190  10.679 -1.1748  2.0705  0.9233
  368TIP3   OH222518   2.101   6.568  11.125  0.0089 -0.0151  0.2966
  368TIP3    H122519   2.179   6.550  11.178 -1.4515 -2.2877  1.7584
  368TIP3    H222520   2.124   6.536  11.038  0.6444 -0.8858  0.7717
  369TIP3   OH222521   4.402   6.220  10.187 -0.2204  0.1994  0.8886
  369TIP3    H122522   4.477   6.191  10.135 -0.3016  1.2903  0.1553
  369TIP3    H222523   4.440   6.280  10.251 -0.5513  1.2730  0.0889
  370TIP3   OH222524   6.825   4.798  10.631 -0.8286 -0.3397 -0.2642
  370TIP3    H122525   6.746   4.774  10.583 -1.7615 -2.4610  2.2346
  370TIP3    H222526   6.794   4.817  10.719  1.5028 -1.7005  0.8895
  371TIP3   OH222527   1.043   0.499  10.291  0.0293  0.1704 -0.3341
  371TIP3    H122528   0.986   0.450  10.232 -2.8849  1.3240  1.4112
  371TIP3    H222529   1.027   0.591  10.269 -0.3165  0.5673  1.4871
  372TIP3   OH222530   6.339   1.331  11.601  0.0422  0.0607 -0.1025
  372TIP3    H122531   6.417   1.275  11.604  0.2301  0.2681 -0.9654
  372TIP3    H222532   6.266   1.269  11.600  0.2803 -0.2141 -2.2182
  373TIP3   OH222533   0.202   0.821  10.522  0.1241  0.4104  0.2200
  373TIP3    H122534   0.204   0.892  10.586  1.3489  0.7633 -0.1807
  373TIP3    H222535   0.294   0.792  10.516 -0.2202 -0.6135 -0.2656
  374TIP3   OH222536   6.970   0.687  10.734 -0.1543  0.3536  0.1360
  374TIP3    H122537   6.954   0.765  10.787  0.2683  1.2261 -0.9902
  374TIP3    H222538   7.017   0.628  10.792  0.0327  1.1693  0.8317
  375TIP3   OH222539   6.151   0.514   9.653  0.1238  0.3313 -0.1052
  375TIP3    H122540   6.122   0.480   9.568 -1.5255 -0.0450  0.5822
  375TIP3    H222541   6.195   0.441   9.695  0.2912  0.2971 -0.3425
  376TIP3   OH222542   2.175   6.061   4.947  0.4831 -0.9499 -0.4374
  376TIP3    H122543   2.242   6.116   4.909 -0.7658 -0.1892 -1.5740
  376TIP3    H222544   2.176   6.083   5.040  1.4605 -0.5859 -0.5326
  377TIP3   OH222545   2.157   5.130   5.565 -0.0924 -0.2235 -0.0496
  377TIP3    H122546   2.241   5.085   5.550 -0.3632 -0.5913 -0.4812
  377TIP3    H222547   2.096   5.061   5.587 -0.6954 -0.1699 -1.5001
  378TIP3   OH222548   1.001   4.123   4.701  0.1015  0.0919  0.0940
  378TIP3    H122549   0.999   4.103   4.607 -0.8734  0.2480  0.0761
  378TIP3    H222550   1.023   4.040   4.742 -1.5107 -0.4668 -0.1467
  379TIP3   OH222551   2.663   3.255   6.400  0.5315  0.0460 -0.2790
  379TIP3    H122552   2.640   3.315   6.329  0.3927  0.3181 -0.0051
  379TIP3    H222553   2.736   3.298   6.444 -0.0551  0.3798  0.3808
  380TIP3   OH222554   2.303   5.648   4.523  0.2982  0.1102 -0.6069
  380TIP3    H122555   2.224   5.615   4.566 -0.2542  0.1708 -1.5812
  380TIP3    H222556   2.279   5.657   4.431  1.0295  1.3854 -0.6862
  381TIP3   OH222557   2.476   4.619   5.482  0.3621  0.4613 -0.7476
  381TIP3    H122558   2.566   4.589   5.496 -0.1351 -0.2204  1.1746
  381TIP3    H222559   2.458   4.601   5.390  1.2714 -1.9351 -0.4832
  382TIP3   OH222560   5.966   4.555   2.616  0.1195  0.1391  0.3149
  382TIP3    H122561   6.006   4.608   2.547 -0.8793 -1.2181 -1.3356
  382TIP3    H222562   5.874   4.580   2.615 -0.3889 -1.6922 -0.5812
  383TIP3   OH222563   4.998   3.636   5.931  0.1871 -0.1350 -0.6199
  383TIP3    H122564   5.070   3.688   5.966  0.8664 -2.1607  1.0354
  383TIP3    H222565   4.919   3.687   5.951  0.9925  1.3040 -1.0146
  384TIP3   OH222566   4.531   3.690   5.334  0.1204 -0.3159  0.0685
  384TIP3    H122567   4.456   3.748   5.321 -1.0582 -1.9787 -0.7957
  384TIP3    H222568   4.520   3.656   5.423  0.8460  0.8339  0.5974
  385TIP3   OH222569   4.148   3.077   4.971 -0.3222  0.5785 -0.2680
  385TIP3    H122570   4.149   3.165   5.009  0.1229  0.0256  1.0245
  385TIP3    H222571   4.121   3.020   5.044  1.2289 -0.5853 -0.5950
  386TIP3   OH222572   1.599   5.075   6.552  0.5881  0.2840  0.2679
  386TIP3    H122573   1.644   5.012   6.607  1.5621  1.5077  0.9138
  386TIP3    H222574   1.652   5.080   6.472  0.5060  0.2672  0.2125
  387TIP3   OH222575   2.238   2.526   5.916 -0.0317 -0.0092  0.1661
  387TIP3    H122576   2.211   2.617   5.901 -1.5834 -0.6054 -0.8206
  387TIP3    H222577   2.155   2.480   5.932  0.8133 -1.1071  1.4361
  388TIP3   OH222578   3.292   5.731   5.398  0.5601 -0.1870  0.3553
  388TIP3    H122579   3.247   5.647   5.406 -1.0089  0.6573  0.6721
  388TIP3    H222580   3.339   5.726   5.315 -0.9957 -0.6929 -0.4977
  389TIP3   OH222581   2.032   4.881   5.653  0.4702  0.3868 -0.4763
  389TIP3    H122582   2.016   4.874   5.559  1.1903 -0.0308 -0.5661
  389TIP3    H222583   2.100   4.817   5.671  1.8737  1.9662 -0.0394
  390TIP3   OH222584   3.042   5.195   6.141  0.7054  0.0071 -0.3003
  390TIP3    H122585   3.060   5.244   6.061 -1.8295  0.9524 -0.3361
  390TIP3    H222586   3.048   5.261   6.211 -2.7855  0.4947 -0.3565
  391TIP3   OH222587   3.060   5.423   6.300  0.5003 -0.5268 -0.1664
  391TIP3    H122588   3.009   5.494   6.338  0.9344 -0.5646  0.4946
  391TIP3    H222589   3.150   5.455   6.298  1.0513 -1.8522  2.1389
  392TIP3   OH222590   1.882   5.297   6.151 -0.1341  0.1623  0.2706
  392TIP3    H122591   1.836   5.347   6.219 -0.1971  1.0340 -0.3982
  392TIP3    H222592   1.859   5.342   6.069  1.6041  0.3774 -0.1167
  393TIP3   OH222593   2.064   5.474   6.315  0.7426 -0.2391  0.4167
  393TIP3    H122594   1.983   5.516   6.288  0.8762  0.4939  1.1374
  393TIP3    H222595   2.037   5.394   6.359  0.4052  0.1087  0.8366
  394TIP3   OH222596   6.954   3.316   3.654  0.9665  0.3636  0.0161
  394TIP3    H122597   6.931   3.238   3.704  0.6269  0.9317  0.7611
  394TIP3    H222598   7.048   3.308   3.638  1.1247  0.2943  0.9585
  395TIP3   OH222599   5.717   4.219   4.382 -0.3755  0.3091 -0.2765
  395TIP3    H122600   5.780   4.249   4.317 -0.4025  2.1810  0.5377
  395TIP3    H222601   5.647   4.178   4.330  1.5108 -1.9232 -1.1841
  396TIP3   OH222602   4.440   2.274   6.010  0.0623 -0.1709 -0.6921
  396TIP3    H122603   4.371   2.326   5.970 -0.8109 -2.6073 -2.4913
  396TIP3    H222604   4.394   2.211   6.066  1.1188  1.2769  1.8928
  397TIP3   OH222605   5.676   1.894   4.693 -0.0590 -0.4728 -0.5201
  397TIP3    H122606   5.619   1.971   4.694 -0.0801 -0.4937  0.8038
  397TIP3    H222607   5.626   1.828   4.646 -0.6296 -0.1077 -0.4348
  398TIP3   OH222608   6.904   3.035   5.311 -0.2272  1.0518 -0.2169
  398TIP3    H122609   6.978   2.974   5.303 -1.3741 -0.1906 -1.7332
  398TIP3    H222610   6.887   3.040   5.405  0.5610 -0.1551 -0.0006
  399TIP3   OH222611   5.422   1.312   3.261  1.0020  0.0685  0.4504
  399TIP3    H122612   5.329   1.322   3.282  1.0164  0.2190  0.4453
  399TIP3    H222613   5.431   1.220   3.236  0.9374 -0.0540  0.8703
  400TIP3   OH222614   6.351   2.156   4.809 -0.5971  0.9297  0.0731
  400TIP3    H122615   6.439   2.140   4.843  0.0983 -1.8163 -2.7537
  400TIP3    H222616   6.350   2.250   4.790  1.6595  1.0513  0.4032
  401TIP3   OH222617   0.254   5.382   5.530  0.6265 -0.2045 -0.1846
  401TIP3    H122618   0.316   5.415   5.465  0.2412  0.2575 -0.3242
  401TIP3    H222619   0.199   5.457   5.551  0.9980 -0.2497  0.9832
  402TIP3   OH222620   6.676   3.255   6.601  0.5154  0.1660 -0.1813
  402TIP3    H122621   6.652   3.296   6.518  0.8584  0.3894 -0.1715
  402TIP3    H222622   6.656   3.163   6.589 -1.4745  0.5094  0.2336
  403TIP3   OH222623   5.260   4.473   6.061  0.4099 -0.4346  0.0324
  403TIP3    H122624   5.285   4.423   5.984  0.2085  1.5157 -1.3184
  403TIP3    H222625   5.339   4.473   6.116  0.3821 -2.2870  0.1091
  404TIP3   OH222626   0.839   3.267   6.586 -0.6310 -0.0317 -0.1063
  404TIP3    H122627   0.773   3.296   6.649 -0.7989 -0.2445 -0.1838
  404TIP3    H222628   0.915   3.323   6.603 -0.8884  0.3260 -0.1270
  405TIP3   OH222629   0.286   4.613   5.408  0.6539 -0.1703 -0.1581
  405TIP3    H122630   0.281   4.588   5.501 -0.4689  0.6217  0.0108
  405TIP3    H222631   0.236   4.695   5.403  0.6287 -0.2596 -1.4791
  406TIP3   OH222632   3.243   6.610   5.953  0.2226 -0.2884 -0.8969
  406TIP3    H122633   3.168   6.553   5.971 -0.2575  1.0128  1.5020
  406TIP3    H222634   3.204   6.691   5.919  0.6191 -0.0237 -0.7232
  407TIP3   OH222635   1.504   0.553   5.542  0.0914  0.3043 -0.0962
  407TIP3    H122636   1.413   0.564   5.516  0.2019  3.3353  0.6556
  407TIP3    H222637   1.504   0.560   5.637  1.1157  0.4197 -0.0948
  408TIP3   OH222638   1.762   5.899   5.912  0.6772 -0.0787 -0.4148
  408TIP3    H122639   1.762   5.804   5.925  0.2547 -0.0130  0.1111
  408TIP3    H222640   1.779   5.934   6.000  1.0545  0.3230 -0.6529
  409TIP3   OH222641   2.659   5.790   5.926  0.5970  0.5270  0.6956
  409TIP3    H122642   2.569   5.821   5.917  0.4009 -0.4662 -0.9401
  409TIP3    H222643   2.652   5.712   5.982  0.3155 -0.0517 -0.1337
  410TIP3   OH222644   3.681   0.868   5.781  0.4177 -0.1254 -0.5956
  410TIP3    H122645   3.650   0.778   5.788  2.4279 -0.7279  1.3850
  410TIP3    H222646   3.611   0.914   5.735 -2.0530 -2.0335  1.0607
  411TIP3   OH222647   6.101   0.603   5.994 -0.0819  0.0468 -0.0289
  411TIP3    H122648   6.017   0.610   6.039 -0.5171 -3.9241 -0.0551
  411TIP3    H222649   6.159   0.564   6.058  1.3507  1.2748 -0.5463
  412TIP3   OH222650   5.329   0.703   6.154 -0.6470  0.7184  0.0305
  412TIP3    H122651   5.287   0.777   6.112 -0.5926  0.8598  0.2260
  412TIP3    H222652   5.349   0.733   6.243  0.7156  0.9721 -0.3466
  413TIP3   OH222653   2.755   0.335   4.732  0.4708  0.3151 -0.2337
  413TIP3    H122654   2.810   0.258   4.744  1.2434  0.4654 -2.5707
  413TIP3    H222655   2.676   0.303   4.688  0.3755  0.6987 -0.3525
  414TIP3   OH222656   1.859   0.036   6.221 -0.1088 -0.0157 -0.1735
  414TIP3    H122657   1.769   0.015   6.200 -0.0508 -0.6668  0.2123
  414TIP3    H222658   1.854   0.085   6.304 -0.1906  0.9125 -0.7209
  415TIP3   OH222659   0.917   7.149   5.152 -0.1753  0.4596  0.8093
  415TIP3    H122660   0.956   7.080   5.098 -0.5938  1.8836 -1.4138
  415TIP3    H222661   0.991   7.200   5.184  0.1474 -1.1368  2.6671
  416TIP3   OH222662   0.852   1.086   5.664 -0.3789  0.2728  0.3826
  416TIP3    H122663   0.849   1.109   5.757  0.1341 -1.0515  0.7439
  416TIP3    H222664   0.779   1.026   5.652  1.7139 -2.4790  0.7910
  417TIP3   OH222665   6.887   1.666   6.101  0.3362 -0.3681  0.0017
  417TIP3    H122666   6.917   1.703   6.019  0.1232  1.1439  0.5917
  417TIP3    H222667   6.961   1.614   6.133  0.5825 -0.5765 -0.9062
  418TIP3   OH222668   1.025   1.177   5.068  0.6187 -0.8122  0.1696
  418TIP3    H122669   0.956   1.221   5.017  0.5976 -1.6401 -0.5243
  418TIP3    H222670   1.070   1.122   5.004  2.0270 -0.1675  0.5895
  419TIP3   OH222671   0.511   1.504   6.026  0.1833  0.5003  0.1319
  419TIP3    H122672   0.502   1.595   5.996 -0.4952  0.3187 -0.2540
  419TIP3    H222673   0.478   1.505   6.116  0.5357  0.7126  0.2580
  420TIP3   OH222674   0.546   7.144   6.247 -0.0631 -0.6615 -0.0304
  420TIP3    H122675   0.602   7.067   6.257  0.3934 -0.6931 -2.4893
  420TIP3    H222676   0.481   7.117   6.182  1.6151  1.8017 -2.8490
  421TIP3   OH222677   1.632   2.155  11.104  0.0835  0.4775  0.5269
  421TIP3    H122678   1.661   2.241  11.132 -1.0983  0.5763  1.4928
  421TIP3    H222679   1.538   2.165  11.089  0.2596 -0.1878 -1.1406
  422TIP3   OH222680   1.168   1.144  10.777 -0.7503  0.1914  0.2183
  422TIP3    H122681   1.259   1.155  10.802 -1.1870  1.5418  1.2727
  422TIP3    H222682   1.155   1.205  10.705 -0.3300 -1.3896 -1.2160
  423TIP3   OH222683   6.104   7.299  12.592  0.1737  0.3503 -0.5761
  423TIP3    H122684   6.016   7.337  12.593 -0.2865 -0.6877 -0.9906
  423TIP3    H222685   6.097   7.223  12.649  1.1616  1.0236  0.4737
  424TIP3   OH222686   0.163   0.100  10.556  0.1225  0.4522  0.2303
  424TIP3    H122687   0.120   0.165  10.500 -0.2520 -1.1766 -1.4342
  424TIP3    H222688   0.094   0.069  10.615 -0.3354 -0.1700 -0.6091
  425TIP3   OH222689   0.643   0.553  12.495 -0.2046 -0.2454 -0.2310
  425TIP3    H122690   0.570   0.547  12.557  1.6857  0.2406  2.1351
  425TIP3    H222691   0.681   0.465  12.493  1.0705  0.2445  1.0526
  426TIP3   OH222692   1.324   0.583  10.829 -0.0504  0.3251  0.0149
  426TIP3    H122693   1.390   0.555  10.766 -0.8383 -0.9065 -0.2951
  426TIP3    H222694   1.322   0.678  10.822  0.3176  0.2373 -1.3836
  427TIP3   OH222695   0.480   1.298  10.328  0.1561  0.3345 -0.6004
  427TIP3    H122696   0.391   1.265  10.318  0.3435 -0.3516 -0.0285
  427TIP3    H222697   0.495   1.298  10.422  1.2192 -0.8070 -0.7553
  428TIP3   OH222698   1.886   6.555  11.794 -0.1904 -0.2712 -0.9795
  428TIP3    H122699   1.899   6.464  11.766 -1.0901 -1.4780  2.2791
  428TIP3    H222700   1.938   6.563  11.874 -0.5262  1.9277 -0.9622
  429TIP3   OH222701   1.097   2.374  10.458 -0.5691  0.4248 -0.3396
  429TIP3    H122702   1.058   2.412  10.537  0.3756 -0.1516  0.4143
  429TIP3    H222703   1.037   2.303  10.434 -2.1831  2.1592 -1.5857
  430TIP3   OH222704   2.455   0.390  11.583 -0.6417 -0.6435  0.3023
  430TIP3    H122705   2.368   0.375  11.546  0.4033 -0.9332 -2.1580
  430TIP3    H222706   2.489   0.465  11.533 -0.4499  1.1496  3.0140
  431TIP3   OH222707   1.422   0.938  10.317  0.7191  0.1130 -0.5186
  431TIP3    H122708   1.474   1.008  10.357  2.2137 -0.9529 -0.5299
  431TIP3    H222709   1.475   0.909  10.242  0.0148 -0.8587 -0.6506
  432TIP3   OH222710   0.201   7.013  10.080  0.3919  0.8436  0.3329
  432TIP3    H122711   0.266   6.944  10.069  0.3396  0.6672  1.1497
  432TIP3    H222712   0.124   6.982  10.033  0.4930  0.5165  0.3851
  433TIP3   OH222713   1.164   0.101  10.159 -0.2610 -0.2974  0.5346
  433TIP3    H122714   1.077   0.114  10.122  0.0427  0.7413  0.1467
  433TIP3    H222715   1.207   0.042  10.097 -0.1950  0.3933 -0.0955
  434TIP3   OH222716   1.175   6.801  10.638 -0.3003 -0.2610 -0.0408
  434TIP3    H122717   1.256   6.764  10.672 -1.1555 -0.2834  2.0256
  434TIP3    H222718   1.193   6.895  10.630 -0.0898 -0.2611  0.4430
  435TIP3   OH222719   2.313   0.207  11.960 -0.5238 -0.3714  0.4348
  435TIP3    H122720   2.378   0.178  12.025  0.6261  0.1778 -0.4388
  435TIP3    H222721   2.339   0.162  11.879 -0.9920  0.1606 -0.0146
  436TIP3   OH222722   7.294   7.165  11.228 -0.0282  0.4164 -0.7715
  436TIP3    H122723   7.215   7.195  11.182  0.4849 -0.2591 -2.1329
  436TIP3    H222724   7.298   7.071  11.211  2.5706  0.8797 -3.1261
  437TIP3   OH222725   0.961   0.819  10.808  0.2833  0.5265 -0.1502
  437TIP3    H122726   1.003   0.732  10.807  0.5569  0.6040  2.1670
  437TIP3    H222727   0.878   0.805  10.763  0.6103 -0.7855 -0.3940
  438TIP3   OH222728   2.267   1.061  10.099 -0.5978  0.2283  0.3342
  438TIP3    H122729   2.184   1.038  10.140  0.3678 -0.7269  1.7674
  438TIP3    H222730   2.329   0.995  10.129  0.6779  0.8668 -0.7992
  439TIP3   OH222731   6.181   0.531  12.409  0.7192 -0.0214  0.1648
  439TIP3    H122732   6.145   0.530  12.498 -0.9194 -1.6185 -0.4896
  439TIP3    H222733   6.177   0.439  12.381 -0.3840  0.7286 -2.1984
  440TIP3   OH222734   3.120   1.548  12.932  0.3811 -0.0716  0.8248
  440TIP3    H122735   3.067   1.490  12.878  1.6360  0.7627 -1.3356
  440TIP3    H222736   3.093   1.636  12.907  0.5426  0.3224  2.0050
  441TIP3   OH222737   7.098   1.109  10.546  0.4117 -0.1481 -0.7495
  441TIP3    H122738   7.116   1.122  10.453  0.2816  0.4371 -0.6920
  441TIP3    H222739   7.023   1.166  10.565  1.1159  0.5537 -0.0452
  442TIP3   OH222740   7.067   0.550  10.968  0.4319 -0.0462  0.2771
  442TIP3    H122741   7.009   0.568  11.042 -0.6095  0.6717 -0.6913
  442TIP3    H222742   7.058   0.456  10.953 -1.0370  0.1723 -0.3071
  443TIP3   OH222743   6.874   1.157  10.799  0.5247 -0.6434 -0.3158
  443TIP3    H122744   6.858   1.071  10.762  0.2931 -1.3774  1.4269
  443TIP3    H222745   6.831   1.218  10.739  0.0511 -1.8098 -1.1590
  444TIP3   OH222746   1.011   7.031  10.353 -0.2414 -0.2646  0.4206
  444TIP3    H122747   0.986   7.049  10.444 -0.4840 -0.3570  0.3719
  444TIP3    H222748   1.106   7.038  10.353 -0.2375 -0.3039  0.6923
  445TIP3   OH222749   0.904   2.576  12.400  0.7332 -0.2015  0.0603
  445TIP3    H122750   0.883   2.520  12.475 -0.4866 -0.7756 -0.6857
  445TIP3    H222751   0.824   2.576  12.347  0.9704  1.6372 -0.3494
  446TIP3   OH222752   0.249   5.790  12.664  0.4993  0.1992  0.0737
  446TIP3    H122753   0.257   5.802  12.758  2.7484  0.8897 -0.1821
  446TIP3    H222754   0.279   5.701  12.648  0.8454  0.3428 -0.0772
  447TIP3   OH222755   1.518   1.030  11.580 -0.5481 -0.2156 -0.2277
  447TIP3    H122756   1.506   1.023  11.674  0.0146  0.7083 -0.0869
  447TIP3    H222757   1.478   1.114  11.556 -1.3370 -0.7768 -0.9240
  448TIP3   OH222758   6.971   3.284  12.712  0.0958  0.0603  0.6697
  448TIP3    H122759   6.959   3.208  12.769 -0.6409  0.1657  0.6671
  448TIP3    H222760   6.994   3.356  12.771  1.3171 -0.2821  0.6155
  449TIP3   OH222761   2.886   0.347  10.374  0.3790 -0.1354 -0.7127
  449TIP3    H122762   2.976   0.378  10.389 -0.2872  2.0889 -1.2140
  449TIP3    H222763   2.893   0.292  10.295  1.9776 -3.2335  1.4938
  450TIP3   OH222764   1.421   0.600  10.330  0.2193  0.2075  0.0535
  450TIP3    H122765   1.389   0.658  10.260 -0.4781 -1.8087 -1.3394
  450TIP3    H222766   1.347   0.589  10.389  0.2398  0.4458  0.1235
  451TIP3   OH222767   1.590   1.064  11.026  0.0163  0.1173 -0.1340
  451TIP3    H122768   1.625   0.980  11.056  1.3344  0.4865 -0.6086
  451TIP3    H222769   1.655   1.128  11.054 -0.1285  0.7846 -1.3211
  452TIP3   OH222770   2.180   0.437  12.326 -0.1446  0.2130 -0.6150
  452TIP3    H122771   2.161   0.440  12.232 -0.4218  0.4640 -0.5503
  452TIP3    H222772   2.247   0.369  12.334 -0.7225 -0.4018 -0.8971
  453TIP3   OH222773   1.497   0.494  12.675 -0.2356  0.1159  0.1381
  453TIP3    H122774   1.564   0.463  12.614 -0.0059  1.3114 -0.2367
  453TIP3    H222775   1.544   0.505  12.759  0.1018  1.1335 -0.1702
  454TIP3   OH222776   6.865   1.063  10.111 -0.1046  0.1243  0.5533
  454TIP3    H122777   6.801   1.070  10.041  0.0158 -0.7573  0.3417
  454TIP3    H222778   6.865   0.970  10.135  2.0764 -0.1604 -0.4123
  455TIP3   OH222779   1.119   0.506  12.261  0.3578  0.8286  0.1049
  455TIP3    H122780   1.177   0.567  12.216  1.5202  0.3216  0.8845
  455TIP3    H222781   1.043   0.498  12.204  0.6125  2.2783 -0.4467
  456TIP3   OH222782   1.515   1.137  10.512 -0.1477  0.1873  0.5238
  456TIP3    H122783   1.422   1.160  10.518 -0.4329 -1.1578  1.3351
  456TIP3    H222784   1.524   1.060  10.568  1.9087  1.6355  2.2637
  457TIP3   OH222785   1.823   6.602  10.397 -0.0446 -1.1905  0.1076
  457TIP3    H122786   1.745   6.658  10.401  0.1329 -0.8854 -0.6797
  457TIP3    H222787   1.789   6.513  10.408 -0.3130 -0.9310  1.4966
  458TIP3   OH222788   0.709   7.262  12.078 -0.0182  0.2796  0.5304
  458TIP3    H122789   0.782   7.269  12.139 -0.0383 -0.7547  0.6711
  458TIP3    H222790   0.643   7.212  12.125 -0.6819  0.9117  0.2728
  459TIP3   OH222791   0.522   6.103  10.545  0.5725  0.0310  0.2304
  459TIP3    H122792   0.589   6.149  10.496  1.7462 -0.4695  1.3177
  459TIP3    H222793   0.556   6.014  10.555  0.2633  0.0682  1.7506
  460TIP3   OH222794   1.206   7.189  12.229 -0.2415  0.4508  0.4334
  460TIP3    H122795   1.269   7.121  12.252  1.6246  2.1334  0.4897
  460TIP3    H222796   1.130   7.172  12.285  0.7227 -0.7755  1.4009
  461TIP3   OH222797   6.616   1.261  11.749 -0.3490  0.3340 -0.7473
  461TIP3    H122798   6.664   1.339  11.775 -1.9353  0.7271  1.1037
  461TIP3    H222799   6.683   1.201  11.716  1.4073  0.8574  1.7309
  462TIP3   OH222800   0.920   1.611  10.207 -0.9798  0.6177 -0.2164
  462TIP3    H122801   0.853   1.678  10.215 -2.2914 -0.4868 -1.7306
  462TIP3    H222802   0.915   1.582  10.116  0.5934 -0.4607  0.0241
  463TIP3   OH222803   1.475   0.996  11.852 -0.4081  0.1440 -0.3893
  463TIP3    H122804   1.483   1.058  11.923 -0.3090  0.1944 -0.4443
  463TIP3    H222805   1.386   0.963  11.858  0.2421 -1.4300  1.0673
  464TIP3   OH222806   0.634   7.224  10.165 -0.0414  0.2457  0.4799
  464TIP3    H122807   0.610   7.303  10.116 -0.2353  0.6937  1.2976
  464TIP3    H222808   0.554   7.171  10.164  0.8815 -1.2174 -2.4733
  465TIP3   OH222809   0.580   7.237  10.999 -0.4404 -0.5001  0.5698
  465TIP3    H122810   0.575   7.321  10.953 -0.8678 -0.6720  0.2978
  465TIP3    H222811   0.616   7.259  11.086 -0.5539 -0.0394  0.5007
  466TIP3   OH222812   2.359   2.677  10.807  0.4049  0.3499 -0.3491
  466TIP3    H122813   2.373   2.771  10.802  0.5720  0.2530 -2.0469
  466TIP3    H222814   2.283   2.660  10.752 -1.0285 -0.2466  1.7468
  467TIP3   OH222815   6.315   0.159  11.250 -0.3276 -0.5510 -0.0500
  467TIP3    H122816   6.410   0.155  11.254 -0.2928 -1.5952 -1.4719
  467TIP3    H222817   6.296   0.230  11.189 -0.4289 -0.8493 -0.3734
  468TIP3   OH222818   1.679   1.359  11.300 -0.0037  0.5776  0.2246
  468TIP3    H122819   1.731   1.375  11.379 -0.7107 -0.2867  0.8717
  468TIP3    H222820   1.600   1.411  11.313 -1.6100 -2.1317  1.6240
  469TIP3   OH222821   2.199   1.138  10.531  0.3253 -0.1094  0.2455
  469TIP3    H122822   2.251   1.082  10.473  1.2222  1.8817 -0.9150
  469TIP3    H222823   2.152   1.197  10.472 -1.0577  0.0102  1.4281
  470TIP3   OH222824   2.725   2.138  10.306 -0.6531  0.1654  0.1518
  470TIP3    H122825   2.791   2.090  10.256 -0.2749 -0.0538  0.8459
  470TIP3    H222826   2.647   2.138  10.250 -1.1020 -2.4432  0.6767
  471TIP3   OH222827   0.566   6.138  11.832 -0.2389 -0.7854  0.2541
  471TIP3    H122828   0.537   6.224  11.862 -0.5969 -0.6998 -0.3209
  471TIP3    H222829   0.583   6.088  11.912  0.3683 -0.0491  0.5881
  472TIP3   OH222830   6.632   1.889  12.244 -0.2307  0.0533 -0.1553
  472TIP3    H122831   6.711   1.847  12.210 -0.3248 -1.1060  1.0071
  472TIP3    H222832   6.569   1.817  12.252 -0.8399  0.6675  0.5370
  473TIP3   OH222833   6.720   6.946  10.946 -0.6884  0.2401 -0.0845
  473TIP3    H122834   6.660   6.881  10.908 -1.2353 -0.0949  1.3242
  473TIP3    H222835   6.769   6.897  11.013 -1.0070  1.2403  0.8952
  474TIP3   OH222836   1.052   2.127  10.690 -0.4119  0.8088  0.1004
  474TIP3    H122837   1.058   2.080  10.607 -2.9992 -1.0605  0.8956
  474TIP3    H222838   1.134   2.108  10.735 -0.0912 -0.2884 -0.9406
  475TIP3   OH222839   2.313   1.194  12.109  0.3502 -0.1957  0.3411
  475TIP3    H122840   2.237   1.227  12.062  0.0822 -2.0427 -0.5729
  475TIP3    H222841   2.379   1.180  12.042  0.7405 -0.6727  0.8124
  476TIP3   OH222842   0.239   1.365  12.518  0.2905  0.0711 -0.4270
  476TIP3    H122843   0.297   1.413  12.459  0.2887  1.4838  0.6877
  476TIP3    H222844   0.198   1.299  12.463  0.1251  1.4875 -2.0493
  477TIP3   OH222845   0.361   6.322  10.376 -0.1001  0.4786 -0.1678
  477TIP3    H122846   0.405   6.378  10.313  2.1027  0.7631  1.5753
  477TIP3    H222847   0.375   6.233  10.343  1.1290  0.6227 -0.0464
  478TIP3   OH222848   1.336   0.633   9.590 -0.3073  0.0045 -0.2582
  478TIP3    H122849   1.274   0.698   9.557 -0.1098 -0.0019 -0.6487
  478TIP3    H222850   1.421   0.662   9.557 -0.2501 -0.5740 -0.6288
  479TIP3   OH222851   1.163   0.465  13.853 -0.0347 -0.3423 -0.6320
  479TIP3    H122852   1.209   0.545  13.826  0.6583 -0.6012 -0.2350
  479TIP3    H222853   1.079   0.470  13.808  0.9431 -0.5939 -2.5773
  480TIP3   OH222854   1.014   6.938  11.880  0.0980 -0.2586  0.8127
  480TIP3    H122855   1.089   6.998  11.873  1.0907 -1.5389  0.3511
  480TIP3    H222856   0.970   6.964  11.961  1.5742 -0.0861  1.5667
  481TIP3   OH222857   0.720   1.824  10.154 -0.9160  0.3540  0.2424
  481TIP3    H122858   0.770   1.898  10.188 -1.3714  0.3311  0.9876
  481TIP3    H222859   0.629   1.855  10.154 -0.9142  0.3825 -1.0569
  482TIP3   OH222860   5.798   6.573  11.534  0.1020 -0.1752 -0.1942
  482TIP3    H122861   5.830   6.581  11.624 -2.2174  0.4183  0.6019
  482TIP3    H222862   5.778   6.480  11.524  2.6985 -0.6960 -0.9533
  483TIP3   OH222863   0.313   7.057  11.705 -0.2595  0.3217  0.4257
  483TIP3    H122864   0.261   6.982  11.735  0.4508  0.4322  1.9590
  483TIP3    H222865   0.384   7.064  11.768  0.4169  1.5061 -0.4420
  484TIP3   OH222866   6.718   5.695  10.875 -0.4299  0.0647  0.1881
  484TIP3    H122867   6.765   5.736  10.802  1.1303 -2.9569 -0.5699
  484TIP3    H222868   6.630   5.733  10.872 -0.0985  0.6804 -2.6826
  485TIP3   OH222869   7.170   0.557  10.568 -0.1672  0.3100  0.4011
  485TIP3    H122870   7.099   0.500  10.540  0.0661 -0.0801  0.6005
  485TIP3    H222871   7.137   0.599  10.647 -0.5880  0.9416 -0.1095
  486TIP3   OH222872   1.279   2.149  10.519  0.4665  0.3277  0.1105
  486TIP3    H122873   1.270   2.244  10.520 -2.8400  0.0504  0.9047
  486TIP3    H222874   1.282   2.126  10.426 -0.9628  1.0299 -0.1126
  487TIP3   OH222875   1.912   6.306  11.422  0.1167  0.2445 -0.0429
  487TIP3    H122876   1.819   6.326  11.416 -0.1835 -0.7504  1.1257
  487TIP3    H222877   1.932   6.257  11.342 -0.0053  1.7575 -1.0321
  488TIP3   OH222878   0.019   1.318  10.086 -0.0641  0.0213  0.4384
  488TIP3    H122879   0.106   1.277  10.091 -0.0721 -0.0858 -0.3210
  488TIP3    H222880   0.021   1.368  10.005 -1.3148 -1.3367 -0.4518
  489TIP3   OH222881   2.344   3.020  14.481  0.2177 -0.3532 -0.0454
  489TIP3    H122882   2.290   3.000  14.557  1.2517 -1.0734  0.5078
  489TIP3    H222883   2.368   2.935  14.446  1.1074 -0.0332 -0.2139
  490TIP3   OH222884   0.785   1.063  11.022  0.6053 -0.3953  0.0834
  490TIP3    H122885   0.711   1.022  11.065 -0.6210  1.2333 -0.4180
  490TIP3    H222886   0.809   1.137  11.078  0.9506 -0.0782 -0.4691
  491TIP3   OH222887   6.599   0.417  10.173  0.2940 -0.2519 -0.0730
  491TIP3    H122888   6.668   0.366  10.216  0.6536  0.2620 -0.0294
  491TIP3    H222889   6.623   0.416  10.081  0.0239 -0.5895 -0.1363
  492TIP3   OH222890   2.014   5.536  12.363 -0.3711  0.6795  0.2326
  492TIP3    H122891   1.962   5.477  12.418 -1.4316 -0.7407 -2.2461
  492TIP3    H222892   1.975   5.529  12.276  1.5472  2.5721 -0.8223
  493TIP3   OH222893   3.770   7.284  10.582  0.0311 -0.8616 -0.3002
  493TIP3    H122894   3.776   7.299  10.676  2.5522 -0.4546 -0.4759
  493TIP3    H222895   3.727   7.362  10.548 -1.5822 -1.3528  0.5935
  494TIP3   OH222896   0.267   1.790  12.231 -0.6848  0.5643 -0.2620
  494TIP3    H122897   0.305   1.750  12.153 -2.0850  2.2537 -1.8636
  494TIP3    H222898   0.213   1.721  12.270 -1.3502  0.2080 -1.7714
  495TIP3   OH222899   1.453   2.914  11.694  0.2482 -0.3722  0.3009
  495TIP3    H122900   1.498   2.927  11.610  1.3992  1.3979  1.1505
  495TIP3    H222901   1.377   2.971  11.689  0.0938 -0.5773  0.3054
  496TIP3   OH222902   1.737   6.118  10.530  0.1953 -0.1376  0.3760
  496TIP3    H122903   1.730   6.202  10.484  1.9204 -0.1870 -0.0016
  496TIP3    H222904   1.687   6.057  10.476 -1.9988  0.8378  1.2169
  497TIP3   OH222905   0.902   0.203  11.443 -0.3656  0.0182  0.2515
  497TIP3    H122906   0.925   0.249  11.524 -0.8142 -0.3311  0.5799
  497TIP3    H222907   0.808   0.216  11.434  0.0368  2.0787 -1.4733
  498TIP3   OH222908   1.174   0.815   9.449 -0.4449  0.1194 -0.3071
  498TIP3    H122909   1.190   0.795   9.357 -0.9520 -0.3373 -0.2981
  498TIP3    H222910   1.087   0.855   9.451 -0.3959  0.2191 -0.0369
  499TIP3   OH222911   0.584   0.733  10.870 -0.0441  0.0513 -0.1589
  499TIP3    H122912   0.652   0.704  10.932 -0.0612  1.7395  0.6927
  499TIP3    H222913   0.530   0.793  10.921  0.2998  1.9539 -1.9666
  500TIP3   OH222914   6.601   1.506  10.453 -0.0421 -0.1982  0.5331
  500TIP3    H122915   6.607   1.420  10.495  0.1664 -0.4480  0.0044
  500TIP3    H222916   6.592   1.486  10.360 -2.9945  0.3089  0.6658
  501TIP3   OH222917   1.728   0.676  12.027  0.6197  0.0391  0.4609
  501TIP3    H122918   1.664   0.628  12.079  0.2279  0.6400  0.5339
  501TIP3    H222919   1.722   0.637  11.940  0.7607 -0.4766  0.6797
  502TIP3   OH222920   0.679   0.485  11.583 -0.1205  0.3114  0.4063
  502TIP3    H122921   0.716   0.474  11.671  0.0846  0.2518  0.3124
  502TIP3    H222922   0.661   0.579  11.576 -0.1849  0.3094  0.5298
  503TIP3   OH222923   1.360   0.214  10.356 -0.6254  0.1869  0.9486
  503TIP3    H122924   1.277   0.214  10.308 -0.9767  2.0908  1.5001
  503TIP3    H222925   1.335   0.209  10.448 -0.1528  0.9228  1.1239
  504TIP3   OH222926   3.917   0.687  13.510  0.1123 -0.1890 -0.3745
  504TIP3    H122927   3.884   0.714  13.424 -0.2469  2.3003  0.5173
  504TIP3    H222928   3.961   0.765  13.544  1.7399 -1.6693  0.9870
  505TIP3   OH222929   0.239   2.021  10.341 -0.6525  0.2576 -0.2157
  505TIP3    H122930   0.230   1.977  10.257  1.4903  0.8558 -0.7917
  505TIP3    H222931   0.246   2.114  10.319 -0.7696  0.4861  0.6684
  506TIP3   OH222932   1.494   0.324  11.704  0.1757  0.2826  0.3422
  506TIP3    H122933   1.405   0.301  11.679  0.7417  1.0519 -2.5965
  506TIP3    H222934   1.549   0.285  11.636  1.9216  1.3969  1.0732
  507TIP3   OH222935   2.177   1.518  12.869  0.2842  0.1373  0.0485
  507TIP3    H122936   2.215   1.527  12.782 -1.5062  0.0242 -0.7685
  507TIP3    H222937   2.219   1.440  12.905  0.2956 -0.4153 -1.1147
  508TIP3   OH222938   0.318   1.775  11.167  0.9147 -0.0274  0.0312
  508TIP3    H122939   0.352   1.716  11.234  1.6587 -0.9806 -1.1822
  508TIP3    H222940   0.366   1.752  11.087 -0.6268  0.4491 -1.0572
  509TIP3   OH222941   0.328   0.055  10.122  0.5632  1.0292 -0.2757
  509TIP3    H122942   0.259   0.097  10.070  2.1039  2.5786 -1.0923
  509TIP3    H222943   0.406   0.060  10.067  1.5187 -0.0510  0.9484
  510TIP3   OH222944   1.868   2.440  11.702 -0.2929  0.3219 -0.3922
  510TIP3    H122945   1.882   2.376  11.632 -0.1530 -0.6287  0.5101
  510TIP3    H222946   1.937   2.505  11.687  0.8093 -0.7665 -0.1233
  511TIP3   OH222947   0.654   7.255  10.692  0.8346 -0.3949  0.1677
  511TIP3    H122948   0.621   7.190  10.630 -0.0690  1.3392 -1.2024
  511TIP3    H222949   0.746   7.232  10.704  1.4337  0.0820 -2.9814
  512TIP3   OH222950   1.819   1.230   9.847  0.2891  0.1371 -0.8219
  512TIP3    H122951   1.770   1.196   9.772  0.1110 -1.1319 -0.1587
  512TIP3    H222952   1.805   1.325   9.845 -0.2768  0.0307 -1.9904
  513TIP3   OH222953   3.528   1.158  13.239  0.5764 -0.8741  0.1209
  513TIP3    H122954   3.560   1.133  13.152 -0.9065 -0.6451 -0.5004
  513TIP3    H222955   3.437   1.184  13.225  0.4003 -0.5726  1.7028
  514TIP3   OH222956   6.039   4.462  10.874  0.0980  0.2991  0.3748
  514TIP3    H122957   5.971   4.448  10.808  0.5744 -0.4209  0.0216
  514TIP3    H222958   6.115   4.491  10.825  0.4896 -0.3464  0.5933
  515TIP3   OH222959   0.890   0.282  13.871  0.0499 -0.1968  0.3192
  515TIP3    H122960   0.890   0.372  13.836 -0.9077 -0.5187 -0.5420
  515TIP3    H222961   0.809   0.276  13.921 -0.4271 -0.9055 -0.5188
  516TIP3   OH222962   2.140   6.689  10.400  0.5597  1.1986  0.9005
  516TIP3    H122963   2.189   6.672  10.320 -0.3846  1.8737  0.1769
  516TIP3    H222964   2.108   6.603  10.427 -2.7689  1.5090 -1.8266
  517TIP3   OH222965   1.442   6.517  10.326  0.2175  0.1735  0.5887
  517TIP3    H122966   1.479   6.600  10.355  1.1651 -0.1430  0.3212
  517TIP3    H222967   1.430   6.527  10.232  0.4600 -0.0361  0.5339
  518TIP3   OH222968   2.296   7.198  10.586  0.2149 -0.2728 -0.2864
  518TIP3    H122969   2.388   7.217  10.567 -0.1416  0.2154 -1.6055
  518TIP3    H222970   2.278   7.118  10.537  0.3873 -1.3658  1.3703
  519TIP3   OH222971   2.536   0.012  10.461  0.4067  0.1993 -0.0842
  519TIP3    H122972   2.547   0.073  10.388  0.4694 -0.3768 -0.5598
  519TIP3    H222973   2.610   0.029  10.519  0.3211  0.7029 -0.1271
  520TIP3   OH222974   1.142   1.358   9.835 -0.5481 -0.0174 -0.2217
  520TIP3    H122975   1.193   1.286   9.798  0.3357 -1.1705  3.0387
  520TIP3    H222976   1.065   1.315   9.873 -0.9711  0.9894  0.0568
  521TIP3   OH222977   2.576   7.171  11.958 -0.4067  0.0932  0.3499
  521TIP3    H122978   2.658   7.183  12.007 -0.3394  1.9916 -0.2160
  521TIP3    H222979   2.578   7.239  11.891 -1.1415 -1.6138 -1.4636
  522TIP3   OH222980   4.116   0.032  10.185  0.2012 -0.8855 -0.1824
  522TIP3    H122981   4.197   0.079  10.202 -1.2336  1.9546 -0.8142
  522TIP3    H222982   4.052   0.072  10.244 -1.4425 -0.9017 -1.8961
  523TIP3   OH222983   3.038   1.281  10.142  0.6622  0.1554 -0.4877
  523TIP3    H122984   3.065   1.371  10.129  1.6066 -0.0377  0.1353
  523TIP3    H222985   3.017   1.249  10.054 -0.0528  1.0895 -0.6670
  524TIP3   OH222986   1.077   6.603  10.497  0.5565  0.5315 -0.1035
  524TIP3    H122987   1.075   6.639  10.408  2.6103  0.5025 -0.1659
  524TIP3    H222988   1.112   6.673  10.551  0.5040  0.1133  0.4751
  525TIP3   OH222989   0.142   1.368  10.400  0.0525 -0.3721  0.0843
  525TIP3    H122990   0.139   1.348  10.494  1.8974 -1.4327 -0.0554
  525TIP3    H222991   0.165   1.285  10.358  1.2593  0.5419 -1.1218
  526TIP3   OH222992   7.200   2.134  14.263  0.0539  0.1776 -0.1923
  526TIP3    H122993   7.180   2.104  14.351  1.2487 -0.9606 -0.2931
  526TIP3    H222994   7.191   2.056  14.208  0.9947  0.4957 -0.8061
  527TIP3   OH222995   6.737   6.965  12.706 -0.2647  0.1149  0.7209
  527TIP3    H122996   6.646   6.992  12.721  0.0806 -0.3548  3.9093
  527TIP3    H222997   6.745   6.882  12.751  1.0449 -1.2486 -1.9021
  528TIP3   OH222998   1.901   2.639  12.801  0.0356  0.1141  0.5752
  528TIP3    H122999   1.888   2.617  12.893 -0.3131 -1.4263  0.1742
  528TIP3    H223000   1.933   2.558  12.762 -1.1364  0.3659 -0.9282
  529TIP3   OH223001   2.098   1.955  10.926 -0.3912  0.0551 -0.1856
  529TIP3    H123002   2.095   2.010  10.848  0.3941  0.3112 -0.0426
  529TIP3    H223003   2.155   2.002  10.987 -0.5385 -0.4176  0.3252
  530TIP3   OH223004   1.288   1.839  10.572 -0.2999 -0.0524  0.7140
  530TIP3    H123005   1.342   1.773  10.529 -1.5355 -0.4910 -0.2027
  530TIP3    H223006   1.309   1.920  10.527 -0.0482 -0.1322  0.6861
  531TIP3   OH223007   4.936   1.946  11.535 -0.0282 -0.0533  0.6251
  531TIP3    H123008   4.950   2.039  11.519  0.7228 -0.1797  0.5478
  531TIP3    H223009   5.023   1.908  11.537 -0.2705 -0.5774  1.8106
  532TIP3   OH223010   7.132   2.592  13.163 -0.3185 -0.1147  0.5286
  532TIP3    H123011   7.210   2.536  13.174  0.1446  0.5765  0.7606
  532TIP3    H223012   7.084   2.550  13.092 -0.2333 -1.1040  1.0347
  533TIP3   OH223013   5.060   1.980  12.042 -0.5526 -0.0995  0.3789
  533TIP3    H123014   5.093   2.006  12.127 -0.3233  0.2713  0.1776
  533TIP3    H223015   4.970   2.013  12.039  0.2039  1.9522 -0.4398
  534TIP3   OH223016   1.975   1.275  10.086 -0.0739 -0.5248  0.0986
  534TIP3    H123017   2.046   1.282  10.022 -0.1757 -0.1974  0.0216
  534TIP3    H223018   1.899   1.249  10.036 -0.7501  2.1027 -0.3242
  535TIP3   OH223019   6.232   0.895  10.848  0.1287 -0.3282 -0.1621
  535TIP3    H123020   6.150   0.859  10.882 -0.1054  0.7724  0.4487
  535TIP3    H223021   6.291   0.898  10.923  1.0865 -2.0763 -0.8120
  536TIP3   OH223022   3.790   0.529  12.175 -0.0393 -0.7104 -0.5853
  536TIP3    H123023   3.720   0.591  12.155 -0.7136 -1.9731 -2.3463
  536TIP3    H223024   3.799   0.532  12.270  0.8286  2.9841 -0.7479
  537TIP3   OH223025   1.240   6.076  12.263 -0.4045  0.4969  0.1686
  537TIP3    H123026   1.265   6.168  12.250 -2.7340  0.7835 -2.9778
  537TIP3    H223027   1.161   6.080  12.316  0.0215  0.2490  0.8231
  538TIP3   OH223028   0.965   6.250  10.794  0.0117  1.0514 -0.5070
  538TIP3    H123029   0.984   6.217  10.705  2.1892 -0.5620  0.4925
  538TIP3    H223030   1.032   6.316  10.809 -1.3184  2.4438 -0.6219
  539TIP3   OH223031   1.920   0.468  12.800  0.3186  0.6920  0.0694
  539TIP3    H123032   1.844   0.525  12.811 -0.0809  0.1435  0.1259
  539TIP3    H223033   1.989   0.527  12.767 -0.2567  1.0938 -0.4186
  540TIP3   OH223034   2.190   0.506  10.886  0.0241  0.0144 -0.1651
  540TIP3    H123035   2.216   0.558  10.962 -0.9555 -1.1524  0.9908
  540TIP3    H223036   2.145   0.568  10.829 -0.5028  0.5946  0.8664
  541TIP3   OH223037   2.587   6.033  12.455  0.2171 -0.0562 -0.7453
  541TIP3    H123038   2.584   6.050  12.361  0.7012  2.4441 -0.3383
  541TIP3    H223039   2.561   6.116  12.496  0.0516 -1.0879  1.3397
  542TIP3   OH223040   1.192   0.576  10.516  0.3104  0.5224  0.2165
  542TIP3    H123041   1.138   0.607  10.589  1.1722 -0.4494  1.3036
  542TIP3    H223042   1.132   0.565  10.444 -0.7169  0.6858  1.0368
  543TIP3   OH223043   1.589   0.367  10.392  0.1671 -0.6209 -0.3362
  543TIP3    H123044   1.550   0.440  10.344 -0.2202 -1.0517 -0.6777
  543TIP3    H223045   1.527   0.294  10.380  0.6904 -1.0845 -0.2435
  544TIP3   OH223046   3.634   0.401  10.722 -0.3025 -0.3699 -0.2337
  544TIP3    H123047   3.569   0.469  10.742  0.9856  0.7127  0.3421
  544TIP3    H223048   3.694   0.403  10.796  0.5906 -1.1133 -0.9337
  545TIP3   OH223049   6.724   6.950  13.425 -0.0330  0.2464  0.0985
  545TIP3    H123050   6.763   7.033  13.398  0.5240  0.1695  0.6618
  545TIP3    H223051   6.686   6.968  13.511 -0.6991  0.1541 -0.1720
  546TIP3   OH223052   1.401   7.013  10.399  0.4784 -0.3492  0.1036
  546TIP3    H123053   1.339   7.019  10.472 -2.0567 -0.2078 -2.0111
  546TIP3    H223054   1.426   7.104  10.381 -1.1103 -0.1346 -1.0515
  547TIP3   OH223055   6.995   0.870  11.737  0.2826  0.1149  0.2614
  547TIP3    H123056   7.024   0.861  11.827  1.0452 -0.3431 -0.0322
  547TIP3    H223057   6.993   0.781  11.702  0.1458  0.3030 -0.2253
  548TIP3   OH223058   2.526   6.781  11.783 -0.1799 -0.1098  0.0932
  548TIP3    H123059   2.592   6.838  11.743 -1.1578  0.5082 -0.6585
  548TIP3    H223060   2.446   6.798  11.733 -0.5635 -1.8955  0.0912
  549TIP3   OH223061   2.506   4.653  11.623 -0.1903  0.0126  0.2798
  549TIP3    H123062   2.454   4.718  11.669 -0.0811  0.8158 -0.7038
  549TIP3    H223063   2.597   4.683  11.634  0.0813 -1.3455  1.9382
  550TIP3   OH223064   0.761   1.646  10.925 -0.0463 -0.8728  0.1739
  550TIP3    H123065   0.798   1.660  10.838 -0.8165  0.7630  0.0835
  550TIP3    H223066   0.832   1.606  10.976  1.1519  0.2728 -0.5646
  551TIP3   OH223067   0.512   0.739  10.080 -0.0384  0.5777 -0.1280
  551TIP3    H123068   0.567   0.693  10.143  0.2970  1.9447  0.5861
  551TIP3    H223069   0.427   0.694  10.085  0.9540 -1.5080 -1.1996
  552TIP3   OH223070   2.666   0.015  12.289  0.1116 -0.0754 -0.3392
  552TIP3    H123071   2.651   0.104  12.321  1.3855  0.0823 -0.1615
  552TIP3    H223072   2.732   0.025  12.220  2.3972 -1.1908  1.6084
  553TIP3   OH223073   1.204   7.076  11.574  0.1083  0.2045  0.4209
  553TIP3    H123074   1.215   7.099  11.482  0.9524 -1.1497  0.1718
  553TIP3    H223075   1.140   7.139  11.607 -1.4266 -0.3333 -1.4785
  554TIP3   OH223076   2.068   3.381  12.508 -0.2473 -0.3507  0.2083
  554TIP3    H123077   2.126   3.397  12.434 -0.1680 -1.9708 -0.1158
  554TIP3    H223078   2.045   3.288  12.500 -2.6020  0.1804  0.5506
  555TIP3   OH223079   1.234   0.789  10.110  0.8377  0.4614  0.0401
  555TIP3    H123080   1.316   0.771  10.064 -1.0870  0.9004 -3.7440
  555TIP3    H223081   1.210   0.877  10.080  0.0402  1.2424  2.8215
  556TIP3   OH223082   1.970   1.534  11.769  0.0025 -0.3391  0.4712
  556TIP3    H123083   1.939   1.444  11.767 -2.2261  0.4033  0.5546
  556TIP3    H223084   2.005   1.549  11.681 -0.6368 -0.9331  0.1086
  557TIP3   OH223085   1.598   0.156  13.820  0.9816  0.0988  0.3985
  557TIP3    H123086   1.515   0.119  13.792  1.4822 -1.5242  0.9836
  557TIP3    H223087   1.639   0.189  13.740  1.0174 -1.6422 -0.3010
  558TIP3   OH223088   1.858   0.374  10.387  0.0030  0.4474  0.8415
  558TIP3    H123089   1.764   0.374  10.406 -0.0919  1.3730  0.3935
  558TIP3    H223090   1.874   0.289  10.346 -0.6637  0.3378  0.8020
  559TIP3   OH223091   1.517   1.905  10.095 -0.1753  0.2395  0.2116
  559TIP3    H123092   1.557   1.820  10.078 -0.8752 -0.4128  1.7022
  559TIP3    H223093   1.458   1.920  10.021 -0.5900 -0.9109  0.3087
  560TIP3   OH223094   3.348   0.220  12.223  0.1567  0.5783  0.3439
  560TIP3    H123095   3.439   0.191  12.225  0.2142  0.7643  0.4393
  560TIP3    H223096   3.335   0.264  12.308  0.1121  0.9587  0.1424
  561TIP3   OH223097   1.774   6.543  10.077  0.2037  0.2488  0.2500
  561TIP3    H123098   1.770   6.569   9.985 -0.7658  0.6974  0.4125
  561TIP3    H223099   1.735   6.616  10.124  1.0979  0.2156  1.0635
  562TIP3   OH223100   0.729   6.076  11.598  0.0992  0.3433 -0.5424
  562TIP3    H123101   0.821   6.098  11.592  0.5447 -1.0404  0.6946
  562TIP3    H223102   0.697   6.126  11.673  0.3281 -0.6650  0.2404
  563TIP3   OH223103   2.686   5.622  10.420 -0.4060 -1.2007 -0.1091
  563TIP3    H123104   2.599   5.653  10.449 -0.8736 -0.8415 -1.8369
  563TIP3    H223105   2.668   5.570  10.343  1.0785  0.3806 -1.5628
  564TIP3   OH223106   2.341   2.415  10.965  0.0274 -0.0433  0.2713
  564TIP3    H123107   2.375   2.413  10.876 -0.1299  3.3533  0.0728
  564TIP3    H223108   2.251   2.383  10.957  0.3876 -0.8592 -0.5917
  565TIP3   OH223109   6.043   1.034  10.519 -0.0074 -0.0731 -0.1758
  565TIP3    H123110   5.953   1.004  10.508 -0.6195  2.3610 -2.6228
  565TIP3    H223111   6.097   0.962  10.488 -1.1202 -1.2888  0.6712
  566TIP3   OH223112   1.463   0.437  10.650 -0.4221  0.0846  0.0455
  566TIP3    H123113   1.522   0.413  10.579  0.2794 -1.7481  1.2094
  566TIP3    H223114   1.381   0.393  10.629 -0.3700 -0.0437  0.1100
  567TIP3   OH223115   0.852   6.427  10.455 -0.0728 -0.3756 -0.2949
  567TIP3    H123116   0.892   6.370  10.520  2.3279  0.5237 -0.9239
  567TIP3    H223117   0.924   6.481  10.423 -1.7201  0.9829 -1.8257
  568TIP3   OH223118   0.271   2.963  12.302  0.2079 -0.0483  0.4058
  568TIP3    H123119   0.193   2.997  12.258  0.0713  0.3646  0.9556
  568TIP3    H223120   0.292   3.029  12.367  1.3615  0.1161 -0.1204
  569TIP3   OH223121   7.270   1.806  10.528  0.2597  0.2645 -0.4988
  569TIP3    H123122   7.298   1.756  10.451  0.1330  2.2352 -1.8847
  569TIP3    H223123   7.349   1.853  10.555  0.4268 -0.8063  0.8997
  570TIP3   OH223124   0.016   7.077  14.182  0.1961  0.6082 -0.3570
  570TIP3    H123125  -0.042   7.123  14.120  0.6507 -1.0213 -2.0114
  570TIP3    H223126  -0.036   7.002  14.211  0.2017  1.0565  0.8246
  571TIP3   OH223127   0.961   0.758  10.194 -0.5285  0.0863  0.2237
  571TIP3    H123128   1.048   0.770  10.156 -0.0847 -0.9420  0.9114
  571TIP3    H223129   0.934   0.846  10.221 -0.1256  0.5645 -0.8862
  572TIP3   OH223130   0.270   2.145  11.249 -0.7343 -0.1531 -0.4917
  572TIP3    H123131   0.330   2.077  11.279 -1.0936 -0.5978 -0.7787
  572TIP3    H223132   0.218   2.102  11.181 -1.5186  0.1729 -0.0936
  573TIP3   OH223133   6.371   0.760  12.071  0.2770 -0.2239 -0.1241
  573TIP3    H123134   6.400   0.731  11.984  0.0791  1.0203 -0.6131
  573TIP3    H223135   6.445   0.740  12.128  1.3024  0.9660 -0.9916
  574TIP3   OH223136   1.736   0.475  11.431  0.0185 -0.0250  0.0083
  574TIP3    H123137   1.651   0.517  11.433  0.4089  0.7574  0.7385
  574TIP3    H223138   1.723   0.392  11.477 -0.3547  0.0779  0.0876
  575TIP3   OH223139   0.806   2.888  12.168  0.2457  0.4019 -0.0172
  575TIP3    H123140   0.737   2.824  12.185 -0.1381  0.9835  0.6370
  575TIP3    H223141   0.759   2.970  12.152  0.7527  0.6062 -0.4764
  576TIP3   OH223142   2.460   1.801  14.304  0.6331  0.5497  0.1992
  576TIP3    H123143   2.440   1.868  14.238  2.1317  0.9147  0.1079
  576TIP3    H223144   2.555   1.801  14.311  0.4882  1.2323  3.0993
  577TIP3   OH223145   2.194   7.214  11.240 -0.0930 -0.4190 -0.1606
  577TIP3    H123146   2.145   7.209  11.322 -0.0803 -0.3770 -0.1501
  577TIP3    H223147   2.240   7.130  11.234 -1.8028 -1.3085 -1.2116
  578TIP3   OH223148   4.676   0.024  11.644 -0.1068 -0.0600 -0.3477
  578TIP3    H123149   4.738   0.096  11.634  0.9519 -0.9739 -0.4474
  578TIP3    H223150   4.701  -0.039  11.576 -1.1498 -0.4249 -0.3990
  579TIP3   OH223151   1.230   1.171  10.216 -0.4240 -0.3435  0.2027
  579TIP3    H123152   1.191   1.109  10.155 -1.0540 -0.9713  1.2351
  579TIP3    H223153   1.255   1.118  10.292 -1.9307  0.8114  1.5550
  580TIP3   OH223154   1.932   2.274  10.329  0.5833  0.6081  0.3927
  580TIP3    H123155   2.011   2.251  10.279  0.0641  1.1836 -0.7254
  580TIP3    H223156   1.917   2.200  10.387  1.7803  0.3665  0.3988
  581TIP3   OH223157   0.101   1.843  11.921  0.4171  0.0654 -0.2026
  581TIP3    H123158   0.180   1.795  11.897  0.6922  2.6271 -5.0415
  581TIP3    H223159   0.133   1.924  11.960  0.1527  0.4613 -0.8040
  582TIP3   OH223160   3.829   1.270  11.152  0.4918  0.3419 -0.2426
  582TIP3    H123161   3.807   1.277  11.244  0.6437  0.9870 -0.2483
  582TIP3    H223162   3.890   1.197  11.147 -0.3513 -0.3790  0.0087
  583TIP3   OH223163   1.354   0.232  13.556  0.1026 -0.1814  0.3326
  583TIP3    H123164   1.380   0.227  13.464 -2.5937  0.6698 -0.5217
  583TIP3    H223165   1.366   0.324  13.579 -0.1603 -0.1967  0.5322
  584TIP3   OH223166   6.775   0.942  10.664  0.2338  0.9639 -0.3336
  584TIP3    H123167   6.771   0.942  10.569  1.7736  0.4184 -0.4187
  584TIP3    H223168   6.730   0.862  10.691 -0.2012  1.1199 -0.5965
  585TIP3   OH223169   7.299   2.400  13.343  0.3882  0.1422  0.0901
  585TIP3    H123170   7.338   2.410  13.430  0.3712 -0.2125  0.1392
  585TIP3    H223171   7.210   2.370  13.359  0.3120  0.2950 -0.0448
  586TIP3   OH223172   0.023   2.489  12.869  0.8361 -0.2941 -0.0201
  586TIP3    H123173   0.010   2.518  12.959 -3.0346 -0.2341 -0.5076
  586TIP3    H223174   0.022   2.393  12.874 -0.0842 -0.2924 -0.0573
  587TIP3   OH223175   0.489   0.949   9.886 -0.7244 -0.0373 -0.4107
  587TIP3    H123176   0.490   0.859   9.919 -1.0689  0.8894  2.2472
  587TIP3    H223177   0.411   0.953   9.830 -3.1944 -0.3141  2.8173
  588TIP3   OH223178   3.548   7.266  10.384 -0.4157  0.8960 -0.8475
  588TIP3    H123179   3.475   7.254  10.445 -0.9303 -1.9862 -1.9468
  588TIP3    H223180   3.564   7.360  10.384 -2.6196  1.3237  1.1537
  589TIP3   OH223181   3.273   6.513  11.544 -0.4072 -0.2182  0.8101
  589TIP3    H123182   3.306   6.590  11.498  1.7567 -1.2333  0.6000
  589TIP3    H223183   3.194   6.544  11.588 -0.3210  1.7759 -0.3567
  590TIP3   OH223184   5.351   0.800  11.053  0.6419  0.5351  1.0262
  590TIP3    H123185   5.415   0.871  11.052 -0.4603  1.5379  0.8809
  590TIP3    H223186   5.305   0.809  11.136 -0.0836  0.5226  0.6306
  591TIP3   OH223187   0.831   0.059  10.283  0.8804 -0.2084  0.6883
  591TIP3    H123188   0.881   0.085  10.205 -1.6157 -0.3459 -1.0022
  591TIP3    H223189   0.766  -0.003  10.250 -1.5682  1.3025  2.5489
  592TIP3   OH223190   0.404   0.617  11.456  0.2084 -0.5158  0.4378
  592TIP3    H123191   0.483   0.637  11.505 -0.1423 -0.2442  0.8926
  592TIP3    H223192   0.384   0.526  11.479 -0.0443 -0.3371  0.9120
  593TIP3   OH223193   1.524   2.079  10.293  0.6940  0.1058 -0.3124
  593TIP3    H123194   1.429   2.079  10.293  0.6452  2.6883 -2.0289
  593TIP3    H223195   1.547   2.025  10.217  0.5850  0.2173 -0.4257
  594TIP3   OH223196   0.658   0.118   9.619 -0.1835  0.1440 -0.0063
  594TIP3    H123197   0.723   0.100   9.687 -0.2391  3.2296  0.9283
  594TIP3    H223198   0.688   0.067   9.544  1.0610 -1.6401  1.6432
  595TIP3   OH223199   0.971   1.549  10.471 -0.7521  0.0376 -0.2271
  595TIP3    H123200   0.917   1.471  10.455 -2.3572  1.0114  0.2732
  595TIP3    H223201   0.969   1.598  10.389 -0.7507  0.1559 -0.1570
  596TIP3   OH223202   1.264   2.549  12.337  0.1314 -0.7003  0.7048
  596TIP3    H123203   1.340   2.539  12.280 -0.3286 -0.7761  0.1055
  596TIP3    H223204   1.243   2.642  12.334 -0.8121 -0.9388 -0.4414
  597TIP3   OH223205   0.236   0.423  11.061 -0.1409 -0.2856 -0.0420
  597TIP3    H123206   0.173   0.371  11.111 -0.9462 -0.1356 -0.8758
  597TIP3    H223207   0.196   0.432  10.974 -0.5201  2.6566  0.3827
  598TIP3   OH223208   0.876   7.150  13.256  0.4095 -0.0408  0.0361
  598TIP3    H123209   0.806   7.211  13.281  0.9288  1.6863 -2.5550
  598TIP3    H223210   0.947   7.168  13.318  0.2735  1.4759 -0.2310
  599TIP3   OH223211   1.673   0.734  10.421  0.1741 -0.1427  0.0738
  599TIP3    H123212   1.703   0.674  10.489 -0.1223  1.6934  1.8809
  599TIP3    H223213   1.588   0.699  10.393  0.6489 -1.3231  0.0761
  600TIP3   OH223214   4.374   6.790  10.943  0.2845  0.2807  0.3437
  600TIP3    H123215   4.343   6.864  10.891 -0.1087  1.2263  1.8999
  600TIP3    H223216   4.311   6.720  10.924  1.4962 -0.1460 -2.2600
  601TIP3   OH223217   1.850   0.436  11.019 -0.0216 -0.5379 -0.1820
  601TIP3    H123218   1.758   0.410  11.031  0.5163 -2.1968  0.5389
  601TIP3    H223219   1.866   0.422  10.926  0.0684 -2.2417  0.0732
  602TIP3   OH223220   2.851   0.897  10.987  0.0113 -0.4778 -0.0049
  602TIP3    H123221   2.810   0.931  11.066 -1.3862 -0.6878 -0.6231
  602TIP3    H223222   2.903   0.970  10.953  1.6895 -0.7811  1.7972
  603TIP3   OH223223   3.422   2.603  10.996 -0.0172  0.2303  0.0220
  603TIP3    H123224   3.395   2.675  10.939 -0.1081  1.4416  1.5563
  603TIP3    H223225   3.381   2.623  11.080  0.8210 -1.0683  0.7492
  604TIP3   OH223226   0.908   0.472  12.060 -0.1889 -0.9765 -0.1691
  604TIP3    H123227   0.960   0.439  11.987  1.8438 -1.0920  1.3100
  604TIP3    H223228   0.853   0.399  12.086  0.4612 -1.5252 -0.3402
  605TIP3   OH223229   2.495   0.827  10.555 -0.2445  0.4140  0.4638
  605TIP3    H123230   2.461   0.838  10.466 -1.6149  1.1830  1.0675
  605TIP3    H223231   2.561   0.896  10.564  1.5281 -1.0729 -0.7067
  606TIP3   OH223232   3.791   0.858  11.792  0.6672 -0.2292  0.2530
  606TIP3    H123233   3.829   0.920  11.854  0.4655  0.9136 -0.7630
  606TIP3    H223234   3.812   0.894  11.705 -1.7856 -0.1482 -0.3464
  607TIP3   OH223235   2.145   1.727  10.161 -0.8347  0.2152  0.2144
  607TIP3    H123236   2.176   1.673  10.089  2.0574  0.9766  0.8318
  607TIP3    H223237   2.070   1.774  10.125 -0.1636 -0.2869 -1.9243
  608TIP3   OH223238   0.402   5.460  10.896  0.5313  0.1940 -0.3334
  608TIP3    H123239   0.424   5.384  10.951 -0.0037 -0.1621 -0.6039
  608TIP3    H223240   0.369   5.525  10.958  0.0599 -0.1541 -0.2180
  609TIP3   OH223241   2.848   1.136  10.280 -0.2382  0.4653  0.3381
  609TIP3    H123242   2.840   1.086  10.199  0.5613 -0.7460  0.9829
  609TIP3    H223243   2.910   1.206  10.260 -2.3553  2.0519 -0.9551
  610TIP3   OH223244   1.704   7.187  12.389  0.1020 -0.9933 -0.2212
  610TIP3    H123245   1.790   7.152  12.369  1.3765 -0.5139  3.9657
  610TIP3    H223246   1.662   7.120  12.443 -1.1799 -0.1566 -0.1484
  611TIP3   OH223247   4.350   6.995  10.034  0.1976 -1.1338 -0.4274
  611TIP3    H123248   4.299   6.999   9.953  0.9246  0.7891 -0.8191
  611TIP3    H223249   4.434   7.037  10.011  0.1759 -0.0186  1.4702
  612TIP3   OH223250   3.479   1.188  10.728  0.1369 -0.3465 -0.1528
  612TIP3    H123251   3.521   1.113  10.770 -0.3223 -0.6349 -0.2071
  612TIP3    H223252   3.453   1.245  10.800 -3.3618 -2.2300  0.2014
  613TIP3   OH223253   1.922   1.845  10.408 -0.2821 -0.3832  0.5530
  613TIP3    H123254   2.016   1.850  10.420 -0.2622 -0.1143  0.2975
  613TIP3    H223255   1.903   1.751  10.400  0.3020 -0.3202 -2.0158
  614TIP3   OH223256   2.633   7.175  10.170 -0.8509  0.4097  0.1222
  614TIP3    H123257   2.643   7.245  10.106 -0.6922  0.6956  0.4575
  614TIP3    H223258   2.720   7.136  10.176 -0.9413  0.1761 -0.0720
  615TIP3   OH223259   3.683   6.829  13.247  0.1557 -0.2040 -0.3052
  615TIP3    H123260   3.701   6.771  13.173 -0.2086  0.0712 -0.6131
  615TIP3    H223261   3.761   6.823  13.302  0.7577  0.2034 -1.1062
  616TIP3   OH223262   1.301   0.671  11.618 -0.6187 -0.5395  0.0492
  616TIP3    H123263   1.382   0.635  11.654 -0.7731  0.5732  1.5786
  616TIP3    H223264   1.260   0.716  11.692 -1.8722  0.2380 -1.0904
  617TIP3   OH223265   0.804   1.645  13.491 -0.2234 -0.1380  0.5255
  617TIP3    H123266   0.745   1.610  13.558  1.7062  1.2483  3.0725
  617TIP3    H223267   0.823   1.734  13.521  1.8739 -0.0083 -1.0728
  618TIP3   OH223268   4.017   0.670  10.508 -0.2283  0.0233  0.6449
  618TIP3    H123269   4.046   0.620  10.585  2.2018  0.7148  0.2079
  618TIP3    H223270   3.976   0.605  10.451  0.8638 -1.0814  1.1022
  619TIP3   OH223271   1.283   7.205  10.831 -0.5010  0.0480 -0.7292
  619TIP3    H123272   1.283   7.151  10.910 -0.1679 -0.5792 -1.1474
  619TIP3    H223273   1.322   7.288  10.858  2.3748 -1.1773 -0.8899
  620TIP3   OH223274   3.051   2.302  12.427 -0.4665 -0.1399  0.7335
  620TIP3    H123275   3.013   2.287  12.340 -0.1859  0.4051  0.5174
  620TIP3    H223276   3.133   2.347  12.410 -1.4940  2.0410  1.4008
  621TIP3   OH223277   2.960   1.767  11.028  0.3328  0.3499 -0.1449
  621TIP3    H123278   2.940   1.860  11.020 -0.3599  0.5131  2.9833
  621TIP3    H223279   2.879   1.723  11.000  0.6279  0.6517 -1.5275
  622TIP3   OH223280   2.616   6.288  12.865 -0.3752 -1.1187  0.2456
  622TIP3    H123281   2.665   6.206  12.869  2.3516  0.4627  1.4722
  622TIP3    H223282   2.654   6.335  12.791 -0.2433 -0.0093  0.9974
  623TIP3   OH223283   4.056   0.108   9.923 -1.2277  0.4072  0.1863
  623TIP3    H123284   4.136   0.093   9.874 -0.9567  1.1292  0.4166
  623TIP3    H223285   4.074   0.072  10.010 -2.6544 -3.4417 -0.9991
  624TIP3   OH223286   2.343   6.705  10.739  0.4209  0.4247 -0.1304
  624TIP3    H123287   2.413   6.654  10.699  0.1637 -0.8440  1.0044
  624TIP3    H223288   2.386   6.782  10.776  0.7147  1.4237 -2.4769
  625TIP3   OH223289   1.659   1.676  10.711  0.1715 -0.0898 -0.8080
  625TIP3    H123290   1.641   1.694  10.618 -0.2310  0.1890 -0.6754
  625TIP3    H223291   1.753   1.687  10.719 -0.1193  2.6315 -0.5898
  626TIP3   OH223292   1.179   7.055  11.034 -0.6609 -0.0256 -0.5166
  626TIP3    H123293   1.197   6.998  11.109  0.4915 -2.0488 -2.2532
  626TIP3    H223294   1.091   7.029  11.005 -0.0950 -1.0179 -1.3696
  627TIP3   OH223295   3.969   0.024  12.526 -0.0070  0.0345 -0.3779
  627TIP3    H123296   3.962  -0.071  12.519 -2.3902  0.0338  1.5479
  627TIP3    H223297   3.945   0.057  12.439  3.0994 -1.1619 -1.7578
  628TIP3   OH223298   3.655   7.113  11.549  0.0360  0.3819  0.3454
  628TIP3    H123299   3.674   7.079  11.461 -2.4420 -1.6964  0.5697
  628TIP3    H223300   3.591   7.183  11.534 -0.3599  0.0515  0.4896
  629TIP3   OH223301   3.818   0.718  13.259 -0.2122 -0.0050 -0.2548
  629TIP3    H123302   3.761   0.776  13.208 -0.7899 -1.0078 -0.7627
  629TIP3    H223303   3.856   0.659  13.194  0.7133  0.0807  0.2018
  630TIP3   OH223304   3.459   1.968  10.272  0.0957 -0.5460  0.4588
  630TIP3    H123305   3.404   1.932  10.342  0.0224  2.1106  1.8450
  630TIP3    H223306   3.499   2.046  10.311  0.8046  0.4641 -2.1691
  631TIP3   OH223307   3.377   0.561  10.262  0.0166  0.0500 -0.1375
  631TIP3    H123308   3.444   0.495  10.246  1.7467  1.8480 -0.5474
  631TIP3    H223309   3.320   0.522  10.327  1.3927 -1.5841  0.1240
  632TIP3   OH223310   1.833   0.122  10.290 -0.1072 -0.0938  0.2131
  632TIP3    H123311   1.830   0.069  10.211  0.8391  0.6359 -0.3333
  632TIP3    H223312   1.804   0.064  10.360 -1.5554 -0.5769 -0.7496
  633TIP3   OH223313   0.093   3.909  10.791 -0.1633  0.2796 -0.1981
  633TIP3    H123314   0.043   3.889  10.712  0.9555  1.0239 -1.1305
  633TIP3    H223315   0.048   3.862  10.861 -1.6626  0.2836 -1.1378
  634TIP3   OH223316   6.580   1.754  13.989  0.0758 -0.0378  0.5156
  634TIP3    H123317   6.675   1.747  13.983 -0.0009 -2.1459  1.0429
  634TIP3    H223318   6.563   1.781  14.079  0.1798  0.6051  0.3434
  635TIP3   OH223319   3.029   3.526  11.800 -0.2535  0.2650 -0.2979
  635TIP3    H123320   3.009   3.433  11.805 -0.9532  0.4304  0.2257
  635TIP3    H223321   2.993   3.554  11.716 -0.4310  0.1453 -0.2635
  636TIP3   OH223322   4.774   1.897   9.954 -0.1576 -0.0428 -0.3806
  636TIP3    H123323   4.841   1.832   9.930  0.7858  0.0082  2.0086
  636TIP3    H223324   4.694   1.846   9.962 -0.1920 -0.2976 -2.1277
  637TIP3   OH223325   2.372   5.099  10.878  0.1821 -0.2134 -0.7409
  637TIP3    H123326   2.335   5.180  10.914  0.7856 -0.8991  1.4939
  637TIP3    H223327   2.301   5.035  10.886  0.6735 -0.6399  0.2658
  638TIP3   OH223328   1.525   0.060  11.250  0.0123  0.4336  0.0482
  638TIP3    H123329   1.582   0.012  11.190  0.5108  0.6566  0.3363
  638TIP3    H223330   1.554   0.151  11.243 -0.7737  0.6587 -0.3202
  639TIP3   OH223331   2.542   2.068  11.558  0.2489 -0.3780  0.3113
  639TIP3    H123332   2.604   2.131  11.595 -0.0546  0.1775 -0.1112
  639TIP3    H223333   2.546   1.992  11.616 -1.0803  0.9267  2.1658
  640TIP3   OH223334   4.583   0.983  10.057 -0.1563 -0.3932 -0.1029
  640TIP3    H123335   4.673   0.994  10.027 -0.1014 -3.0572 -1.0739
  640TIP3    H223336   4.530   0.987   9.977 -0.3109 -4.3138 -0.3258
  641TIP3   OH223337   2.772   0.173  10.551  0.1624 -0.4770 -0.8812
  641TIP3    H123338   2.803   0.217  10.472 -0.1682  3.4711  1.0510
  641TIP3    H223339   2.852   0.150  10.599  0.3035  0.1420 -0.8207
  642TIP3   OH223340   4.130   1.691  11.443  0.1984 -0.0738  0.0524
  642TIP3    H123341   4.188   1.679  11.368  1.1822  1.3756  0.5770
  642TIP3    H223342   4.046   1.717  11.404  0.3548 -0.5388 -0.6054
  643TIP3   OH223343   1.838   1.723  11.156 -0.9486  0.3565 -0.1756
  643TIP3    H123344   1.800   1.726  11.243 -3.0154  0.1988 -1.0339
  643TIP3    H223345   1.928   1.691  11.169 -0.9464  1.2131  1.9513
  644TIP3   OH223346   5.083   0.943  12.310  0.2407  0.0408  0.2867
  644TIP3    H123347   5.117   1.032  12.302  0.3177 -0.1289 -1.5092
  644TIP3    H223348   5.071   0.914  12.219 -0.0364 -1.6778  0.8591
  645TIP3   OH223349   1.302   1.981  10.815 -0.6785  0.1138 -0.6141
  645TIP3    H123350   1.348   1.921  10.874 -0.1680  1.0171 -0.0855
  645TIP3    H223351   1.294   1.933  10.733 -1.0726 -1.0254  0.0698
  646TIP3   OH223352   1.009   1.492  10.959 -0.1053  0.1225 -0.5742
  646TIP3    H123353   1.004   1.513  10.866  1.3584  0.6985 -0.5379
  646TIP3    H223354   1.083   1.544  10.992 -0.7083  0.0568  0.9419
  647TIP3   OH223355   0.965   2.575  11.441 -0.4639 -0.2878 -0.2802
  647TIP3    H123356   0.917   2.539  11.516 -0.9954 -0.2882 -0.6132
  647TIP3    H223357   0.914   2.547  11.365 -0.3958  0.4304 -0.5907
  648TIP3   OH223358   3.633   1.790  10.470 -0.2726  0.4087 -0.2420
  648TIP3    H123359   3.682   1.708  10.465  1.9915  1.6199  1.1247
  648TIP3    H223360   3.560   1.778  10.409 -0.7328 -3.0888  0.8811
  649TIP3   OH223361   2.051   1.399  11.194 -0.2749  0.2352  0.0635
  649TIP3    H123362   2.117   1.377  11.260  2.9976 -0.1082 -3.1992
  649TIP3    H223363   2.039   1.494  11.202  0.3398  0.2522  0.8678
  650TIP3   OH223364   3.881   2.395  11.264 -0.4145 -0.1601 -0.2264
  650TIP3    H123365   3.801   2.405  11.316  0.4175  1.2209  0.8211
  650TIP3    H223366   3.866   2.449  11.186  0.1008  1.3639  0.7099
  651TIP3   OH223367   0.570   0.788  10.509 -0.3705 -0.2758 -0.1223
  651TIP3    H123368   0.556   0.865  10.454 -1.1559 -0.6101 -0.3963
  651TIP3    H223369   0.606   0.722  10.450  2.2217  0.5116  0.5389
  652TIP3   OH223370   0.283   1.030  12.794  0.1113  0.4980 -0.6815
  652TIP3    H123371   0.335   0.954  12.769 -0.3769 -0.1047  0.0950
  652TIP3    H223372   0.217   0.995  12.855 -0.3811  1.4670 -0.6424
  653TIP3   OH223373   2.940   1.216  12.289 -0.2424 -0.2102  0.5267
  653TIP3    H123374   2.958   1.305  12.320  1.4340 -0.4105  0.1770
  653TIP3    H223375   2.941   1.162  12.368 -0.6663 -0.0161  0.6669
  654TIP3   OH223376   4.118   0.875  13.225 -0.1728  0.6202  0.1950
  654TIP3    H123377   4.180   0.841  13.290 -0.3638  0.1912  0.1481
  654TIP3    H223378   4.114   0.808  13.157 -1.1456  0.3775  0.4843
  655TIP3   OH223379   3.755   1.184  10.272  0.4575 -0.5953  0.0403
  655TIP3    H123380   3.719   1.205  10.186  0.9455  0.3713  0.0623
  655TIP3    H223381   3.849   1.201  10.264  0.1934  1.6691  1.3975
  656TIP3   OH223382   3.682   1.474  11.542 -0.8678  0.1324  0.3896
  656TIP3    H123383   3.760   1.427  11.512 -0.3396 -0.3150  2.3630
  656TIP3    H223384   3.700   1.494  11.634 -3.5826 -1.1299  1.2640
  657TIP3   OH223385   3.088   2.179  11.597 -0.4677  0.1279  0.2306
  657TIP3    H123386   3.086   2.105  11.537 -0.8567 -0.2729  0.7322
  657TIP3    H223387   3.141   2.245  11.553  1.0690 -0.9814  0.4018
  658TIP3   OH223388   2.629   1.003  11.719 -0.1567 -0.6952 -0.0352
  658TIP3    H123389   2.625   1.061  11.643 -0.7243 -0.9950 -0.2332
  658TIP3    H223390   2.705   1.034  11.768 -1.1212  0.9837  0.4583
  659TIP3   OH223391   4.643   0.463  11.278 -0.2695 -0.2722  0.0349
  659TIP3    H123392   4.578   0.513  11.228  1.3457  1.5327 -0.3345
  659TIP3    H223393   4.711   0.442  11.214  0.6672 -0.0367  0.9389
  660TIP3   OH223394   2.604   1.418  10.349  0.4871 -0.4113  0.2118
  660TIP3    H123395   2.526   1.471  10.331 -0.4526 -1.8400  0.0434
  660TIP3    H223396   2.570   1.339  10.390  1.8373 -1.1436 -0.0747
  661TIP3   OH223397   1.065   0.143  11.002  0.2324 -0.1700  0.0630
  661TIP3    H123398   1.104   0.059  10.977 -2.4444 -2.3026  2.5973
  661TIP3    H223399   1.042   0.185  10.919 -1.1822 -3.3678 -1.2506
  662TIP3   OH223400   2.907   6.842  11.576  0.4960  0.4385  0.0927
  662TIP3    H123401   2.848   6.880  11.641  0.6131  1.1760 -0.2314
  662TIP3    H223402   2.936   6.916  11.523  2.7818  0.3067  1.1100
  663TIP3   OH223403   1.516   6.775  11.308 -0.2427 -0.2305  0.0279
  663TIP3    H123404   1.496   6.771  11.402 -0.5470 -2.8895 -0.0955
  663TIP3    H223405   1.478   6.858  11.279 -3.3162 -0.9915  1.5794
  664TIP3   OH223406   2.217   2.222  13.797  0.4575 -0.3031  0.2840
  664TIP3    H123407   2.137   2.172  13.779  0.1171  0.4124 -0.2881
  664TIP3    H223408   2.208   2.300  13.742  0.9015  0.4531  1.2677
  665TIP3   OH223409   6.977   6.044  11.096 -0.2629 -0.5854  0.3499
  665TIP3    H123410   7.028   6.083  11.025 -1.2312  0.2621  0.0915
  665TIP3    H223411   6.999   6.096  11.173  1.7327 -2.2870  0.9641
  666TIP3   OH223412   2.779   6.323  11.432 -0.0143 -0.0503  0.1872
  666TIP3    H123413   2.740   6.253  11.380  2.3160 -1.6909  0.5617
  666TIP3    H223414   2.733   6.320  11.516 -1.1683  0.1085 -0.4252
  667TIP3   OH223415   3.186   7.079  10.110  0.4824  0.3966 -0.1765
  667TIP3    H123416   3.091   7.071  10.107  0.3372  2.2831 -1.7004
  667TIP3    H223417   3.209   7.065  10.202 -1.1741 -0.8085  0.0737
  668TIP3   OH223418   4.212   2.710  10.572 -0.5099 -0.0450  0.0899
  668TIP3    H123419   4.267   2.759  10.511  0.1767  0.3449  1.0078
  668TIP3    H223420   4.197   2.626  10.528  2.4034 -0.8869  0.6073
  669TIP3   OH223421   3.671   0.910  15.053 -0.6018 -0.4847 -0.2606
  669TIP3    H123422   3.696   0.820  15.073  0.6854 -0.5307 -1.9226
  669TIP3    H223423   3.638   0.945  15.135  2.7983 -1.1763  1.4724
  670TIP3   OH223424   1.488   5.813  10.623  0.1731  0.1327  0.3661
  670TIP3    H123425   1.559   5.789  10.683 -0.8624 -0.5050  1.3681
  670TIP3    H223426   1.411   5.822  10.680 -0.5430  0.8334 -0.6979
  671TIP3   OH223427   2.724   0.828  10.162 -0.3588  0.0552 -0.9622
  671TIP3    H123428   2.748   0.912  10.123  0.4696 -0.6359 -1.9733
  671TIP3    H223429   2.634   0.839  10.191 -0.6239  0.9274 -2.1097
  672TIP3   OH223430   5.220   0.175  13.663 -0.8683  0.2372  0.2525
  672TIP3    H123431   5.272   0.255  13.663  1.5458 -1.2940  0.3964
  672TIP3    H223432   5.201   0.159  13.570 -0.6037  0.4793  0.1551
  673TIP3   OH223433   3.240   0.778  12.568  0.1043 -0.5321 -0.1803
  673TIP3    H123434   3.331   0.778  12.598 -0.6508 -2.7032  2.3398
  673TIP3    H223435   3.245   0.748  12.477  1.9051 -0.5415 -0.0994
  674TIP3   OH223436   2.511   1.092  11.957  0.5013 -0.2504 -0.7055
  674TIP3    H123437   2.540   1.044  11.879 -1.1944  0.3344 -1.7016
  674TIP3    H223438   2.591   1.104  12.008  1.2746 -2.5032 -1.3244
  675TIP3   OH223439   3.419   1.096  11.188  0.0635  0.6722 -0.1632
  675TIP3    H123440   3.368   1.031  11.235 -1.5009  1.8338 -0.2316
  675TIP3    H223441   3.367   1.116  11.110  0.7990  1.6032 -0.4244
  676TIP3   OH223442   2.101   7.283  11.774 -0.2259 -0.0821 -0.0483
  676TIP3    H123443   2.181   7.240  11.805  0.1148 -1.7932 -3.0936
  676TIP3    H223444   2.127   7.374  11.761  0.6042 -0.1323  1.1672
  677TIP3   OH223445   2.776   1.442  10.570  0.6518  0.6017  0.5420
  677TIP3    H123446   2.734   1.393  10.499  2.0328 -0.3416  0.3400
  677TIP3    H223447   2.837   1.500  10.526  2.2240 -0.6767  0.9684
  678TIP3   OH223448   2.176   1.374  11.472 -0.0033 -0.2982 -0.2694
  678TIP3    H123449   2.228   1.372  11.553  0.5399  0.7173 -0.5747
  678TIP3    H223450   2.134   1.460  11.474 -0.3010 -0.4337 -0.8692
  679TIP3   OH223451   3.142   2.318  11.306 -0.1622 -0.0551  0.0088
  679TIP3    H123452   3.111   2.327  11.216  1.0811 -1.4686 -0.5775
  679TIP3    H223453   3.111   2.232  11.334 -0.8468  0.5182  1.0767
  680TIP3   OH223454   2.825   2.712  10.877  0.5806 -0.7258 -0.0234
  680TIP3    H123455   2.872   2.690  10.957  0.7400  0.3353  0.1913
  680TIP3    H223456   2.735   2.685  10.894  0.4071  0.3934  0.9069
  681TIP3   OH223457   1.908   0.134  11.089  0.7699 -0.5931  0.6504
  681TIP3    H123458   1.965   0.181  11.151  0.1357 -0.7512  1.3647
  681TIP3    H223459   1.894   0.196  11.018 -0.1413  0.3558  1.6390
  682TIP3   OH223460   0.367   1.241  11.451  0.2419  0.7682  0.2091
  682TIP3    H123461   0.427   1.198  11.512  0.8230  1.1409 -0.1064
  682TIP3    H223462   0.281   1.233  11.494  0.5558  0.5128  0.8020
  683TIP3   OH223463   3.778   1.873  10.985  0.2212 -0.0423 -0.1642
  683TIP3    H123464   3.838   1.800  10.967 -0.2154 -1.2215  2.7349
  683TIP3    H223465   3.828   1.932  11.041 -0.0040  1.0078 -1.0644
  684TIP3   OH223466   1.628   2.977  10.453  0.6728  0.5019 -0.3358
  684TIP3    H123467   1.647   2.935  10.369 -0.0153  0.8222 -0.6639
  684TIP3    H223468   1.652   2.912  10.519  1.5138  0.3652 -0.7717
  685TIP3   OH223469   2.901   3.207  12.105  0.0883  0.2725  0.2678
  685TIP3    H123470   2.812   3.226  12.074 -0.7806 -1.2146  1.8153
  685TIP3    H223471   2.921   3.121  12.067  0.5556  0.2464  0.5765
  686TIP3   OH223472   1.573   1.445  10.809 -0.5407  0.3242 -0.0114
  686TIP3    H123473   1.601   1.528  10.771 -1.3453  0.7058  0.2081
  686TIP3    H223474   1.653   1.406  10.844 -0.0276  0.6283 -0.8355
  687TIP3   OH223475   3.027   0.886  12.384 -0.3601 -0.2931  0.5697
  687TIP3    H123476   2.967   0.814  12.404 -2.4018  0.9348 -1.0107
  687TIP3    H223477   2.986   0.963  12.423  0.9563  0.3168  0.7782
  688TIP3   OH223478   2.651   1.111   9.905 -0.4916 -0.3099 -0.9533
  688TIP3    H123479   2.713   1.165   9.855  1.4638  0.7389  2.4371
  688TIP3    H223480   2.595   1.174   9.950  1.1668 -1.0316  2.2514
  689TIP3   OH223481   2.409   1.239  10.743 -0.1626  0.5405 -0.1362
  689TIP3    H123482   2.419   1.223  10.649 -1.5371 -1.0538 -0.0380
  689TIP3    H223483   2.406   1.151  10.782  0.5049  1.1868  1.4179
  690TIP3   OH223484   2.852   2.267  11.433  0.5365  0.6571 -0.3393
  690TIP3    H123485   2.890   2.274  11.345 -1.4743  3.6958 -1.0552
  690TIP3    H223486   2.865   2.354  11.471 -0.7271  0.0668  1.4727
  691TIP3   OH223487   3.027   6.623  10.532 -0.8947 -0.1725  0.0331
  691TIP3    H123488   3.022   6.556  10.465 -0.2109 -1.1543  0.9631
  691TIP3    H223489   3.087   6.588  10.598 -0.9929  1.0846  0.8102
  692TIP3   OH223490   7.277   5.927  10.518 -0.3358  0.3667 -0.1035
  692TIP3    H123491   7.328   5.964  10.446  2.1440 -2.4222  0.0886
  692TIP3    H223492   7.279   5.994  10.587  2.1180  0.7872 -0.5515
  693TIP3   OH223493   3.692   1.453  10.170  0.2055 -0.0920  0.1570
  693TIP3    H123494   3.787   1.463  10.164  0.1966 -0.8524 -1.5139
  693TIP3    H223495   3.673   1.376  10.116 -1.5493  1.1662 -1.0553
  694TIP3   OH223496   3.838   1.247  11.430 -0.1020 -0.0659  0.6178
  694TIP3    H123497   3.745   1.227  11.429  0.1546 -1.3177  1.4825
  694TIP3    H223498   3.880   1.168  11.462  1.3541  0.1487 -0.6872
  695TIP3   OH223499   1.752   5.685  13.343  0.6186 -0.5709  0.4342
  695TIP3    H123500   1.663   5.703  13.314  0.9187  0.3665  0.0589
  695TIP3    H223501   1.768   5.594  13.317  0.1434 -0.4116 -0.4418
  696TIP3   OH223502   2.543   1.130  10.510  0.3753  0.4272 -0.3903
  696TIP3    H123503   2.623   1.095  10.469 -0.7180 -0.8586 -1.4648
  696TIP3    H223504   2.494   1.168  10.437  0.3878  1.9976  0.4015
  697TIP3   OH223505   1.292   4.512  11.131 -0.0135  0.3719  0.5237
  697TIP3    H123506   1.348   4.456  11.184 -1.6961 -0.1259  1.8169
  697TIP3    H223507   1.249   4.453  11.070  0.5490  0.7012 -0.2046
  698TIP3   OH223508   2.892   2.318  13.151 -0.0028 -0.2021 -0.1607
  698TIP3    H123509   2.858   2.282  13.069  1.8678 -0.8808 -0.6562
  698TIP3    H223510   2.820   2.308  13.213 -1.1792 -0.3663 -1.5167
  699TIP3   OH223511   2.399   0.273  12.324  0.6375 -0.2287  0.8691
  699TIP3    H123512   2.389   0.186  12.285  1.4820  0.2926 -0.5407
  699TIP3    H223513   2.491   0.278  12.351  1.0184  0.7900 -0.5144
  700TIP3   OH223514   3.331   7.134  10.523  0.4598 -0.0710 -0.1678
  700TIP3    H123515   3.301   7.081  10.450  1.7364  0.7476 -1.3040
  700TIP3    H223516   3.253   7.147  10.576 -0.3610 -1.1375 -1.0777
  701TIP3   OH223517   2.793   1.874  10.795 -0.0676 -0.2668  0.4307
  701TIP3    H123518   2.846   1.876  10.715 -0.6173  1.7234  0.0754
  701TIP3    H223519   2.703   1.866  10.764 -0.2183 -0.2817  0.8720
  702TIP3   OH223520   2.052   1.549   9.872  0.3262 -0.0591 -0.2369
  702TIP3    H123521   2.058   1.464   9.828 -1.2234  0.2033 -1.0010
  702TIP3    H223522   1.968   1.545   9.918  0.8008  0.6126  0.6949
  703TIP3   OH223523   2.064   2.609  11.638  0.3064 -0.1964  0.5494
  703TIP3    H123524   2.110   2.620  11.555  1.6094 -0.4397  1.2340
  703TIP3    H223525   2.131   2.621  11.705 -0.6481 -0.4313  1.5612
  704TIP3   OH223526   1.983   6.334  11.668 -0.0592  0.3231  0.2035
  704TIP3    H123527   2.063   6.385  11.684 -1.4961  3.0837 -1.0288
  704TIP3    H223528   1.984   6.317  11.574 -1.2654  1.0071  0.0572
  705TIP3   OH223529   5.598   6.890  11.963  0.1771 -0.3057  0.2336
  705TIP3    H123530   5.662   6.937  12.016 -0.3832 -0.3639  0.9609
  705TIP3    H223531   5.604   6.931  11.876  1.9145 -0.9921  0.0261
  706TIP3   OH223532   1.069   2.618  11.093  0.3620 -0.2224 -0.0737
  706TIP3    H123533   1.009   2.546  11.113 -0.7487  0.4910 -0.7827
  706TIP3    H223534   1.088   2.658  11.177 -1.3180  0.4524 -0.0098
  707TIP3   OH223535   1.816   1.758  11.461 -0.1593 -0.1837  0.2512
  707TIP3    H123536   1.732   1.715  11.477  0.6428 -1.5697  0.7576
  707TIP3    H223537   1.882   1.697  11.493  0.9898  1.6704  1.5718
  708TIP3   OH223538   3.402   7.264  10.141 -0.7453  0.3119  0.0928
  708TIP3    H123539   3.397   7.275  10.236 -1.8594 -2.2555  0.3661
  708TIP3    H223540   3.313   7.240  10.115  0.2603 -2.2201 -1.1418
  709TIP3   OH223541   2.594   2.059  12.486  0.2685  0.1944  0.0489
  709TIP3    H123542   2.656   2.064  12.559 -0.1739  2.4346  0.3058
  709TIP3    H223543   2.631   1.993  12.428 -0.2375 -2.9035  3.0711
  710TIP3   OH223544   1.434   0.358  12.125  0.1930 -0.2598 -0.3116
  710TIP3    H123545   1.345   0.392  12.121 -0.0970 -1.1899 -2.6812
  710TIP3    H223546   1.434   0.297  12.199 -1.5580 -1.3533 -1.1820
  711TIP3   OH223547   2.369   0.109  11.709  0.2250 -0.7595 -0.1901
  711TIP3    H123548   2.321   0.165  11.648 -1.5722 -1.4472  0.5750
  711TIP3    H223549   2.428   0.058  11.654 -0.1358 -0.1272 -1.1730
  712TIP3   OH223550   0.487   0.635  13.564  0.4451 -0.0654 -0.0816
  712TIP3    H123551   0.464   0.574  13.494  1.8195 -0.1774 -0.4391
  712TIP3    H223552   0.460   0.721  13.530  2.1882  0.0411 -1.2701
  713TIP3   OH223553   3.023   2.405   9.721  0.3075 -0.0160 -0.1875
  713TIP3    H123554   2.966   2.449   9.784  0.8573  0.3804  0.0393
  713TIP3    H223555   2.970   2.334   9.686 -0.4647  0.5862 -0.2659
  714TIP3   OH223556   2.123   1.170  12.434 -0.0874  0.6188 -1.1328
  714TIP3    H123557   2.144   1.085  12.472  1.3830  0.9216 -1.2548
  714TIP3    H223558   2.041   1.156  12.386  0.4194 -0.8395 -1.5815
  715TIP3   OH223559   2.979   1.228  11.065 -0.1104  0.2980 -0.1745
  715TIP3    H123560   2.893   1.211  11.026 -0.3245 -1.4097  1.0001
  715TIP3    H223561   2.960   1.273  11.148  0.2060  1.2007 -0.5830
  716TIP3   OH223562   4.385   6.774  10.544  0.2482 -0.0417 -0.2562
  716TIP3    H123563   4.293   6.753  10.560  0.0352  0.0457 -1.2993
  716TIP3    H223564   4.382   6.852  10.488  0.9810  0.7178  0.7417
  717TIP3   OH223565   1.667   1.489  12.785 -0.0135  0.1651  0.1868
  717TIP3    H123566   1.602   1.534  12.839 -1.5659 -0.0837 -1.4120
  717TIP3    H223567   1.751   1.526  12.811 -0.7363  0.1047  2.6889
  718TIP3   OH223568   2.444   6.932  10.916  0.5860 -0.0483  0.0435
  718TIP3    H123569   2.533   6.896  10.923  0.4590 -0.7380 -1.7561
  718TIP3    H223570   2.457   7.026  10.905  1.0517 -0.0346  0.6656
  719TIP3   OH223571   3.868   2.436  10.859  0.4652  0.2443 -0.1402
  719TIP3    H123572   3.861   2.513  10.915 -3.0831  0.0048 -0.1422
  719TIP3    H223573   3.892   2.365  10.919 -0.8028  0.4811  0.6600
  720TIP3   OH223574   2.758   0.599  12.725  0.4741 -0.6805  0.6625
  720TIP3    H123575   2.681   0.655  12.735  0.1390 -1.1511  0.7330
  720TIP3    H223576   2.832   0.660  12.717 -0.1461 -0.1980 -1.6705
  721TIP3   OH223577   3.785   3.081  13.231  0.0577 -0.1751 -0.1411
  721TIP3    H123578   3.726   3.007  13.216 -0.3977  0.4187 -1.3944
  721TIP3    H223579   3.786   3.093  13.326 -1.0448 -0.8374 -0.0401
  722TIP3   OH223580   1.816   0.919  12.085  0.2637  0.2191  0.5507
  722TIP3    H123581   1.907   0.898  12.110  0.5343  1.0141  0.2462
  722TIP3    H223582   1.778   0.835  12.059  2.2973  0.5261 -3.8488
  723TIP3   OH223583   3.965   6.867  11.415  0.7982 -0.1612 -0.2541
  723TIP3    H123584   3.874   6.884  11.389  0.6901  0.4031  0.4792
  723TIP3    H223585   3.960   6.793  11.476  0.7586  0.2805  0.2832
  724TIP3   OH223586   4.004   3.804  10.870  0.1013 -0.1689  0.5581
  724TIP3    H123587   4.038   3.779  10.956  2.7645 -0.0407 -0.4189
  724TIP3    H223588   3.988   3.722  10.825 -0.4442 -0.2166  0.8242
  725TIP3   OH223589   3.376   6.417  12.246 -0.2218  0.1788  0.1229
  725TIP3    H123590   3.429   6.445  12.171 -0.9223  2.1571  0.3269
  725TIP3    H223591   3.370   6.495  12.301 -0.8845 -0.8677  1.5517
  726TIP3   OH223592   3.973   6.271  12.548  0.4641 -0.1317  0.2868
  726TIP3    H123593   3.960   6.205  12.480 -0.1090 -0.2080  0.4693
  726TIP3    H223594   3.915   6.343  12.523 -0.0553 -0.3301  0.9154
  727TIP3   OH223595   3.426   1.921  12.727 -0.0155 -0.1449  0.1540
  727TIP3    H123596   3.470   1.980  12.789 -0.3091 -1.0614  1.2404
  727TIP3    H223597   3.334   1.947  12.730 -0.3120 -1.3119  1.3860
  728TIP3   OH223598   2.645   0.819   9.877  0.1808  0.0364 -0.5965
  728TIP3    H123599   2.620   0.815   9.970 -1.0551 -0.6200 -0.9525
  728TIP3    H223600   2.668   0.911   9.863 -0.4975  0.3219  0.1326
  729TIP3   OH223601   3.246   7.221  12.892  0.2322  0.6954  0.3244
  729TIP3    H123602   3.193   7.202  12.815 -0.1099  1.0728  0.4654
  729TIP3    H223603   3.336   7.222  12.860  0.2324 -0.8572  0.2662
  730TIP3   OH223604   2.052   1.072  10.277  0.4108 -0.4400  0.6621
  730TIP3    H123605   2.033   1.145  10.218  0.3082  0.8024  2.1695
  730TIP3    H223606   1.965   1.039  10.302  0.4295 -0.4008  0.7800
  731TIP3   OH223607   2.368   1.823  10.916  0.2932 -0.1800  0.0447
  731TIP3    H123608   2.360   1.854  10.825  1.8664 -3.0343 -1.1297
  731TIP3    H223609   2.282   1.788  10.937  0.3272 -0.8361 -0.8826
  732TIP3   OH223610   2.492   1.262  11.002 -0.1325 -0.0330  0.6346
  732TIP3    H123611   2.443   1.315  10.938  0.0095 -0.7082 -0.0441
  732TIP3    H223612   2.468   1.172  10.982 -0.4289 -0.2269  1.8351
  733TIP3   OH223613   1.737   1.287  10.475  0.4676  0.5852  0.0269
  733TIP3    H123614   1.668   1.224  10.495  0.0121  1.6910  2.1054
  733TIP3    H223615   1.758   1.272  10.383 -0.3931 -1.8471  0.1979
  734TIP3   OH223616   4.182   0.319  10.220  0.1635 -0.1591  0.2010
  734TIP3    H123617   4.162   0.310  10.126  0.4054 -0.6483  0.1957
  734TIP3    H223618   4.255   0.381  10.222  0.7625 -0.8451 -0.0006
  735TIP3   OH223619   1.579   6.645  13.127 -0.1458  0.3676  0.1462
  735TIP3    H123620   1.587   6.556  13.093 -1.9808  0.2082  0.0740
  735TIP3    H223621   1.574   6.700  13.049 -1.9554  0.2319  0.1463
  736TIP3   OH223622   3.636   1.154   9.597 -0.5589  0.6396  0.0782
  736TIP3    H123623   3.596   1.076   9.557 -0.7476  0.4891  0.5449
  736TIP3    H223624   3.591   1.162   9.681  0.1365  0.6895  0.4488
  737TIP3   OH223625   3.421   7.191  10.780  0.4538  0.8729  0.0260
  737TIP3    H123626   3.468   7.275  10.788  1.3202  0.5790 -1.6307
  737TIP3    H223627   3.426   7.171  10.687  0.6397 -1.2531  0.4776
  738TIP3   OH223628   1.961   6.049  10.139  0.3377  0.0509  0.5612
  738TIP3    H123629   1.960   5.956  10.115  0.1221  0.0036  0.7462
  738TIP3    H223630   1.931   6.095  10.061  2.4351  0.1352 -0.2183
  739TIP3   OH223631   4.639   0.530  10.452 -0.3741  0.1923 -0.2866
  739TIP3    H123632   4.633   0.439  10.424 -0.6921 -0.6505  2.4258
  739TIP3    H223633   4.713   0.532  10.512 -0.3371  1.7580 -0.3654
  740TIP3   OH223634   6.087   6.915  11.416 -0.4964  0.2637 -0.1702
  740TIP3    H123635   6.051   6.951  11.335 -1.7223 -1.1276 -0.2664
  740TIP3    H223636   6.181   6.930  11.409 -0.7515  1.4733 -1.1777
  741TIP3   OH223637   4.221   6.959  11.146  0.1267 -0.1673 -0.2684
  741TIP3    H123638   4.230   6.973  11.240  1.2054  1.8728 -0.6515
  741TIP3    H223639   4.128   6.977  11.128 -0.7969 -3.4728  0.8237
  742TIP3   OH223640   2.614   0.221  11.882  0.5503 -0.1809 -0.1570
  742TIP3    H123641   2.578   0.211  11.793  0.9948  1.8675 -0.5943
  742TIP3    H223642   2.552   0.278  11.926  0.0753 -1.5803  1.0455
  743TIP3   OH223643   3.508   0.967  11.632  0.5691 -0.0790  0.3545
  743TIP3    H123644   3.531   1.029  11.563  1.0022  0.4605  0.9764
  743TIP3    H223645   3.550   1.002  11.710  0.1904 -0.7586  0.8654
  744TIP3   OH223646   4.655   6.604  11.597 -0.7162  0.2173  0.0078
  744TIP3    H123647   4.685   6.689  11.566 -1.2011 -0.5111 -2.5407
  744TIP3    H223648   4.570   6.621  11.636 -1.2499  0.7408 -1.3792
  745TIP3   OH223649   7.075   2.829  10.900  0.3778 -0.1439 -0.0720
  745TIP3    H123650   7.060   2.818  10.806  1.3164  0.8569 -0.3491
  745TIP3    H223651   7.010   2.895  10.927 -0.0020 -0.5541  0.0125
  746TIP3   OH223652   3.861   0.358  10.302 -0.4770  0.0537 -0.1664
  746TIP3    H123653   3.935   0.366  10.241 -0.2129  0.7902  0.2364
  746TIP3    H223654   3.793   0.414  10.264 -0.2228  0.7170  0.3281
  747TIP3   OH223655   3.521   1.815  12.497 -0.0889  0.3782 -0.6897
  747TIP3    H123656   3.478   1.841  12.579  0.6057 -0.3658 -0.0655
  747TIP3    H223657   3.591   1.879  12.485  0.1813  0.1494 -0.3735
  748TIP3   OH223658   0.247   7.135  13.515 -0.1165  0.1963 -0.5693
  748TIP3    H123659   0.151   7.138  13.515 -0.0955  1.0147 -1.4190
  748TIP3    H223660   0.269   7.090  13.434  0.2133 -0.2595 -0.2259
  749TIP3   OH223661   2.473   1.538  11.278 -0.3548 -0.0546  0.0888
  749TIP3    H123662   2.454   1.444  11.274 -1.6525  0.2179 -0.6961
  749TIP3    H223663   2.527   1.554  11.201  0.3820 -0.2659  0.5611
  750TIP3   OH223664   5.048   0.495  11.731 -0.6998 -0.0569  0.0931
  750TIP3    H123665   4.969   0.470  11.779  0.6079  2.6323  3.8181
  750TIP3    H223666   5.037   0.588  11.713  0.5801 -0.1876 -1.5053
  751TIP3   OH223667   3.096   6.048  10.727  0.1667 -0.1529  0.4982
  751TIP3    H123668   3.030   5.979  10.726  1.2877 -1.3021  1.8299
  751TIP3    H223669   3.172   6.008  10.771  1.5210  1.3173 -0.4221
  752TIP3   OH223670   6.380   0.228  12.213  0.0385 -0.0646  0.6251
  752TIP3    H123671   6.292   0.220  12.249  0.8219 -0.1883  2.5706
  752TIP3    H223672   6.436   0.240  12.290  1.5418  1.5383 -0.6940
  753TIP3   OH223673   3.443   0.678  11.328  0.1747 -0.1375  0.4014
  753TIP3    H123674   3.465   0.585  11.337  1.4222  0.0988 -0.1870
  753TIP3    H223675   3.523   0.724  11.352 -0.6940  0.8242  1.5488
  754TIP3   OH223676   2.151   3.048  13.242  0.5168  0.1825 -0.4188
  754TIP3    H123677   2.227   3.092  13.203  1.7600 -0.9560  0.6886
  754TIP3    H223678   2.097   3.022  13.167  1.0891  1.2057 -1.1960
  755TIP3   OH223679   0.665   6.931  10.574  0.2050  0.2920  0.1339
  755TIP3    H123680   0.759   6.915  10.590  0.4081 -0.1419 -1.4233
  755TIP3    H223681   0.631   6.959  10.659  2.4367  3.6990 -0.0027
  756TIP3   OH223682   1.625   6.944  10.853 -0.3647 -0.2887  0.0022
  756TIP3    H123683   1.699   6.950  10.792  0.3258  1.9859  0.9982
  756TIP3    H223684   1.641   6.863  10.902  1.1983 -0.0973 -0.1533
  757TIP3   OH223685   2.838   7.146  11.169  0.1587 -0.4134  0.1229
  757TIP3    H123686   2.748   7.115  11.163 -0.2688  0.6655  0.9398
  757TIP3    H223687   2.835   7.220  11.229  1.2674  0.9530 -1.4671
  758TIP3   OH223688   1.514   2.268  12.570  0.1088  0.1965 -0.4471
  758TIP3    H123689   1.490   2.197  12.630  1.3922 -1.3292 -1.6976
  758TIP3    H223690   1.434   2.321  12.564 -0.7996 -0.9894  0.6934
  759TIP3   OH223691   3.493   4.574  10.359  0.3989 -0.6136  0.1172
  759TIP3    H123692   3.579   4.603  10.330  0.2433  1.4023  1.5354
  759TIP3    H223693   3.512   4.503  10.421  1.2460  1.6427  2.5487
  760TIP3   OH223694   4.021   2.483  13.427 -0.4308  0.1810  0.2110
  760TIP3    H123695   4.015   2.419  13.356 -0.4162  1.2630 -0.7921
  760TIP3    H223696   4.093   2.453  13.482 -0.2329 -0.4973 -0.4179
  761TIP3   OH223697   1.722   1.085  12.372  0.4758 -0.0440  0.3742
  761TIP3    H123698   1.790   1.081  12.304 -0.7030  1.2998 -0.9234
  761TIP3    H223699   1.713   1.178  12.390 -1.7739 -0.1175 -0.2540
  762TIP3   OH223700   0.720   3.678  13.364 -0.0309  0.4608 -0.3056
  762TIP3    H123701   0.688   3.720  13.284 -0.5677 -1.7801 -1.3202
  762TIP3    H223702   0.641   3.659  13.414  0.3399  2.4089  1.1013
  763TIP3   OH223703   2.641   1.193  13.357  0.3736 -0.2899 -0.3370
  763TIP3    H123704   2.685   1.279  13.358  0.1417 -0.1289 -2.3893
  763TIP3    H223705   2.549   1.214  13.340 -0.0711 -0.8280  1.2710
  764TIP3   OH223706   4.424   3.028  10.457  0.0389 -0.1494  0.0578
  764TIP3    H123707   4.343   2.992  10.422  0.7900 -0.4829 -1.3678
  764TIP3    H223708   4.487   3.020  10.386  1.0611  1.0466  0.7996
  765TIP3   OH223709   1.304   1.885  13.948 -1.0429 -0.6704  0.4028
  765TIP3    H123710   1.262   1.824  13.887 -0.3767 -0.1072 -0.6341
  765TIP3    H223711   1.234   1.912  14.007 -1.7806 -0.9526 -0.3369
  766TIP3   OH223712   2.191   1.234  11.745  0.5739 -0.4025 -0.3145
  766TIP3    H123713   2.246   1.312  11.752  0.7147 -0.4362 -1.0209
  766TIP3    H223714   2.120   1.249  11.807  0.5696  0.3062 -0.4862
  767TIP3   OH223715   0.683   2.239  12.206 -0.7151  0.0173  0.1586
  767TIP3    H123716   0.613   2.300  12.180 -1.5644 -0.9417  0.1497
  767TIP3    H223717   0.640   2.178  12.266  0.1924 -0.4274  0.3643
  768TIP3   OH223718   3.355   6.478  10.652 -0.3856 -0.0916 -0.1642
  768TIP3    H123719   3.379   6.547  10.591  0.4803  1.4730  1.8725
  768TIP3    H223720   3.432   6.423  10.658 -0.2084  0.1818  0.0778
  769TIP3   OH223721   3.312   6.643  10.031 -0.1831  0.1191  0.4000
  769TIP3    H123722   3.251   6.710  10.002  0.2726  0.5604  0.4551
  769TIP3    H223723   3.380   6.640   9.964 -0.6411 -0.8883 -0.0336
  770TIP3   OH223724   1.314   2.459  12.610 -0.7968 -0.2372 -0.4913
  770TIP3    H123725   1.301   2.501  12.525  2.3930 -0.2614 -1.0660
  770TIP3    H223726   1.311   2.530  12.673 -1.5458  0.0000 -0.7907
  771TIP3   OH223727   2.363   0.317  10.940 -0.4432 -0.3090  0.4859
  771TIP3    H123728   2.339   0.230  10.909 -0.1114 -1.5824  3.6306
  771TIP3    H223729   2.284   0.369  10.930 -0.9025 -1.1924 -0.5864
  772TIP3   OH223730   1.616   1.188  10.048 -0.4896  0.2633 -0.2323
  772TIP3    H123731   1.679   1.198   9.976  1.1321 -0.3956  1.0684
  772TIP3    H223732   1.625   1.098  10.077 -0.1816  0.8720  1.6496
  773TIP3   OH223733   2.788   0.183  12.083 -0.1550 -0.0893  0.5587
  773TIP3    H123734   2.818   0.273  12.072 -0.9268 -0.0313 -1.3398
  773TIP3    H223735   2.751   0.160  11.998  1.0251 -2.5831  0.6701
  774TIP3   OH223736   3.199   0.359  11.336  0.2455 -0.0610 -0.0867
  774TIP3    H123737   3.148   0.280  11.355  0.5226  0.4295  2.8928
  774TIP3    H223738   3.135   0.430  11.333  0.2520 -0.0752 -0.6784
  775TIP3   OH223739   3.790   7.114  10.334  0.0852 -0.0031  0.6515
  775TIP3    H123740   3.738   7.163  10.398  1.9610  3.7384 -0.5416
  775TIP3    H223741   3.726   7.089  10.266 -0.4795  3.5157 -0.2224
  776TIP3   OH223742   2.142   2.330  10.167  0.2492  0.5490 -0.3048
  776TIP3    H123743   2.209   2.341  10.099  1.6357  0.4016  1.0198
  776TIP3    H223744   2.085   2.406  10.155  0.6480  0.6905 -1.4410
  777TIP3   OH223745   3.941   0.942  10.499 -0.1084  0.5553  0.0891
  777TIP3    H123746   3.980   0.855  10.499 -0.8959  0.1835  1.5354
  777TIP3    H223747   3.886   0.943  10.421  1.9419  0.7250 -1.3920
  778TIP3   OH223748   0.861   7.007  12.094  0.1927  0.1780 -0.2096
  778TIP3    H123749   0.805   7.075  12.058 -1.0581 -0.7469 -0.0607
  778TIP3    H223750   0.838   7.003  12.186  0.9764  0.2278 -0.0046
  779TIP3   OH223751   1.867   5.783  10.576  0.3932  0.4447  0.4084
  779TIP3    H123752   1.852   5.702  10.624 -2.2749  0.5419 -0.1807
  779TIP3    H223753   1.873   5.851  10.644  0.0506  0.1088  0.7721
  780TIP3   OH223754   1.450   7.037  13.415 -0.4418  0.2613  0.1042
  780TIP3    H123755   1.484   7.112  13.365 -1.0387  0.4262 -0.0624
  780TIP3    H223756   1.466   7.060  13.507  2.2512 -0.8136 -0.0456
  781TIP3   OH223757   2.259   2.354  10.481  0.2766  0.2620 -0.2985
  781TIP3    H123758   2.173   2.392  10.460  0.3411  2.1238  2.5299
  781TIP3    H223759   2.260   2.270  10.436 -2.9279  0.3470 -0.6305
  782TIP3   OH223760   5.029   2.568  11.289  0.5476  0.0884  0.7436
  782TIP3    H123761   5.037   2.483  11.245 -0.2488  0.0347  0.6971
  782TIP3    H223762   5.076   2.629  11.231 -1.7423  0.2831 -0.9731
  783TIP3   OH223763   4.924   2.067  10.649 -0.1139 -0.1892 -0.3405
  783TIP3    H123764   4.996   2.109  10.696  0.2398 -1.0928 -0.0790
  783TIP3    H223765   4.911   2.122  10.572 -0.4902  1.1360  0.6296
  784TIP3   OH223766   4.788   6.821  10.755  0.0325 -0.1571  0.0765
  784TIP3    H123767   4.774   6.872  10.675 -1.0286 -0.9219 -0.2415
  784TIP3    H223768   4.719   6.754  10.753 -1.2936  1.0349  2.6224
  785TIP3   OH223769   0.622   1.476  10.622  0.2099  0.0351  0.0436
  785TIP3    H123770   0.582   1.393  10.649 -1.4944  0.9891  0.5749
  785TIP3    H223771   0.715   1.465  10.639 -0.0906 -1.5163  0.7652
  786TIP3   OH223772   2.789   7.120  12.988 -0.3658 -0.1425 -0.3371
  786TIP3    H123773   2.749   7.090  12.906 -0.6822  1.1478 -0.6635
  786TIP3    H223774   2.867   7.065  12.998  0.0678  0.1608 -1.8746
  787TIP3   OH223775   3.302   1.270  10.529 -0.5754  0.1282  0.3220
  787TIP3    H123776   3.346   1.313  10.456 -2.2485  2.2076  0.4858
  787TIP3    H223777   3.368   1.263  10.598  0.2768  0.5459 -0.4488
  788TIP3   OH223778   4.362   6.706  12.918 -0.4550 -0.1951 -0.0797
  788TIP3    H123779   4.400   6.786  12.882 -1.3617  0.2463 -0.0520
  788TIP3    H223780   4.339   6.654  12.840  0.9260 -0.8103 -0.0927
  789TIP3   OH223781   5.754   1.030  10.514 -0.4536  0.0353  0.5064
  789TIP3    H123782   5.717   1.039  10.602  0.9278  0.5609  1.0559
  789TIP3    H223783   5.763   1.119  10.482 -1.6610 -0.1952 -0.4776
  790TIP3   OH223784   6.640   3.017  12.027  0.0902  0.1737 -0.2489
  790TIP3    H123785   6.595   3.031  11.944 -0.4560 -0.4952 -0.0724
  790TIP3    H223786   6.585   3.060  12.092 -0.0873 -0.3078 -0.0818
  791TIP3   OH223787   7.254   2.054  12.199  0.4367  0.1189 -0.4711
  791TIP3    H123788   7.168   2.024  12.228  1.5844 -1.7665  1.0939
  791TIP3    H223789   7.235   2.118  12.130 -2.1704 -2.1733 -1.9767
  792TIP3   OH223790   6.509   1.650  12.278 -0.2117  1.0009 -0.0039
  792TIP3    H123791   6.566   1.582  12.242 -0.2109 -0.3117  2.3468
  792TIP3    H223792   6.420   1.621  12.257 -0.1425  1.4668 -0.9816
  793TIP3   OH223793   4.344   0.314   9.728  0.3952 -0.0743 -0.2825
  793TIP3    H123794   4.250   0.304   9.720  0.3776  1.5559 -2.4526
  793TIP3    H223795   4.357   0.356   9.813 -0.8907  0.3856 -0.3074
  794TIP3   OH223796   6.611   0.726  10.775 -0.2388  0.4973 -0.7011
  794TIP3    H123797   6.536   0.719  10.716 -1.0740 -0.0489  0.4100
  794TIP3    H223798   6.628   0.636  10.803  0.7794  0.6332 -0.8901
  795TIP3   OH223799   2.865   5.429  11.799 -0.9489  0.2542  0.0115
  795TIP3    H123800   2.777   5.392  11.809 -2.0323  2.8030  0.2966
  795TIP3    H223801   2.890   5.406  11.709 -1.1966 -1.9468  0.4978
  796TIP3   OH223802   2.214   0.290  12.843  0.3950  0.8604 -0.3536
  796TIP3    H123803   2.141   0.311  12.902  1.2796  0.8567  0.7482
  796TIP3    H223804   2.171   0.268  12.760 -0.8803  0.5653  0.3612
  797TIP3   OH223805   1.444   6.036  12.002  0.3002 -0.2212  0.4207
  797TIP3    H123806   1.528   6.023  12.046  1.3650 -0.2200 -1.5201
  797TIP3    H223807   1.413   6.121  12.033  3.2122  1.8896 -2.1558
  798TIP3   OH223808   4.406   0.730  11.070 -0.1590 -0.9927 -0.1522
  798TIP3    H123809   4.467   0.762  11.137 -0.5253 -0.6234  0.0026
  798TIP3    H223810   4.463   0.693  11.002  0.1913 -2.1701  0.7618
  799TIP3   OH223811   5.656   2.105  11.824 -0.5918 -0.0450  0.3040
  799TIP3    H123812   5.591   2.164  11.862 -0.1878  0.1178  0.7452
  799TIP3    H223813   5.704   2.070  11.899 -1.3339 -1.5362  0.1023
  800TIP3   OH223814   5.217   2.512  12.245  0.0644  0.5355  0.4969
  800TIP3    H123815   5.258   2.455  12.181  0.9337  0.4644  1.1192
  800TIP3    H223816   5.289   2.557  12.289 -0.4944  0.2875  1.7091
  801TIP3   OH223817   4.485   0.798  10.219  0.0589  0.1155 -0.1708
  801TIP3    H123818   4.504   0.869  10.158  0.7059 -0.4918 -0.6845
  801TIP3    H223819   4.560   0.739  10.211 -0.4285 -0.5759  0.3212
  802TIP3   OH223820   4.248   5.830  10.773 -0.2388  0.0265 -0.0498
  802TIP3    H123821   4.247   5.774  10.851 -1.1098  0.1343  0.0210
  802TIP3    H223822   4.332   5.877  10.778  0.9143 -1.9252 -0.5849
  803TIP3   OH223823   3.624   3.448  12.484  0.1598 -0.5837 -0.8009
  803TIP3    H123824   3.672   3.365  12.475  4.0989  1.6850 -1.6322
  803TIP3    H223825   3.635   3.472  12.576  0.4490 -0.1399 -0.9528
  804TIP3   OH223826   4.155   2.392  11.142 -0.1468  0.4562 -0.1629
  804TIP3    H123827   4.067   2.399  11.106 -0.6159  0.2437  0.9356
  804TIP3    H223828   4.153   2.314  11.197  0.8778  0.1485 -0.5305
  805TIP3   OH223829   4.131   0.291  10.473 -0.5998  0.6468  0.0257
  805TIP3    H123830   4.147   0.315  10.382 -0.0421 -0.8025 -0.2807
  805TIP3    H223831   4.044   0.251  10.472  0.0680 -0.8141 -0.1643
  806TIP3   OH223832   3.094   6.959  11.210 -0.0567 -0.0363 -0.5596
  806TIP3    H123833   3.067   6.874  11.244  1.1503  0.2470  1.1867
  806TIP3    H223834   3.012   7.006  11.193 -0.6996 -0.9927 -0.1037
  807TIP3   OH223835   3.819   5.615  11.208 -0.0274 -0.0613 -0.1109
  807TIP3    H123836   3.874   5.582  11.136  2.3046  0.9848  1.1105
  807TIP3    H223837   3.759   5.677  11.166 -0.3700 -1.3346 -1.5190
  808TIP3   OH223838   4.866   1.243  10.060  0.0829 -0.0705  0.8605
  808TIP3    H123839   4.840   1.194   9.982 -1.5060  1.2447  0.5387
  808TIP3    H223840   4.860   1.180  10.131 -2.6277 -0.1854  0.5640
  809TIP3   OH223841   6.562   3.910  11.331  0.1067  0.0478 -0.0825
  809TIP3    H123842   6.606   3.950  11.406 -1.7039 -0.3795  1.2496
  809TIP3    H223843   6.552   3.982  11.269  1.9570  0.3202 -0.0761
  810TIP3   OH223844   3.745   6.518  11.891 -0.2037  0.0655  0.0225
  810TIP3    H123845   3.791   6.601  11.899 -2.8146  1.8188 -2.2430
  810TIP3    H223846   3.663   6.531  11.937 -0.7842 -1.1285 -0.6357
  811TIP3   OH223847   4.391   0.462   9.972  0.8374 -0.2685  0.4869
  811TIP3    H123848   4.427   0.538   9.927 -0.6040  0.5963  0.7419
  811TIP3    H223849   4.370   0.494  10.060 -1.9437 -0.3076 -0.1239
  812TIP3   OH223850   3.879   1.564  12.986  0.0689 -0.5095 -0.1981
  812TIP3    H123851   3.789   1.594  12.968 -0.0218 -0.3483  0.4927
  812TIP3    H223852   3.882   1.474  12.953 -0.1792 -0.3286 -0.7245
  813TIP3   OH223853   4.784   1.034   9.885  0.3229 -0.2175  0.7535
  813TIP3    H123854   4.828   1.078   9.812 -1.5960 -2.0462 -1.5876
  813TIP3    H223855   4.820   0.946   9.885 -0.2020 -0.4359  1.6017
  814TIP3   OH223856   4.208   6.784  12.534  0.2374  0.0284 -0.3090
  814TIP3    H123857   4.176   6.835  12.609 -0.3362 -1.5578  0.5452
  814TIP3    H223858   4.302   6.777  12.548 -0.2522 -2.8801  1.9460
  815TIP3   OH223859   5.822   1.684  10.935  0.0640 -0.0937 -0.1990
  815TIP3    H123860   5.794   1.754  10.876  0.3922  1.3265  1.2976
  815TIP3    H223861   5.918   1.691  10.936  0.2649 -1.9777 -1.7119
  816TIP3   OH223862   1.729   2.010  10.749  0.3150  0.2524  1.0334
  816TIP3    H123863   1.677   1.987  10.825 -0.6131 -1.0809  0.0148
  816TIP3    H223864   1.792   1.939  10.740 -1.6174 -1.2768 -1.2599
  817TIP3   OH223865   2.720   0.687  10.727 -0.3752  0.2975  0.1501
  817TIP3    H123866   2.702   0.779  10.745 -1.1651 -0.2926  2.5867
  817TIP3    H223867   2.641   0.655  10.683  0.8070  1.2920 -2.8268
  818TIP3   OH223868   5.555   1.812  11.211  0.4318  0.1494 -0.3516
  818TIP3    H123869   5.489   1.781  11.149 -0.2646 -1.0666  0.9596
  818TIP3    H223870   5.518   1.893  11.246 -0.0589 -0.1541 -0.1484
  819TIP3   OH223871   4.795   0.451  10.015  0.7065 -0.1875  0.4764
  819TIP3    H123872   4.766   0.363   9.989  1.5840 -0.2845 -0.2113
  819TIP3    H223873   4.869   0.470   9.957  1.2508  0.5393  1.3857
  820TIP3   OH223874   2.707   7.286  13.856 -0.1024  0.2891  0.0944
  820TIP3    H123875   2.730   7.264  13.766 -0.9386 -0.2870  0.0035
  820TIP3    H223876   2.651   7.213  13.884  3.1347 -1.4411  2.3378
  821TIP3   OH223877   3.915   1.146  13.661  0.2460 -0.1229  0.0933
  821TIP3    H123878   3.925   1.233  13.699  0.1002 -0.1352  0.1587
  821TIP3    H223879   3.895   1.162  13.569  2.6464 -0.1215 -0.4469
  822TIP3   OH223880   4.807   0.722  10.781  0.1006 -0.3987 -0.3006
  822TIP3    H123881   4.813   0.629  10.762  1.7009 -0.0086 -1.8089
  822TIP3    H223882   4.867   0.736  10.855  0.1436 -0.4939 -0.3174
  823TIP3   OH223883   5.133   7.021  12.567  0.3704  0.1276 -0.0292
  823TIP3    H123884   5.158   6.931  12.587 -1.2302 -0.2519  0.3210
  823TIP3    H223885   5.191   7.047  12.496  1.5092 -0.8363  0.5362
  824TIP3   OH223886   5.877   0.761   9.886 -0.3304  0.0340  0.2172
  824TIP3    H123887   5.811   0.774   9.955  1.0980  0.9596  1.4272
  824TIP3    H223888   5.854   0.676   9.848 -2.1455  0.2725  0.6970
  825TIP3   OH223889   2.725   0.653  13.063  0.5298 -0.2785  0.2349
  825TIP3    H123890   2.807   0.694  13.092  1.6429 -0.9867 -1.7861
  825TIP3    H223891   2.731   0.653  12.967 -1.9461 -0.1652  0.0426
  826TIP3   OH223892   3.290   1.887  10.018  0.4934 -0.0648 -0.0795
  826TIP3    H123893   3.354   1.818   9.999  1.3631  0.6527  0.2179
  826TIP3    H223894   3.218   1.842  10.061  0.2171 -1.0959 -1.5736
  827TIP3   OH223895   5.905   2.142  11.200 -0.0644 -0.2069  0.2398
  827TIP3    H123896   5.954   2.182  11.127  0.5715  1.2264  1.4294
  827TIP3    H223897   5.904   2.049  11.179  1.3798 -0.0064 -0.8789
  828TIP3   OH223898   5.204   0.588  10.073 -0.0719  0.1208 -0.2980
  828TIP3    H123899   5.291   0.606  10.109 -0.7234  0.5018  1.1409
  828TIP3    H223900   5.210   0.500  10.037  0.7692 -0.0583  0.2800
  829TIP3   OH223901   3.270   0.879  11.257 -0.2093 -0.6174  0.2616
  829TIP3    H123902   3.308   0.809  11.310 -0.0907 -2.1435 -1.7826
  829TIP3    H223903   3.209   0.835  11.198 -1.3366  1.1980  0.0059
  830TIP3   OH223904   4.943   1.214  10.568  0.6144 -0.0017  0.2311
  830TIP3    H123905   4.888   1.272  10.621  1.4984  0.6779  0.4091
  830TIP3    H223906   4.894   1.132  10.564 -0.4660  0.6300  0.2988
  831TIP3   OH223907   4.916   1.368  12.777 -0.1565  0.2980  0.0646
  831TIP3    H123908   4.821   1.367  12.763 -0.0266 -1.5830 -0.7857
  831TIP3    H223909   4.938   1.461  12.784 -2.1851  0.7342  1.1825
  832TIP3   OH223910   5.876   0.045  11.281  0.6513 -0.4611 -0.3206
  832TIP3    H123911   5.926   0.127  11.284  1.0391 -0.7060  0.0687
  832TIP3    H223912   5.939  -0.021  11.253  0.6207 -0.8222  0.4360
  833TIP3   OH223913   5.251   0.528  10.616  0.3157  0.4451 -0.5223
  833TIP3    H123914   5.192   0.594  10.578 -1.6849 -0.4268  1.0002
  833TIP3    H223915   5.300   0.576  10.682 -0.1555  0.7256 -0.3699
  834TIP3   OH223916   6.778   6.145  10.667 -0.6262 -0.0280 -0.1094
  834TIP3    H123917   6.782   6.195  10.749 -0.3872  1.1967 -0.8596
  834TIP3    H223918   6.727   6.067  10.689 -0.9702  0.5267  1.0827
  835TIP3   OH223919   5.005   5.249  11.903  0.2296  0.2125  0.2122
  835TIP3    H123920   4.942   5.288  11.843 -2.1830 -0.3901  2.2777
  835TIP3    H223921   5.026   5.164  11.864  1.2145  1.1662 -1.4083
  836TIP3   OH223922   4.690   7.093  11.898 -0.0540  0.3000 -0.4162
  836TIP3    H123923   4.698   7.188  11.907 -0.0960  0.1544  1.3228
  836TIP3    H223924   4.779   7.061  11.914 -0.2197 -0.0056 -0.1053
  837TIP3   OH223925   4.311   6.755  10.153 -0.9786  0.1194 -0.5466
  837TIP3    H123926   4.397   6.744  10.113 -0.9062 -1.2042 -0.0618
  837TIP3    H223927   4.281   6.841  10.124  0.8251  0.9044 -0.1148
  838TIP3   OH223928   4.580   0.746  13.808  0.1157 -0.0919 -0.1053
  838TIP3    H123929   4.654   0.685  13.810  0.2934  0.1299  0.1579
  838TIP3    H223930   4.621   0.833  13.808 -0.1454  0.0301  0.0339
  839TIP3   OH223931   3.948   0.116  10.406 -0.4194  0.2976 -0.3830
  839TIP3    H123932   3.905   0.191  10.364 -1.2148 -0.3484 -0.7174
  839TIP3    H223933   3.876   0.061  10.436  0.0237  1.7519  3.6966
  840TIP3   OH223934   5.388   7.224  11.324 -0.3492  0.4845 -0.0384
  840TIP3    H123935   5.426   7.170  11.255  1.1684  1.0827  0.3044
  840TIP3    H223936   5.306   7.181  11.346  0.1227 -0.8362 -0.8196
  841TIP3   OH223937   6.050   6.857  10.654 -1.0848 -0.6072  0.1819
  841TIP3    H123938   6.010   6.926  10.706 -1.6304  1.0483 -2.3171
  841TIP3    H223939   5.989   6.842  10.582  2.0041  0.9854 -2.9259
  842TIP3   OH223940   4.302   6.623   9.889  0.5673  0.4366 -0.6747
  842TIP3    H123941   4.260   6.705   9.865 -0.0880 -0.4019 -2.5149
  842TIP3    H223942   4.355   6.644   9.966 -0.2849  2.3620 -0.5942
  843TIP3   OH223943   5.784   7.194  10.205 -0.1290 -0.1089 -0.1481
  843TIP3    H123944   5.825   7.253  10.142 -0.2002 -0.1442 -0.2280
  843TIP3    H223945   5.807   7.230  10.291  2.0343 -1.4210 -0.1279
  844TIP3   OH223946   4.138   6.659  11.150  0.1914  0.2233  0.3163
  844TIP3    H123947   4.194   6.736  11.141 -1.2015  1.3158  0.7732
  844TIP3    H223948   4.165   6.620  11.233  0.6200  0.4510  0.2872
  845TIP3   OH223949   5.081   6.998  12.181  0.3197  0.3253  0.6705
  845TIP3    H123950   5.102   6.905  12.172 -1.7583 -0.2011  1.0851
  845TIP3    H223951   5.152   7.033  12.236  0.2331 -1.3514  1.8905
  846TIP3   OH223952   3.653   0.821  10.157 -0.5948 -0.2131  0.8570
  846TIP3    H123953   3.733   0.815  10.209 -0.2245 -0.4902  0.2604
  846TIP3    H223954   3.677   0.876  10.082 -0.9647 -0.2849  0.6860
  847TIP3   OH223955   3.455   0.204  11.900 -0.1731 -0.1459  0.0509
  847TIP3    H123956   3.461   0.242  11.813 -0.0905 -0.1378  0.0602
  847TIP3    H223957   3.515   0.256  11.954 -1.5022  0.9270  0.5085
  848TIP3   OH223958   5.038   0.788  11.733 -0.4038  0.0723  0.8377
  848TIP3    H123959   5.119   0.837  11.745 -2.0863  2.7875  1.5270
  848TIP3    H223960   4.973   0.837  11.783 -2.4791 -2.0620  0.3113
  849TIP3   OH223961   4.253   5.906  11.979  0.2409 -0.2134  0.2896
  849TIP3    H123962   4.314   5.878  11.911  0.8358  1.8664 -0.0758
  849TIP3    H223963   4.167   5.904  11.937  0.3527 -0.9048  0.0974
  850TIP3   OH223964   5.796   0.334  11.066  0.4530 -0.2854  0.2894
  850TIP3    H123965   5.798   0.373  10.979 -2.5353 -1.4175 -0.3636
  850TIP3    H223966   5.721   0.375  11.110  1.7501  0.0699  2.2615
  851TIP3   OH223967   6.481   6.691   9.965  0.0608 -0.2082  0.6998
  851TIP3    H123968   6.514   6.717   9.879 -0.7425 -2.0410 -0.1866
  851TIP3    H223969   6.557   6.654  10.010  0.2191 -0.3713  0.3049
  852TIP3   OH223970   7.206   2.715  11.954  0.1897 -0.1625 -0.0802
  852TIP3    H123971   7.256   2.781  12.003  0.2677 -0.8511  0.7995
  852TIP3    H223972   7.144   2.765  11.902  1.4855  0.6902 -0.8360
  853TIP3   OH223973   4.071   1.652  12.745 -0.4586 -0.2063  0.1300
  853TIP3    H123974   4.020   1.595  12.688 -0.8547  1.1040 -0.8583
  853TIP3    H223975   4.022   1.653  12.828 -0.5138 -1.1785  0.1113
  854TIP3   OH223976   4.678   6.818  10.218  0.7503 -0.0578 -0.8195
  854TIP3    H123977   4.719   6.901  10.193  3.6047 -1.1625 -0.0502
  854TIP3    H223978   4.731   6.751  10.173  1.4302 -1.6719  2.2308
  855TIP3   OH223979   7.066   0.200  11.765  0.0713  0.0531  0.4840
  855TIP3    H123980   7.017   0.160  11.837 -1.4689  0.7940 -0.1338
  855TIP3    H223981   7.025   0.166  11.686 -0.3853  1.7980 -0.0474
  856TIP3   OH223982   5.774   6.507  10.862  0.3280  0.0785  0.2821
  856TIP3    H123983   5.754   6.569  10.792  2.5208 -0.2181 -0.6488
  856TIP3    H223984   5.700   6.447  10.862 -0.8187  1.4459 -0.2126
  857TIP3   OH223985   4.497   7.049  10.791 -0.3568  0.6672 -0.5713
  857TIP3    H123986   4.414   7.021  10.752 -0.4204  0.4478 -0.2766
  857TIP3    H223987   4.483   7.040  10.885 -1.2437  4.0460 -0.3166
  858TIP3   OH223988   5.139   1.208  11.864  0.5455  0.7527  0.3016
  858TIP3    H123989   5.092   1.236  11.785  0.9945  2.3077  0.5686
  858TIP3    H223990   5.208   1.274  11.875  1.1197 -0.0278  1.4177
  859TIP3   OH223991   3.282   0.412  11.622 -0.4173 -0.8400  0.5561
  859TIP3    H123992   3.367   0.368  11.623  1.6697  2.8949 -2.0624
  859TIP3    H223993   3.243   0.388  11.537 -1.0052 -0.7820  0.8039
  860TIP3   OH223994   4.051   0.283  10.997 -0.3728 -0.6057  0.1542
  860TIP3    H123995   3.994   0.319  10.928  0.2686  0.3980  0.1421
  860TIP3    H223996   3.992   0.230  11.051 -1.2053 -0.0930 -0.2316
  861TIP3   OH223997   5.385   1.270  10.513 -0.4120  0.1524  0.0972
  861TIP3    H123998   5.396   1.288  10.606  0.2197  0.9392 -0.1305
  861TIP3    H223999   5.433   1.340  10.468  0.3884 -0.9461 -0.8067
  862TIP3   OH224000   5.047   1.866  10.884 -0.0667  0.0434  0.6017
  862TIP3    H124001   5.058   1.951  10.925 -0.0771 -1.0058  2.8281
  862TIP3    H224002   5.129   1.853  10.836  0.3004  0.9076  0.9768
  863TIP3   OH224003   5.405   0.985  10.805  0.0409  0.0185 -0.2906
  863TIP3    H124004   5.399   0.893  10.777 -2.0390  0.2822 -0.7453
  863TIP3    H224005   5.344   1.031  10.748 -2.0066  1.0507  2.6392
  864TIP3   OH224006   6.639   0.712  11.197  0.3906  0.1427  0.2399
  864TIP3    H124007   6.572   0.699  11.130  1.3736  0.0484 -0.7439
  864TIP3    H224008   6.649   0.807  11.203  0.5953  0.1401 -0.0514
  865TIP3   OH224009   3.957   0.187  11.772 -0.3439  0.4338 -0.2184
  865TIP3    H124010   3.886   0.124  11.783  0.7073 -0.8182 -0.4917
  865TIP3    H224011   4.027   0.155  11.829 -0.8148  2.9568  1.9149
  866TIP3   OH224012   4.538   6.678  10.003 -0.6338  0.0410  0.2872
  866TIP3    H124013   4.626   6.684  10.040 -1.6372  0.7585  2.6026
  866TIP3    H224014   4.551   6.633   9.919  1.9258  0.1240  0.5945
  867TIP3   OH224015   5.088   0.931  10.416 -0.0390  0.0361 -0.3097
  867TIP3    H124016   5.130   1.011  10.446 -1.3289  0.3257  0.7797
  867TIP3    H224017   5.044   0.896  10.493  0.7439 -1.8867 -0.7008
  868TIP3   OH224018   3.235   2.593  12.066 -0.1108  0.3453  0.1486
  868TIP3    H124019   3.328   2.570  12.064 -0.5256 -1.8139  2.5040
  868TIP3    H224020   3.199   2.554  11.986  0.8207  0.2002 -0.2073
  869TIP3   OH224021   1.643   0.785  11.173  0.3633  0.3350  0.0168
  869TIP3    H124022   1.713   0.758  11.234 -0.7705 -0.7988  0.8361
  869TIP3    H224023   1.593   0.849  11.222  0.0357  0.1503 -0.0747
  870TIP3   OH224024   3.905   1.108  12.655  0.1612  0.3900  0.2961
  870TIP3    H124025   3.849   1.133  12.582  0.7469 -1.2270 -0.7379
  870TIP3    H224026   3.980   1.167  12.648 -1.4296  2.6634  1.7774
  871TIP3   OH224027   6.007   1.370  11.149 -0.1823  0.6025  0.6731
  871TIP3    H124028   6.059   1.318  11.087  0.6125  0.0674  1.7654
  871TIP3    H224029   6.015   1.460  11.118 -0.3124  0.2585 -0.3721
  872TIP3   OH224030   3.595   1.792  10.798  0.1825  0.7450 -0.0262
  872TIP3    H124031   3.664   1.824  10.856  2.1718 -1.2047 -1.2129
  872TIP3    H224032   3.630   1.805  10.710 -1.0001 -0.2115 -0.6609
  873TIP3   OH224033   4.147   1.221  10.923 -0.3766 -0.2246 -0.1093
  873TIP3    H124034   4.142   1.128  10.899  2.7471 -0.1058 -1.4761
  873TIP3    H224035   4.127   1.268  10.842  1.5210  0.2518 -0.3223
  874TIP3   OH224036   3.873   7.258  11.885 -0.5384  0.5926 -0.5197
  874TIP3    H124037   3.929   7.213  11.822  0.2898  2.4832 -1.1828
  874TIP3    H224038   3.889   7.214  11.968  1.2368  0.4861 -0.8902
  875TIP3   OH224039   4.678   7.224  12.746 -0.2445 -0.5274 -0.0190
  875TIP3    H124040   4.739   7.256  12.679  0.3217 -0.2040  0.6454
  875TIP3    H224041   4.635   7.303  12.779  0.9825 -0.4462  1.4517
  876TIP3   OH224042   4.183   1.625  10.574  0.1644  0.1729  0.1727
  876TIP3    H124043   4.093   1.633  10.606 -0.1850 -0.8532 -0.5108
  876TIP3    H224044   4.174   1.578  10.491  1.3023  0.3799 -0.0679
  877TIP3   OH224045   6.106   0.574  10.871  0.4663  0.2108 -0.1077
  877TIP3    H124046   6.179   0.561  10.810  1.7224 -2.2551  1.8775
  877TIP3    H224047   6.028   0.560  10.817  1.4122  2.3341 -2.1299
  878TIP3   OH224048   5.321   0.153  11.509 -0.4116 -0.3817 -0.3791
  878TIP3    H124049   5.255   0.222  11.503  0.7718  0.7132 -1.0067
  878TIP3    H224050   5.276   0.074  11.481 -2.5851 -0.4360  3.0232
  879TIP3   OH224051   4.660   0.410  12.625 -0.0528  0.0617  0.0040
  879TIP3    H124052   4.707   0.486  12.658  0.1568  0.4987 -1.2885
  879TIP3    H224053   4.711   0.380  12.549 -1.8016  0.5177 -1.3895
  880TIP3   OH224054   4.128   6.803  10.349 -0.1400  0.3422  0.0437
  880TIP3    H124055   4.073   6.876  10.320  0.0059  0.5361  0.2521
  880TIP3    H224056   4.191   6.789  10.278  0.8356  1.4474  0.6785
  881TIP3   OH224057   6.044   0.642  12.742 -0.6956 -0.0949  0.6985
  881TIP3    H124058   5.973   0.586  12.712 -1.2352  0.8105  0.2563
  881TIP3    H224059   6.092   0.589  12.806  0.2170 -1.8841 -1.4313
  882TIP3   OH224060   5.369   5.379  11.696 -0.4151  0.0620  0.1816
  882TIP3    H124061   5.434   5.438  11.656 -1.2535  1.8665  1.3773
  882TIP3    H224062   5.421   5.321  11.752  0.6246 -1.6016 -2.3956
  883TIP3   OH224063   5.279   1.134  10.302  0.0061  0.3920  0.0912
  883TIP3    H124064   5.301   1.152  10.393 -0.4069 -1.2387  0.5234
  883TIP3    H224065   5.319   1.049  10.283 -1.8808 -0.3923 -0.5216
  884TIP3   OH224066   4.983   6.868  10.467 -0.1409  0.3683  0.3251
  884TIP3    H124067   5.027   6.950  10.446 -0.2996  0.1310 -0.9659
  884TIP3    H224068   4.890   6.889  10.463 -0.1798  0.4123  1.2129
  885TIP3   OH224069   4.204   6.940  10.786 -0.2426 -0.3659 -0.4523
  885TIP3    H124070   4.142   6.884  10.832  1.1138 -0.1397  1.7761
  885TIP3    H224071   4.164   6.956  10.701 -2.7452 -1.0514  0.5343
  886TIP3   OH224072   5.883   7.103  10.432 -0.1300 -0.6604 -0.6025
  886TIP3    H124073   5.908   7.021  10.474 -0.4374 -0.3133  0.2743
  886TIP3    H224074   5.966   7.149  10.417 -0.1728  0.3540  2.0101
  887TIP3   OH224075   5.458   0.035  11.833  0.5859 -0.0052  0.1802
  887TIP3    H124076   5.422   0.122  11.849 -2.1844 -0.6602 -2.2177
  887TIP3    H224077   5.504   0.043  11.750  0.0939 -0.9025 -0.1756
  888TIP3   OH224078   5.273   1.365  11.536  0.5473  0.3400 -0.9265
  888TIP3    H124079   5.189   1.359  11.491 -0.3261  0.0800  0.6890
  888TIP3    H224080   5.327   1.297  11.497 -1.2293 -1.9903  0.5463
  889TIP3   OH224081   2.918   6.880  10.483 -0.3667  0.1144 -0.0045
  889TIP3    H124082   2.838   6.887  10.535 -0.5351 -0.6896 -0.1404
  889TIP3    H224083   2.949   6.791  10.499  0.1235  0.1946 -0.4972
  890TIP3   OH224084   3.528   2.927  12.703 -0.0969  0.3975  0.1278
  890TIP3    H124085   3.454   2.872  12.727  0.3588 -0.0337  0.5533
  890TIP3    H224086   3.493   3.016  12.702 -1.0433  0.0355 -1.3682
  891TIP3   OH224087   4.227   2.307  10.893 -0.0819  0.2312 -0.3651
  891TIP3    H124088   4.197   2.346  10.975 -0.2841  0.6975 -0.6572
  891TIP3    H224089   4.263   2.380  10.843  0.4608 -0.1273 -0.5026
  892TIP3   OH224090   4.572   2.810  12.081 -0.2901 -0.1558  0.0669
  892TIP3    H124091   4.605   2.721  12.064 -1.8043 -1.0268  1.5052
  892TIP3    H224092   4.641   2.868  12.049  0.8293 -1.8615 -0.6777
  893TIP3   OH224093   4.217   3.477  11.225  0.5675 -0.3017  0.2729
  893TIP3    H124094   4.239   3.547  11.164  1.4913 -0.9590 -0.1531
  893TIP3    H224095   4.167   3.415  11.173  0.8172 -0.5569  0.3347
  894TIP3   OH224096   4.299   1.352  11.138  0.1199 -0.6266  0.0319
  894TIP3    H124097   4.278   1.358  11.045  0.3574  0.7989  0.0682
  894TIP3    H224098   4.232   1.405  11.181  0.6346 -0.4204  0.5877
  895TIP3   OH224099   5.133   1.508  10.667 -0.3285 -0.4388  0.1982
  895TIP3    H124100   5.220   1.471  10.683  0.0215  0.5608  0.6776
  895TIP3    H224101   5.119   1.567  10.741 -0.7049  0.6670 -0.7473
  896TIP3   OH224102   4.711   0.622  10.202  0.6095 -0.1783  0.1485
  896TIP3    H124103   4.684   0.566  10.275 -2.2820  0.5289 -0.3219
  896TIP3    H224104   4.769   0.567  10.150 -1.3415 -2.3996  0.2682
  897TIP3   OH224105   5.600   6.288  10.848  0.3301  0.6499 -0.0395
  897TIP3    H124106   5.570   6.295  10.758  0.8323 -0.2444 -0.2805
  897TIP3    H224107   5.521   6.268  10.899 -0.0649  1.8046 -0.1854
  898TIP3   OH224108   2.804   1.722  12.175 -0.5229  0.0955  0.2377
  898TIP3    H124109   2.889   1.686  12.199 -1.6651 -1.5148  1.9879
  898TIP3    H224110   2.766   1.750  12.258 -1.6951  0.7993 -0.5333
  899TIP3   OH224111   4.725   1.196  11.518 -0.6400 -0.6952  0.2451
  899TIP3    H124112   4.642   1.239  11.498 -0.2411 -0.1762 -0.3341
  899TIP3    H224113   4.701   1.115  11.562 -1.3965  0.5894  2.2605
  900TIP3   OH224114   4.723   7.125  11.131 -0.1402 -0.2572  0.0066
  900TIP3    H124115   4.645   7.078  11.099 -0.1335  0.3615 -0.9531
  900TIP3    H224116   4.694   7.216  11.137  0.8579  0.1922 -1.5889
  901TIP3   OH224117   4.654   0.298  10.886  0.2911  0.2999 -0.3902
  901TIP3    H124118   4.645   0.226  10.948  1.1539  1.1037  0.6871
  901TIP3    H224119   4.571   0.300  10.838 -1.2381  0.9973  2.1754
  902TIP3   OH224120   6.004   1.289  11.895  0.0713  0.0515 -0.1425
  902TIP3    H124121   5.984   1.381  11.915 -1.6539 -0.2679 -0.3183
  902TIP3    H224122   5.920   1.243  11.906  0.4279 -1.1455 -2.1772
  903TIP3   OH224123   5.713   0.345  10.767 -0.3834  0.3032  0.0613
  903TIP3    H124124   5.711   0.250  10.762  1.0030  0.2863 -0.4014
  903TIP3    H224125   5.627   0.373  10.736 -0.8756 -0.7978  0.4056
  904TIP3   OH224126   5.147   2.629  12.619 -0.2754 -0.2771 -0.0815
  904TIP3    H124127   5.105   2.571  12.682 -1.0287  0.4651  0.1002
  904TIP3    H224128   5.092   2.623  12.541 -0.1356 -0.1054 -0.1919
  905TIP3   OH224129   2.500   3.508  12.366  0.7231 -0.1589 -0.3273
  905TIP3    H124130   2.584   3.533  12.327  1.2249  0.4662  1.1360
  905TIP3    H224131   2.513   3.417  12.394  1.7886  0.7158  2.1877
  906TIP3   OH224132   4.173   0.169  11.962 -0.1740  0.3708 -0.9013
  906TIP3    H124133   4.189   0.160  12.056 -0.6216  0.6297 -0.8011
  906TIP3    H224134   4.255   0.140  11.921 -0.0892 -0.0420 -0.4429
  907TIP3   OH224135   4.928   2.283  11.204  0.2240 -0.1865  0.0949
  907TIP3    H124136   4.833   2.271  11.208  0.2604 -0.0375  1.7686
  907TIP3    H224137   4.962   2.196  11.185 -0.2094 -0.3376 -0.0119
  908TIP3   OH224138   1.319   0.681  11.316  0.1120 -0.0596 -0.8956
  908TIP3    H124139   1.313   0.685  11.411 -0.3829 -1.2020 -0.8699
  908TIP3    H224140   1.358   0.765  11.291 -1.5068  1.0228  0.1487
  909TIP3   OH224141   5.116   0.642  10.352 -0.1708 -0.5673  0.2292
  909TIP3    H124142   5.110   0.640  10.257  0.4552 -2.4194  0.2084
  909TIP3    H224143   5.151   0.729  10.372 -1.8180  0.4232 -1.1152
  910TIP3   OH224144   6.007   6.862  11.147 -0.5386 -0.4046  0.6156
  910TIP3    H124145   5.937   6.802  11.172 -0.8049 -0.6697 -0.7149
  910TIP3    H224146   6.043   6.824  11.067 -1.7797  2.0282 -1.1679
  911TIP3   OH224147   4.008   3.034  13.916  0.2438 -0.6168 -0.1991
  911TIP3    H124148   4.079   3.045  13.853  0.9079  0.1863  0.6799
  911TIP3    H224149   3.991   3.122  13.948 -0.2713 -0.9901  0.5609
  912TIP3   OH224150   3.625   0.964  10.843  0.1411 -0.6711  0.2295
  912TIP3    H124151   3.588   0.892  10.793 -1.5431 -1.2043  2.1683
  912TIP3    H224152   3.588   0.954  10.931  1.1644  1.5976  0.9683
  913TIP3   OH224153   3.930   1.950  13.302  0.1030  0.2871 -0.3133
  913TIP3    H124154   3.965   1.893  13.370 -0.0035  0.7031  0.0893
  913TIP3    H224155   3.970   1.918  13.221  1.5469  0.8725  0.1549
  914TIP3   OH224156   6.206   2.511  10.548  0.3337  0.3233 -0.4086
  914TIP3    H124157   6.203   2.584  10.609  1.0145  0.2668 -0.3020
  914TIP3    H224158   6.292   2.472  10.561 -0.2945 -0.9324  0.0322
  915TIP3   OH224159   4.816   2.154  10.201  0.2349  0.3728  0.0799
  915TIP3    H124160   4.879   2.121  10.137  2.4928 -0.4960  2.7036
  915TIP3    H224161   4.735   2.164  10.151  1.4689 -2.0084 -2.5023
  916TIP3   OH224162   4.423   1.903  13.020  0.2450 -0.1497  0.1114
  916TIP3    H124163   4.437   1.977  13.079 -0.0106  0.0792 -0.1163
  916TIP3    H224164   4.357   1.849  13.064  0.9888 -0.6349  0.6386
  917TIP3   OH224165   5.615   0.806  10.443 -0.0586  0.5150 -0.5032
  917TIP3    H124166   5.671   0.730  10.429 -0.8736  0.3291 -2.8944
  917TIP3    H224167   5.675   0.877  10.466  0.7730 -0.6133  0.9420
  918TIP3   OH224168   5.255   2.593  11.819  0.2297  0.9380  0.3801
  918TIP3    H124169   5.181   2.622  11.767  1.7845 -0.8595 -2.9804
  918TIP3    H224170   5.329   2.645  11.787  2.2012 -3.5445 -2.8559
  919TIP3   OH224171   5.106   1.576  10.942  1.4427 -0.1748  0.5837
  919TIP3    H124172   5.180   1.538  10.990  1.2574 -2.1766 -0.7067
  919TIP3    H224173   5.100   1.666  10.976  1.6486 -1.3577  3.9294
  920TIP3   OH224174   5.749   1.057  10.791  0.8657 -0.2676 -0.3964
  920TIP3    H124175   5.837   1.090  10.776  1.2628 -0.7145  0.8665
  920TIP3    H224176   5.714   1.112  10.861  0.6205 -0.9194  0.0020
  921TIP3   OH224177   4.685   1.252  10.696  0.3479  0.2858  0.3049
  921TIP3    H124178   4.592   1.255  10.716  0.3401  1.0728  0.1713
  921TIP3    H224179   4.706   1.159  10.690 -0.5762  0.1177 -0.3276
  922TIP3   OH224180   3.219   2.190  12.669 -0.0430  0.3433 -0.6838
  922TIP3    H124181   3.188   2.229  12.586  0.2139 -0.4370 -1.1485
  922TIP3    H224182   3.186   2.100  12.666  0.8646  0.0053 -0.4165
  923TIP3   OH224183   5.420   0.645  10.836  0.6776  0.2910 -0.0619
  923TIP3    H124184   5.382   0.690  10.912  1.3263 -1.2395  1.1981
  923TIP3    H224185   5.479   0.580  10.874  1.7604  0.1600 -1.9157
  924TIP3   OH224186   5.799   2.145  10.703  0.1855  0.1750  0.1410
  924TIP3    H124187   5.868   2.105  10.649  0.8163  0.8386  0.4544
  924TIP3    H224188   5.764   2.072  10.755  1.2970  0.0162  0.6733
  925TIP3   OH224189   3.835   1.776  12.316  0.2422  0.4736 -0.2845
  925TIP3    H124190   3.754   1.822  12.340 -0.1091 -0.5277  0.4888
  925TIP3    H224191   3.816   1.684  12.333  0.9779  0.0417 -1.7022
  926TIP3   OH224192   5.586   2.049  11.568  0.0183 -0.1892  0.2112
  926TIP3    H124193   5.619   2.078  11.653 -0.9819 -0.0275  0.5517
  926TIP3    H224194   5.505   2.002  11.588 -1.1441  1.3251 -0.7780
  927TIP3   OH224195   0.157   1.826  11.398  0.0023 -0.7187 -0.3085
  927TIP3    H124196   0.198   1.835  11.313 -0.2971 -0.5147 -0.4326
  927TIP3    H224197   0.095   1.900  11.403  1.3407  0.3621  0.8396
  928TIP3   OH224198   4.545   6.540  10.262  0.3515 -0.2094 -0.7920
  928TIP3    H124199   4.619   6.512  10.207  0.3448 -0.8908 -0.4514
  928TIP3    H224200   4.560   6.634  10.275  1.3388 -0.4034 -0.4638
  929TIP3   OH224201   2.594   0.700  11.145  0.1136  0.5663  0.2271
  929TIP3    H124202   2.674   0.648  11.142 -1.0448 -1.4293  2.5084
  929TIP3    H224203   2.541   0.669  11.071  1.5268  2.1260 -1.4872
  930TIP3   OH224204   3.882   3.349  12.918 -1.1745  0.1847 -0.1171
  930TIP3    H124205   3.873   3.352  13.013  1.5261 -0.9132  0.2216
  930TIP3    H224206   3.848   3.264  12.892  1.2245 -0.9303  0.2952
  931TIP3   OH224207   4.004   1.670  13.412  0.4320  0.1905 -0.2209
  931TIP3    H124208   3.915   1.666  13.380  0.5765  0.0357 -0.6012
  931TIP3    H224209   3.995   1.686  13.506  0.0162  0.7677 -0.3608
  932TIP3   OH224210   5.627   0.307  12.269 -0.8993  0.1351  0.0744
  932TIP3    H124211   5.700   0.368  12.260 -1.0674  0.1027 -1.6344
  932TIP3    H224212   5.661   0.224  12.236 -0.9636 -0.4797  1.5342
  933TIP3   OH224213   5.234   0.052  10.821 -0.0822  0.2933 -0.4104
  933TIP3    H124214   5.319   0.024  10.787 -1.4557 -4.3936 -0.3241
  933TIP3    H224215   5.191   0.094  10.746  0.6302 -1.3710 -1.7967
  934TIP3   OH224216   3.371   1.976  15.368  0.1710 -0.0634  0.0203
  934TIP3    H124217   3.307   2.043  15.345  0.5686  0.5404  0.6651
  934TIP3    H224218   3.424   1.964  15.289  1.2868  1.7290  0.4600
  935TIP3   OH224219   3.286   2.948  11.028 -0.0282 -0.5775 -0.3986
  935TIP3    H124220   3.316   2.926  10.940  0.0171 -0.4420 -0.4182
  935TIP3    H224221   3.243   3.033  11.018 -0.8016 -0.9698 -0.4477
  936TIP3   OH224222   3.694   0.285  14.798 -0.3873 -0.4982 -0.0156
  936TIP3    H124223   3.778   0.276  14.753 -0.4884  2.0935 -0.8157
  936TIP3    H224224   3.629   0.267  14.730 -0.4986 -0.3031  0.0396
  937TIP3   OH224225   5.518   6.171  12.097  0.7640  0.0437 -0.0737
  937TIP3    H124226   5.597   6.211  12.134  1.3795 -0.3717 -0.9380
  937TIP3    H224227   5.525   6.187  12.003 -0.7931  1.0764 -0.0183
  938TIP3   OH224228   3.978   0.393  10.023 -0.1485 -0.1728 -0.0541
  938TIP3    H124229   3.971   0.317   9.966  1.7163  0.6599 -1.4802
  938TIP3    H224230   3.923   0.460   9.981 -0.1588 -0.1090  0.0612
  939TIP3   OH224231   4.904   6.485  11.255  0.4278 -0.5753  0.7065
  939TIP3    H124232   4.833   6.451  11.201  0.4559 -0.2625  0.4738
  939TIP3    H224233   4.953   6.544  11.197  0.9443 -0.8764  0.8283
  940TIP3   OH224234   5.716   7.287  11.977  0.1353 -0.2569 -0.1673
  940TIP3    H124235   5.693   7.370  11.935  0.2913 -1.0392 -1.8366
  940TIP3    H224236   5.665   7.221  11.930 -0.4357 -1.0636  1.5182
  941TIP3   OH224237   4.075   0.234  11.369  0.2826 -0.1398 -0.3712
  941TIP3    H124238   3.998   0.240  11.313  0.6951 -0.8217 -1.0198
  941TIP3    H224239   4.071   0.145  11.405  1.6502 -0.7674 -1.7137
  942TIP3   OH224240   2.055   1.386  12.589 -0.4800  0.0338  0.2235
  942TIP3    H124241   2.096   1.308  12.550  0.4923 -0.4550  2.1686
  942TIP3    H224242   2.117   1.456  12.571 -0.8073  0.1429 -0.5129
  943TIP3   OH224243   5.766   3.591  12.191  0.5896 -0.0885 -0.5458
  943TIP3    H124244   5.700   3.655  12.165  1.1390  0.0470 -1.6325
  943TIP3    H224245   5.783   3.540  12.112  0.7346 -1.0658  0.1066
  944TIP3   OH224246   4.924   7.038  13.029 -0.1840 -0.7881 -0.1699
  944TIP3    H124247   4.914   7.041  12.934 -2.9017  1.2206  0.1222
  944TIP3    H224248   4.857   6.976  13.057  1.3182 -2.1980  0.4019
  945TIP3   OH224249   4.292   1.325  11.987 -0.0586 -0.0545 -0.3726
  945TIP3    H124250   4.231   1.347  11.917 -3.4051 -0.9223  2.1259
  945TIP3    H224251   4.320   1.410  12.021 -0.5909  0.3702 -0.9671
  946TIP3   OH224252   5.854   2.625  12.391  0.2400  0.3753  0.6385
  946TIP3    H124253   5.815   2.549  12.434 -0.7099 -0.2385 -1.2501
  946TIP3    H224254   5.810   2.700  12.430  0.9833 -0.0400  2.3175
  947TIP3   OH224255   5.402   6.840  11.085 -0.2085 -0.2151 -0.4944
  947TIP3    H124256   5.349   6.833  11.164  0.0241  2.3112 -0.0491
  947TIP3    H224257   5.339   6.849  11.014 -0.4150  0.4150 -0.2372
  948TIP3   OH224258   3.752   2.795  10.865 -0.4404 -0.1348 -0.4474
  948TIP3    H124259   3.842   2.810  10.837 -0.4455 -2.2940 -1.7082
  948TIP3    H224260   3.745   2.840  10.949  0.9974  2.3438 -1.6023
  949TIP3   OH224261   5.329   1.492  11.092 -0.1095  0.6812 -0.4706
  949TIP3    H124262   5.342   1.587  11.091  0.9756  0.5509  0.5432
  949TIP3    H224263   5.417   1.456  11.105 -0.6069 -0.4415 -0.1814
  950TIP3   OH224264   3.474   0.393  11.252 -0.1357 -0.2991 -0.1490
  950TIP3    H124265   3.460   0.337  11.176 -0.8182 -0.7537  0.3066
  950TIP3    H224266   3.396   0.380  11.306 -0.9839  2.1512 -0.6933
  951TIP3   OH224267   3.192   1.366  12.565 -0.1758 -0.4335 -0.5497
  951TIP3    H124268   3.186   1.310  12.643  0.3717  1.0673  0.5791
  951TIP3    H224269   3.102   1.393  12.548  0.0676  1.9638  1.6115
  952TIP3   OH224270   3.516   2.923  10.443  0.0784 -0.0363 -0.2831
  952TIP3    H124271   3.492   2.989  10.508 -1.8615 -0.0198 -0.9873
  952TIP3    H224272   3.570   2.861  10.492  1.2493  1.6294  0.5768
  953TIP3   OH224273   3.404   6.831  11.636  0.3681  0.0435 -0.0905
  953TIP3    H124274   3.356   6.822  11.553  0.5398 -1.6915 -0.0029
  953TIP3    H224275   3.487   6.873  11.610  1.0493 -1.8320 -1.0318
  954TIP3   OH224276   5.847   1.492  12.262  0.1551 -0.0842 -0.0868
  954TIP3    H124277   5.884   1.492  12.174  0.5123 -1.1110  0.0593
  954TIP3    H224278   5.824   1.400  12.278  1.3586 -0.1388  1.4173
  955TIP3   OH224279   5.829   6.184  12.602 -0.1521 -0.1485  0.0264
  955TIP3    H124280   5.858   6.139  12.523  0.7050  0.9542 -0.2981
  955TIP3    H224281   5.736   6.202  12.587  0.3021  1.1870 -1.2755
  956TIP3   OH224282   3.379   1.644  10.267 -0.7216 -0.2675  0.2413
  956TIP3    H124283   3.433   1.648  10.188 -0.9305  1.1040  0.1522
  956TIP3    H224284   3.430   1.590  10.328  0.4650  0.4869 -0.0571
  957TIP3   OH224285   3.576   7.053  10.141  0.4000 -0.5901  0.4269
  957TIP3    H124286   3.510   7.121  10.152  1.3153  0.0205  2.3829
  957TIP3    H224287   3.532   6.973  10.169 -0.6583 -0.8430 -1.8159
  958TIP3   OH224288   5.365   6.334  11.027  0.0835  0.0214  0.2561
  958TIP3    H124289   5.321   6.415  10.999  1.9899  1.2180  0.6705
  958TIP3    H224290   5.396   6.353  11.115  2.2929 -0.4480 -0.4042
  959TIP3   OH224291   5.672   6.579   9.616 -0.4655  0.0669 -0.2370
  959TIP3    H124292   5.653   6.560   9.708  2.1973 -1.9440 -0.0574
  959TIP3    H224293   5.759   6.617   9.616 -1.3068  2.0967 -1.7605
  960TIP3   OH224294   4.703   6.906  10.500  0.1863 -0.0789 -0.1567
  960TIP3    H124295   4.634   6.843  10.479 -1.2805  1.1085  0.9744
  960TIP3    H224296   4.688   6.979  10.440 -0.0860  0.5594  0.6825
  961TIP3   OH224297   3.703   1.751  13.630  0.5253  0.0486  0.0740
  961TIP3    H124298   3.764   1.712  13.693  0.8111  0.9917  0.3797
  961TIP3    H224299   3.681   1.679  13.571  1.1811 -0.5426  0.5393
  962TIP3   OH224300   6.756   1.002  10.365  0.4855 -0.1918  0.2301
  962TIP3    H124301   6.794   1.055  10.295  0.7690  1.8984  1.9166
  962TIP3    H224302   6.819   0.931  10.378  1.4046  0.5181 -0.2960
  963TIP3   OH224303   6.008   1.786  11.303 -0.0282  0.7416  0.0070
  963TIP3    H124304   6.001   1.863  11.360  0.8434  2.0708 -1.6408
  963TIP3    H224305   5.993   1.819  11.215  1.4292 -0.7753 -0.8564
  964TIP3   OH224306   5.490   2.408  10.551 -0.1133  0.0384  0.0231
  964TIP3    H124307   5.459   2.496  10.530 -1.8946 -0.6113 -0.1382
  964TIP3    H224308   5.583   2.410  10.529 -0.0777  1.9346  0.2014
  965TIP3   OH224309   2.363   1.528  10.260 -0.4932 -0.2214  0.7184
  965TIP3    H124310   2.278   1.528  10.306 -0.1260  1.7021  1.4404
  965TIP3    H224311   2.340   1.540  10.168 -0.9744  1.5953  1.0474
  966TIP3   OH224312   3.117   7.113  11.978  0.3759 -0.2936  0.0498
  966TIP3    H124313   3.207   7.080  11.971  0.6417 -0.1671  2.2301
  966TIP3    H224314   3.125   7.207  11.960 -0.0067 -0.9564 -3.8374
  967TIP3   OH224315   3.759   0.276  13.193  0.1656  0.3368  0.1504
  967TIP3    H124316   3.674   0.307  13.224  0.5468 -0.0541  1.6541
  967TIP3    H224317   3.741   0.192  13.152 -0.2209  0.3936  0.2039
  968TIP3   OH224318   6.369   3.722  11.094  0.5148  0.1239  0.1249
  968TIP3    H124319   6.405   3.805  11.125  0.9845 -0.0915  0.1786
  968TIP3    H224320   6.444   3.679  11.051  0.7210 -0.9756  1.5414
  969TIP3   OH224321   0.514   2.040  10.575 -0.5101  0.1937 -0.2378
  969TIP3    H124322   0.530   1.975  10.506  0.0079 -0.5181  0.5413
  969TIP3    H224323   0.602   2.069  10.601 -0.7748  2.7797 -2.0335
  970TIP3   OH224324   0.955   6.524  11.020 -0.6153  0.4207 -0.5916
  970TIP3    H124325   0.903   6.601  10.995 -0.5239  1.0405  1.0373
  970TIP3    H224326   1.020   6.515  10.950 -0.3574  2.0941 -0.5939
  971TIP3   OH224327   5.023   0.814  10.652 -0.2666 -0.5252  0.0921
  971TIP3    H124328   4.952   0.788  10.711 -1.0977  0.7801 -0.2973
  971TIP3    H224329   5.075   0.876  10.702 -0.1324 -0.5205 -0.0527
  972TIP3   OH224330   1.361   2.136  11.048  0.3192  0.5205 -0.0078
  972TIP3    H124331   1.333   2.105  10.962  0.5040  0.9262 -0.2174
  972TIP3    H224332   1.283   2.179  11.084 -0.5333 -1.9170  1.1220
  973TIP3   OH224333   6.918   1.309  10.553  0.1606  0.7134  0.0787
  973TIP3    H124334   6.957   1.372  10.492 -2.1695  2.3063  0.1472
  973TIP3    H224335   6.832   1.290  10.515 -0.1172 -0.6013  1.3183
  974TIP3   OH224336   4.759   0.770   9.932 -0.0836  0.2073 -0.1185
  974TIP3    H124337   4.751   0.718  10.012 -0.2546  1.3792  0.6410
  974TIP3    H224338   4.843   0.743   9.895  0.5513  0.4963  1.0760
  975TIP3   OH224339   1.378   1.433  10.588 -0.2084  0.5255 -0.6069
  975TIP3    H124340   1.453   1.449  10.646 -1.8854  2.8726  0.9885
  975TIP3    H224341   1.400   1.481  10.508  0.8687 -0.4216 -0.8891
  976TIP3   OH224342   6.287   1.463  11.372  0.6622 -0.3798 -0.0950
  976TIP3    H124343   6.296   1.424  11.458 -0.3769 -1.4358 -0.4584
  976TIP3    H224344   6.199   1.501  11.371  0.4052 -0.9729 -0.9253
  977TIP3   OH224345   1.230   0.899  10.674 -0.2892 -0.1702 -0.2676
  977TIP3    H124346   1.237   0.986  10.715  0.5581  0.5538 -1.9224
  977TIP3    H224347   1.320   0.866  10.671 -0.6862 -1.4144  0.9732
  978TIP3   OH224348   6.237   0.932   9.744 -0.2540  0.4558 -0.1493
  978TIP3    H124349   6.251   0.949   9.837 -0.0277 -0.1276 -0.0791
  978TIP3    H224350   6.206   1.016   9.710 -0.0247  0.7636  0.3845
  979TIP3   OH224351   5.639   6.143  11.522  0.3079  0.0314 -0.8191
  979TIP3    H124352   5.638   6.060  11.473  1.2110 -0.9081  0.7036
  979TIP3    H224353   5.591   6.204  11.466 -0.5649 -1.5772 -1.8831
  980TIP3   OH224354   7.145   5.796  11.456  0.6802  0.0322  0.1772
  980TIP3    H124355   7.205   5.786  11.381  0.4511 -1.5835  0.2010
  980TIP3    H224356   7.181   5.739  11.524  0.7868  1.3636  1.2603
  981TIP3   OH224357   6.572   0.840  10.069 -0.1436  0.3485  0.5910
  981TIP3    H124358   6.482   0.873  10.074  0.1300  1.0032  1.3248
  981TIP3    H224359   6.616   0.897  10.007 -0.1926  0.1318  0.3569
  982TIP3   OH224360   6.427   0.722  10.557  0.5736  0.4743  0.4089
  982TIP3    H124361   6.411   0.641  10.606  0.6420  0.2443  0.0442
  982TIP3    H224362   6.437   0.694  10.466 -0.6376  1.0235  0.1052
  983TIP3   OH224363   6.413   0.633  11.040  0.3023 -0.1435 -0.5707
  983TIP3    H124364   6.370   0.548  11.027 -0.9125  0.2235  0.8832
  983TIP3    H224365   6.353   0.681  11.097  1.4799  1.3081 -0.5411
  984TIP3   OH224366   4.249   2.023  10.873 -0.1376 -0.7010 -0.5423
  984TIP3    H124367   4.266   2.117  10.871 -1.3979 -0.4723 -1.7917
  984TIP3    H224368   4.277   1.991  10.788  0.7184 -1.5438  0.0506
  985TIP3   OH224369   0.988   1.344  10.291 -0.3005 -0.4171  0.1974
  985TIP3    H124370   0.995   1.438  10.273  0.0446 -0.4679  0.0657
  985TIP3    H224371   1.023   1.302  10.212 -0.3257 -0.6571  0.3133
  986TIP3   OH224372   0.691   6.375  12.045  0.0926 -0.1359  0.0839
  986TIP3    H124373   0.709   6.464  12.076 -0.0431 -0.0659 -0.0384
  986TIP3    H224374   0.632   6.386  11.971  1.2883 -0.2324 -0.8952
  987TIP3   OH224375   1.863   1.701  13.835 -0.7176  0.1637 -0.0811
  987TIP3    H124376   1.782   1.650  13.844 -1.5977  1.4417 -0.6869
  987TIP3    H224377   1.902   1.699  13.922 -1.0829 -0.9909  0.0636
  988TIP3   OH224378   6.240   6.290  12.723 -0.2927  0.4156 -0.1744
  988TIP3    H124379   6.287   6.211  12.697  0.4968  0.5837  0.7409
  988TIP3    H224380   6.161   6.257  12.766 -0.0608  0.1197  0.0279
  989TIP3   OH224381   0.732   2.001  10.791 -0.0087  0.5404  0.2548
  989TIP3    H124382   0.790   2.006  10.867  0.1688 -2.8716  0.4107
  989TIP3    H224383   0.752   1.917  10.751 -3.0205  0.4659 -1.2190
  990TIP3   OH224384   1.159   2.374  10.743 -0.2958 -0.4051 -0.2433
  990TIP3    H124385   1.092   2.309  10.725  2.0324 -3.2587  0.9371
  990TIP3    H224386   1.111   2.453  10.768 -3.1659 -2.6958  1.7576
  991TIP3   OH224387   6.076   1.574  11.464  0.6673  0.3342 -0.2828
  991TIP3    H124388   6.016   1.502  11.443 -0.2304  1.2244 -0.7681
  991TIP3    H224389   6.034   1.652  11.429  2.2617  0.9346 -0.9305
  992TIP3   OH224390   6.670   0.373   9.903  0.4882  0.2507 -0.1041
  992TIP3    H124391   6.719   0.294   9.928 -1.3902 -0.6996  0.7270
  992TIP3    H224392   6.647   0.359   9.811  1.5789  0.6053 -0.4357
  993TIP3   OH224393   0.202   2.790  13.339 -0.0141  0.1709  0.4140
  993TIP3    H124394   0.237   2.818  13.254 -2.0126 -2.3334 -1.3275
  993TIP3    H224395   0.235   2.701  13.350  0.6792  0.6778  2.5504
  994TIP3   OH224396   6.366   1.079  11.034  0.5410  0.1352  0.3177
  994TIP3    H124397   6.382   1.130  11.113  0.0604  0.2122  0.3661
  994TIP3    H224398   6.308   1.133  10.981 -0.5059 -0.6260  0.6591
  995TIP3   OH224399   4.759   2.715  11.198  0.0141  1.1714  0.0909
  995TIP3    H124400   4.844   2.677  11.218 -0.1610  0.5238 -0.3841
  995TIP3    H224401   4.696   2.647  11.220 -0.3546  1.4803  0.0016
  996TIP3   OH224402   0.043   2.039  10.944  0.0775 -0.2634  0.3261
  996TIP3    H124403  -0.006   2.080  11.016 -2.7235 -0.5127 -1.3764
  996TIP3    H224404   0.054   1.948  10.972  0.1032 -0.0643  0.9913
  997TIP3   OH224405   0.291   1.296  11.845 -0.1888 -0.1835  0.5917
  997TIP3    H124406   0.210   1.327  11.804  0.6261 -0.5654 -1.3620
  997TIP3    H224407   0.294   1.203  11.825  1.5277  0.1387 -0.7593
  998TIP3   OH224408   0.786   1.373  11.697  0.4006  0.1267 -0.1863
  998TIP3    H124409   0.719   1.379  11.766 -0.9265 -1.4253 -1.2855
  998TIP3    H224410   0.739   1.397  11.617  2.2833  3.3714 -0.4070
  999TIP3   OH224411   0.480   0.904  11.082 -0.6401 -0.0635 -0.3378
  999TIP3    H124412   0.390   0.879  11.063 -0.6272  0.7335 -1.4589
  999TIP3    H224413   0.473   0.993  11.117 -0.3962 -0.4545  0.7314
 1000TIP3   OH224414   0.543   1.613  10.044 -0.1150 -0.4766 -0.3009
 1000TIP3    H124415   0.469   1.663  10.079  0.3478  3.4584 -4.4432
 1000TIP3    H224416   0.620   1.654  10.084  0.1661  0.8462 -2.1570
 1001TIP3   OH224417   5.731   1.218  11.890 -0.0954 -0.4461 -0.6306
 1001TIP3    H124418   5.683   1.137  11.873 -1.4006  0.2202 -0.2213
 1001TIP3    H224419   5.683   1.285  11.841  0.7350  0.1420 -0.6479
 1002TIP3   OH224420   5.017   4.551  11.067 -0.3729 -0.2707 -0.0859
 1002TIP3    H124421   4.938   4.551  11.121 -0.9941 -0.7097 -0.9830
 1002TIP3    H224422   5.010   4.631  11.014  1.9149  1.9962  2.8653
 1003TIP3   OH224423   6.800   7.083  11.610  0.3744  0.1775  0.0959
 1003TIP3    H124424   6.835   7.136  11.539  0.9838 -1.1308 -0.5746
 1003TIP3    H224425   6.841   6.998  11.601  0.3472 -0.0657  1.9186
 1004TIP3   OH224426   5.508   1.448  10.351  0.5587  0.2264 -0.0012
 1004TIP3    H124427   5.469   1.529  10.318 -0.9299 -0.5055 -0.0797
 1004TIP3    H224428   5.587   1.435  10.297  0.7143  1.5264 -0.0910
 1005TIP3   OH224429   4.675   2.097  11.890  0.2643 -0.3332  0.2095
 1005TIP3    H124430   4.609   2.037  11.924 -0.6171  1.2360  1.2887
 1005TIP3    H224431   4.744   2.039  11.856 -1.5672 -1.9850 -0.8042
 1006TIP3   OH224432   1.585   4.230  12.966 -0.2345 -0.0546 -0.0093
 1006TIP3    H124433   1.616   4.218  13.056 -2.9980 -0.4080  0.9504
 1006TIP3    H224434   1.561   4.322  12.961 -1.0290 -0.2553 -0.0396
 1007TIP3   OH224435   1.227   7.226  11.319 -0.3728  0.9847  0.2997
 1007TIP3    H124436   1.217   7.321  11.329  1.8516  1.3144 -0.3502
 1007TIP3    H224437   1.163   7.202  11.252 -1.5391  1.8917  1.0772
 1008TIP3   OH224438   6.553   3.332  12.382 -0.1593 -0.5757 -0.1020
 1008TIP3    H124439   6.486   3.277  12.341  0.5539 -1.4415 -0.1177
 1008TIP3    H224440   6.630   3.276  12.388  0.1202 -0.0627  1.2758
 1009TIP3   OH224441   5.449   1.175  11.330  0.2934  0.0902  0.2840
 1009TIP3    H124442   5.445   1.196  11.237 -1.0965  0.5686  0.4313
 1009TIP3    H224443   5.357   1.168  11.357  0.6866 -0.7824  1.4496
 1010TIP3   OH224444   6.169   2.248  10.441  0.4378 -0.4181  0.1513
 1010TIP3    H124445   6.096   2.259  10.380  0.4717 -1.8058 -0.1564
 1010TIP3    H224446   6.170   2.329  10.492 -0.4556  0.1843 -0.7588
 1011TIP3   OH224447   0.271   0.394  10.307  0.2477 -0.1790 -0.4277
 1011TIP3    H124448   0.298   0.455  10.239  0.6039  0.0867 -0.0536
 1011TIP3    H224449   0.245   0.450  10.381 -1.7693 -0.4169 -0.9270
 1012TIP3   OH224450   0.296   1.030  11.718  0.3235  0.1059 -0.2783
 1012TIP3    H124451   0.267   0.998  11.803  0.4503  0.1259 -0.2266
 1012TIP3    H224452   0.283   0.957  11.658 -1.1584  0.5645 -0.5345
 1013TIP3   OH224453   6.099   7.302  10.622 -0.3427  0.0765 -0.0885
 1013TIP3    H124454   6.133   7.257  10.545  0.3472  0.2187  0.1243
 1013TIP3    H224455   6.063   7.384  10.588  1.0112  0.6656 -0.1230
 1014TIP3   OH224456   0.477   0.641  13.128 -0.3124 -0.2444 -0.7801
 1014TIP3    H124457   0.388   0.607  13.121  0.0508 -1.4961  0.4191
 1014TIP3    H224458   0.518   0.621  13.044 -0.9377 -0.2977 -1.0742
 1015TIP3   OH224459   0.474   1.013  10.334 -0.3416 -0.1142 -0.0015
 1015TIP3    H124460   0.386   1.048  10.345  0.1428  1.7094 -1.5786
 1015TIP3    H224461   0.530   1.069  10.388 -0.1695 -1.4164  1.1929
 1016TIP3   OH224462   0.492   0.355  11.195  0.1360 -0.4282  0.2328
 1016TIP3    H124463   0.469   0.448  11.189 -0.7782 -0.5391  1.7751
 1016TIP3    H224464   0.412   0.309  11.168  0.4392 -0.7787 -0.0743
 1017TIP3   OH224465   6.528   1.078  13.111  0.5682  0.1877  0.3760
 1017TIP3    H124466   6.537   1.026  13.030  1.6701 -1.2400  1.3939
 1017TIP3    H224467   6.606   1.133  13.113  0.0590  0.9401 -0.0120
 1018TIP3   OH224468   6.713   0.648  11.635 -0.2953  0.3394 -0.4709
 1018TIP3    H124469   6.755   0.592  11.701  0.2926  2.6305  1.1253
 1018TIP3    H224470   6.646   0.592  11.597 -1.1017 -0.8478  2.5407
 1019TIP3   OH224471   7.047   1.222  11.416  0.2551 -1.1039 -0.5396
 1019TIP3    H124472   6.970   1.165  11.410 -0.4639 -0.4237  1.6863
 1019TIP3    H224473   7.111   1.170  11.464 -0.6775  0.1845  2.1977
 1020TIP3   OH224474   6.659   7.192  11.070 -0.2663 -0.3949  0.1357
 1020TIP3    H124475   6.677   7.109  11.027 -2.5275 -0.2782 -1.1358
 1020TIP3    H224476   6.591   7.171  11.134 -1.0454  0.5142 -0.3846
 1021TIP3   OH224477   7.224   1.340  11.011  1.2489 -0.1703  0.1119
 1021TIP3    H124478   7.174   1.420  11.024  1.2945 -0.2910  1.1251
 1021TIP3    H224479   7.213   1.318  10.919 -1.3654 -0.7160  0.5066
 1022TIP3   OH224480   0.040   0.487  11.472  0.4423 -0.2565 -0.7862
 1022TIP3    H124481   0.125   0.470  11.430  0.7835 -0.8628  0.1246
 1022TIP3    H224482  -0.018   0.420  11.437  0.3448  0.1240 -1.3687
 1023TIP3   OH224483   5.710   0.794  10.725 -0.0320 -0.3339  0.1311
 1023TIP3    H124484   5.707   0.880  10.766 -0.0921 -0.7213  0.9515
 1023TIP3    H224485   5.641   0.796  10.659 -0.2810  0.1152  0.4039
 1024TIP3   OH224486   6.334   0.307  10.256 -0.0329 -0.0681 -0.0897
 1024TIP3    H124487   6.265   0.282  10.195  2.2446 -1.0961 -2.3768
 1024TIP3    H224488   6.403   0.343  10.200  1.3451  0.7884  2.0887
 1025TIP3   OH224489   5.898   6.958  11.637  0.8680 -0.0794  0.2960
 1025TIP3    H124490   5.910   6.904  11.715 -0.2810 -0.5748  0.1460
 1025TIP3    H224491   5.937   6.906  11.566  0.0955 -0.5446  0.2124
 1026TIP3   OH224492   7.210   2.099  11.180  0.1085  0.0379 -0.0716
 1026TIP3    H124493   7.242   2.187  11.161 -1.0535  0.3333 -0.7559
 1026TIP3    H224494   7.224   2.087  11.273  0.8901  0.6957 -0.1014
 1027TIP3   OH224495   5.328   0.422  13.598 -0.7098  0.1852  0.3227
 1027TIP3    H124496   5.396   0.423  13.531 -0.1849  0.0962  0.8528
 1027TIP3    H224497   5.258   0.477  13.563 -0.4693  0.0664 -0.3335
 1028TIP3   OH224498   6.466   6.337  11.965 -0.1340 -0.5744 -0.0729
 1028TIP3    H124499   6.492   6.393  12.038 -1.9135 -1.2428  1.0872
 1028TIP3    H224500   6.492   6.386  11.887 -0.4537  1.2555  0.9468
 1029TIP3   OH224501   6.374   7.093  10.565 -0.3412  0.3674 -0.1991
 1029TIP3    H124502   6.452   7.067  10.516 -0.0990  0.1810  0.2838
 1029TIP3    H224503   6.342   7.012  10.605 -1.6369  0.1784 -1.6007
 1030TIP3   OH224504   5.271   1.566  12.073 -0.0927  1.0223 -0.6749
 1030TIP3    H124505   5.306   1.523  11.996  0.8358 -0.1192  0.3587
 1030TIP3    H224506   5.176   1.550  12.070  0.1781 -0.5973 -0.6122
 1031TIP3   OH224507   6.370   2.696  12.542  0.6507 -0.5116  0.0022
 1031TIP3    H124508   6.330   2.614  12.573  0.5019 -0.4696 -0.0752
 1031TIP3    H224509   6.434   2.719  12.609  1.5377 -1.3202 -0.5466
 1032TIP3   OH224510   1.735   1.608  10.323 -0.3073  0.1375 -0.3938
 1032TIP3    H124511   1.702   1.638  10.238 -0.1944 -1.5977 -1.0736
 1032TIP3    H224512   1.677   1.535  10.346 -0.1774  0.4468  0.9042
 1033TIP3   OH224513   0.617   0.369  10.282  0.0052 -0.0409  0.0388
 1033TIP3    H124514   0.563   0.361  10.204  0.3713 -0.8170 -0.1409
 1033TIP3    H224515   0.570   0.320  10.350  0.3972 -0.5900 -0.0792
 1034TIP3   OH224516   6.659   1.523  11.863 -0.2895 -0.3852  0.1663
 1034TIP3    H124517   6.709   1.570  11.797 -0.5452  0.5132  0.6016
 1034TIP3    H224518   6.572   1.561  11.858 -0.5394 -0.9224  0.4237
 1035TIP3   OH224519   4.517   7.063  11.666 -0.4903  0.2185  0.1650
 1035TIP3    H124520   4.551   6.976  11.645  1.2917  1.4927 -2.4481
 1035TIP3    H224521   4.571   7.092  11.739  1.0026  0.3686 -0.9799
 1036TIP3   OH224522   7.231   0.405  11.795 -0.1528 -0.2673  0.5684
 1036TIP3    H124523   7.146   0.366  11.773 -0.4545  0.3291  0.6910
 1036TIP3    H224524   7.291   0.368  11.730 -0.4652 -0.8281  0.5889
 1037TIP3   OH224525   6.367   6.212  10.852  0.4245 -0.3613 -0.1334
 1037TIP3    H124526   6.409   6.297  10.850 -0.8436  0.2420 -2.2353
 1037TIP3    H224527   6.274   6.232  10.863  0.0326 -1.4439 -1.4197
 1038TIP3   OH224528   1.104   1.602  10.700 -0.0720  0.5596 -0.3262
 1038TIP3    H124529   1.192   1.639  10.692 -0.7811  2.6172  1.0400
 1038TIP3    H224530   1.075   1.589  10.610  0.7072  2.1119 -0.8230
 1039TIP3   OH224531   0.128   1.111  11.037 -0.2879 -0.0275  0.4733
 1039TIP3    H124532   0.085   1.187  10.998 -0.7388 -0.9193 -0.8003
 1039TIP3    H224533   0.215   1.143  11.063 -0.9160  1.2172  1.0416
 1040TIP3   OH224534   4.742   1.596  12.075  0.0841 -0.5161  0.3455
 1040TIP3    H124535   4.816   1.642  12.037 -0.8788 -0.7710 -1.9284
 1040TIP3    H224536   4.671   1.607  12.011 -0.7675 -3.3764  0.7203
 1041TIP3   OH224537   5.350   1.924  10.529 -0.2580  0.4573  0.1580
 1041TIP3    H124538   5.419   1.862  10.552 -0.5800  0.8399  2.1764
 1041TIP3    H224539   5.301   1.880  10.460  1.4240 -0.2048 -0.6492
 1042TIP3   OH224540   6.011   2.215  10.216 -0.1991 -0.2969  0.0099
 1042TIP3    H124541   6.056   2.163  10.149  0.9064  0.1122  0.4277
 1042TIP3    H224542   5.955   2.275  10.165 -0.5675 -1.0654 -0.4994
 1043TIP3   OH224543   0.131   1.154  12.377 -0.4190  0.3577  0.0999
 1043TIP3    H124544   0.122   1.153  12.282  0.6811  0.3933 -0.0001
 1043TIP3    H224545   0.157   1.065  12.401  0.8995  0.7590  0.2076
 1044TIP3   OH224546   6.552   2.801  11.214  0.2410  0.2647  0.7990
 1044TIP3    H124547   6.583   2.760  11.133  0.4809  1.3787  0.3161
 1044TIP3    H224548   6.463   2.768  11.226  0.3111 -0.1251  0.2382
 1045TIP3   OH224549   6.597   0.916  11.009 -0.1054 -0.0680  0.3689
 1045TIP3    H124550   6.511   0.957  11.019  0.3724  1.1312 -0.3952
 1045TIP3    H224551   6.590   0.865  10.929 -0.7172 -1.5759  1.3498
 1046TIP3   OH224552   6.879   2.223  11.173  0.3466  0.6185  0.5396
 1046TIP3    H124553   6.805   2.248  11.228 -0.6759  0.2805 -0.6445
 1046TIP3    H224554   6.923   2.153  11.221 -2.9710 -2.6159 -0.8885
 1047TIP3   OH224555   6.209   3.246  12.166  0.2199 -0.7779  0.1133
 1047TIP3    H124556   6.152   3.183  12.121  0.9224 -1.6146  0.3766
 1047TIP3    H224557   6.176   3.331  12.139 -1.9764 -1.2273  1.3018
 1048TIP3   OH224558   0.411   1.359  10.012 -0.7682  0.4885 -0.1861
 1048TIP3    H124559   0.429   1.447  10.044 -2.2914  0.3278  1.1989
 1048TIP3    H224560   0.346   1.324  10.073 -0.9750 -1.2021 -1.3285
 1049TIP3   OH224561   3.475   2.701  13.107  0.4573 -0.0950 -0.2601
 1049TIP3    H124562   3.387   2.733  13.087  0.0504 -1.8975 -1.5183
 1049TIP3    H224563   3.520   2.776  13.145 -1.2388  1.2092 -0.7628
 1050TIP3   OH224564   7.293   1.317  11.278  0.6204 -0.0511  0.3064
 1050TIP3    H124565   7.201   1.292  11.285  0.2819  0.7965 -0.9251
 1050TIP3    H224566   7.308   1.327  11.184  2.2407 -1.1551  0.4261
 1051TIP3   OH224567   1.641   7.148  11.050 -0.2325  0.4029 -0.7624
 1051TIP3    H124568   1.616   7.084  10.983 -0.1414 -0.8992  0.4129
 1051TIP3    H224569   1.736   7.135  11.060 -0.1749  0.8844 -0.6788
 1052TIP3   OH224570   6.493   0.633  10.320  0.0274 -0.1883  0.0928
 1052TIP3    H124571   6.521   0.558  10.267  1.0178  0.6224 -0.5613
 1052TIP3    H224572   6.446   0.690  10.259  0.4707  0.3627  0.2543
 1053TIP3   OH224573   6.726   0.284  10.514 -0.1466  0.3495 -0.0854
 1053TIP3    H124574   6.733   0.380  10.516  0.2311  0.3640 -1.6325
 1053TIP3    H224575   6.736   0.261  10.421 -2.3031 -1.0314 -0.0212
 1054TIP3   OH224576   7.167   6.135  11.263  0.3934 -0.2530  0.2370
 1054TIP3    H124577   7.185   6.224  11.293 -1.1884  0.6842 -1.5071
 1054TIP3    H224578   7.253   6.100  11.239  0.9253  1.0875  0.1448
 1055TIP3   OH224579   5.879   6.058  13.027 -0.1862  0.4667 -0.0583
 1055TIP3    H124580   5.786   6.044  13.046 -0.0194 -2.7713 -1.3496
 1055TIP3    H224581   5.922   6.055  13.112 -1.1819  1.6296  0.5132
 1056TIP3   OH224582   0.614   1.392  10.907 -0.2101 -0.4116  0.5780
 1056TIP3    H124583   0.642   1.480  10.879 -1.9323 -0.0843 -0.1730
 1056TIP3    H224584   0.676   1.369  10.976  0.5613  1.1966  0.4674
 1057TIP3   OH224585   0.319   1.517  11.356  0.5115 -0.3351  0.2254
 1057TIP3    H124586   0.360   1.434  11.380 -0.3903 -0.4672  1.3822
 1057TIP3    H224587   0.258   1.494  11.286  0.7490 -0.5327  0.0827
 1058TIP3   OH224588   0.097   0.234  10.136 -0.7667  0.0067  1.2111
 1058TIP3    H124589   0.070   0.298  10.069 -1.0609 -0.5125  0.8318
 1058TIP3    H224590   0.146   0.286  10.200 -2.4664  0.9158  1.7826
 1059TIP3   OH224591   5.415   6.981  11.486 -0.4007 -0.1661  0.5018
 1059TIP3    H124592   5.451   7.055  11.437 -3.3217  0.8863 -0.1256
 1059TIP3    H224593   5.399   7.016  11.574 -0.7619 -0.3679  0.5176
 1060TIP3   OH224594   5.878   1.655  10.342 -0.1367 -0.1804 -0.1632
 1060TIP3    H124595   5.898   1.630  10.252 -0.5023 -0.4282 -0.1794
 1060TIP3    H224596   5.785   1.679  10.340 -0.0704  0.0984  0.0854
 1061TIP3   OH224597   7.074   1.464  11.987 -0.2613 -0.2724 -0.3219
 1061TIP3    H124598   7.154   1.416  11.963 -1.4077 -2.0945 -0.5384
 1061TIP3    H224599   7.106   1.547  12.023  1.7530 -1.3409  0.4001
 1062TIP3   OH224600   6.733   4.762  11.028 -0.7691  0.2951 -0.1186
 1062TIP3    H124601   6.665   4.786  11.091 -1.8009 -0.2682 -1.0056
 1062TIP3    H224602   6.696   4.687  10.981  0.6130 -0.2430 -0.3706
 1063TIP3   OH224603   1.097   2.730  12.621  0.1211 -0.3374  0.1771
 1063TIP3    H124604   1.092   2.825  12.613  0.7857 -0.1914  1.2923
 1063TIP3    H224605   1.069   2.697  12.536  0.8860  0.8881 -0.5698
 1064TIP3   OH224606   5.177   2.492   9.930 -0.1525 -0.2567 -0.0141
 1064TIP3    H124607   5.238   2.510  10.001  1.2469 -0.7443 -1.0709
 1064TIP3    H224608   5.107   2.440   9.971 -0.2249  0.8853  1.3430
 1065TIP3   OH224609   5.953   0.878  10.930 -0.1193 -0.0790  0.3152
 1065TIP3    H124610   5.867   0.858  10.894 -1.0317  2.5088  0.9976
 1065TIP3    H224611   5.937   0.901  11.021  1.1606  1.4480  0.1796
 1066TIP3   OH224612   6.497   3.038  11.781 -0.5414  0.0074  0.5387
 1066TIP3    H124613   6.552   3.096  11.728 -0.2186 -0.6488  0.1430
 1066TIP3    H224614   6.437   3.097  11.827 -1.4540  0.5142 -1.2699
 1067TIP3   OH224615   0.125   6.950  11.904  0.6962  0.6812 -0.1602
 1067TIP3    H124616   0.197   7.001  11.940  0.9159 -0.0521  0.4578
 1067TIP3    H224617   0.113   6.878  11.966 -0.1199  0.4155 -0.6092
 1068TIP3   OH224618   7.000   7.020  10.571  0.9659 -0.3040  0.3933
 1068TIP3    H124619   6.925   6.974  10.533  0.0860  1.9462 -0.6508
 1068TIP3    H224620   6.962   7.079  10.636  1.7491  1.3429 -0.6201
 1069TIP3   OH224621   0.939   3.040  10.501  0.1572  0.2442  0.1981
 1069TIP3    H124622   0.966   3.130  10.486 -1.9929  0.8308 -0.3962
 1069TIP3    H224623   0.865   3.047  10.562 -1.6643 -0.8955 -1.8144
 1070TIP3   OH224624   6.039   6.887  12.286  0.4532  0.1244 -0.3133
 1070TIP3    H124625   6.126   6.849  12.303  0.0180 -0.7982 -0.1258
 1070TIP3    H224626   5.991   6.873  12.368  0.3553  1.2870 -0.1681
 1071TIP3   OH224627   5.737   6.696  10.666 -0.3149  0.2240 -0.2436
 1071TIP3    H124628   5.663   6.657  10.620  0.7271 -2.1558  0.0174
 1071TIP3    H224629   5.799   6.721  10.597 -0.2198 -0.2128 -0.3153
 1072TIP3   OH224630   6.538   0.138  13.367 -0.3085 -0.0658  0.3656
 1072TIP3    H124631   6.591   0.064  13.397 -0.0250  0.3981  1.0465
 1072TIP3    H224632   6.472   0.149  13.435  0.4286  1.0954  0.9243
 1073TIP3   OH224633   6.244   7.193  10.828 -0.1493  0.2976  0.4193
 1073TIP3    H124634   6.220   7.219  10.738 -0.4156 -1.0531  0.0973
 1073TIP3    H224635   6.287   7.271  10.864 -0.7583  1.1318 -0.6054
 1074TIP3   OH224636   0.621   0.524  11.962  0.4432  0.0984  0.0485
 1074TIP3    H124637   0.652   0.559  12.046  0.0676 -0.7862  0.5678
 1074TIP3    H224638   0.687   0.551  11.899  1.7498 -0.8725  0.9659
 1075TIP3   OH224639   0.249   6.055  10.521  0.1610  0.5537 -0.1278
 1075TIP3    H124640   0.190   6.126  10.496 -1.1785 -0.0924  1.1071
 1075TIP3    H224641   0.334   6.096  10.532 -0.5085  1.8848  0.1348
 1076TIP3   OH224642   1.204   1.656  11.068 -0.2647 -0.3535 -0.7062
 1076TIP3    H124643   1.289   1.612  11.064  0.1678  0.0855  2.3769
 1076TIP3    H224644   1.223   1.748  11.054 -0.3946 -0.3902 -1.1418
 1077TIP3   OH224645   5.428   5.807  12.983 -1.0229  0.0410  0.4313
 1077TIP3    H124646   5.477   5.755  12.919 -2.0856 -1.9711  1.2094
 1077TIP3    H224647   5.377   5.868  12.930  0.7568  0.7833 -0.4666
 1078TIP3   OH224648   0.608   1.403  11.904  0.4802 -0.0643  0.0649
 1078TIP3    H124649   0.646   1.455  11.975 -1.3605  0.2674  0.8481
 1078TIP3    H224650   0.527   1.450  11.882  1.4837  0.3535 -2.8926
 1079TIP3   OH224651   1.198   7.070  10.594 -0.1265  0.1169  0.5872
 1079TIP3    H124652   1.175   7.145  10.538 -1.0924 -1.7000 -1.5199
 1079TIP3    H224653   1.238   7.110  10.671  1.9739  2.6744 -1.7142
 1080TIP3   OH224654   5.706   5.923  11.065 -0.0498  1.1589 -0.0481
 1080TIP3    H124655   5.613   5.929  11.084  0.0913  0.8536  0.8069
 1080TIP3    H224656   5.744   6.000  11.107  0.5634 -0.6774  3.0149
 1081TIP3   OH224657   5.020   5.621  12.286 -0.6119  0.2518  0.2994
 1081TIP3    H124658   5.024   5.557  12.215  0.9496  0.0702  0.5347
 1081TIP3    H224659   5.015   5.705  12.242  1.7366  0.2313 -0.0709
 1082TIP3   OH224660   0.292   7.134  12.016  0.7098 -0.7464 -0.0275
 1082TIP3    H124661   0.308   7.092  12.100  1.5043 -1.1117 -0.3546
 1082TIP3    H224662   0.355   7.207  12.014 -0.0792 -0.0559  0.1771
 1083TIP3   OH224663   6.443   1.135  11.933 -0.0614  0.0411  0.9383
 1083TIP3    H124664   6.353   1.123  11.903  0.3257 -0.8946  0.1295
 1083TIP3    H224665   6.490   1.167  11.856  0.1815  1.0873  1.5079
 1084TIP3   OH224666   5.229   2.925  13.152 -0.4311  0.4642  0.2716
 1084TIP3    H124667   5.309   2.977  13.148  0.4982 -0.8802  0.8403
 1084TIP3    H224668   5.219   2.904  13.245 -1.6573  0.9357  0.2520
 1085TIP3   OH224669   7.230   0.030  12.068 -0.3220 -0.2114 -0.0677
 1085TIP3    H124670   7.283   0.097  12.113 -0.4455 -0.1559 -0.0037
 1085TIP3    H224671   7.146   0.073  12.053  0.6574  0.7692 -2.9877
 1086TIP3   OH224672   7.031   0.591  11.610  0.4703  0.1182 -0.3039
 1086TIP3    H124673   6.959   0.615  11.552 -0.2304 -0.5623  0.2894
 1086TIP3    H224674   7.039   0.496  11.601  1.5745  0.2361 -0.6899
 1087TIP3   OH224675   4.384   2.745  11.366 -0.4369  0.1720 -0.2101
 1087TIP3    H124676   4.412   2.836  11.368 -1.4997  0.4926  0.3032
 1087TIP3    H224677   4.351   2.731  11.277 -0.6953  0.4146 -0.1518
 1088TIP3   OH224678   5.828   0.494   9.782  0.7409  0.3600  0.1985
 1088TIP3    H124679   5.747   0.502   9.833  0.1889  3.0106 -0.9889
 1088TIP3    H224680   5.857   0.405   9.797 -3.8683 -1.5652 -1.4132
 1089TIP3   OH224681   0.353   6.062  10.232 -0.7184 -0.4895  0.6873
 1089TIP3    H124682   0.291   5.990  10.219 -1.1592  0.3305 -2.2890
 1089TIP3    H224683   0.421   6.047  10.165 -0.5845  1.5923  0.3170
 1090TIP3   OH224684   1.291   1.779  10.228 -0.1848  0.0732 -0.2559
 1090TIP3    H124685   1.208   1.821  10.250 -0.6051  1.0658 -3.4885
 1090TIP3    H224686   1.345   1.851  10.192  1.4151 -0.9238  0.0828
 1091TIP3   OH224687   0.915   6.916  10.674 -0.4785 -0.1969  0.1054
 1091TIP3    H124688   0.907   6.932  10.768  2.3484  1.8239  0.0692
 1091TIP3    H224689   0.991   6.859  10.666 -1.0203 -0.7890 -0.9519
 1092TIP3   OH224690   1.956   6.975  12.036 -0.1748  0.5174 -0.0767
 1092TIP3    H124691   1.924   6.885  12.029 -0.9156  0.9121 -2.2887
 1092TIP3    H224692   1.886   7.028  11.997 -0.3309  2.2171  2.3824
 1093TIP3   OH224693   6.621   1.228  11.012 -0.1336 -0.4252  0.1374
 1093TIP3    H124694   6.617   1.319  10.982 -0.9939 -0.3814  0.3730
 1093TIP3    H224695   6.531   1.196  11.004 -0.4967 -0.2694  3.1531
 1094TIP3   OH224696   6.871   1.003  11.517  0.4006  0.2725 -0.6372
 1094TIP3    H124697   6.856   1.040  11.604 -0.6249  1.9030 -1.4837
 1094TIP3    H224698   6.882   0.909  11.532 -0.4538  0.4487  1.1836
 1095TIP3   OH224699   6.064   5.806  13.048  0.0204 -0.8752 -0.1289
 1095TIP3    H124700   6.122   5.849  12.985  0.4099 -0.5722  0.4245
 1095TIP3    H224701   5.992   5.773  12.996  0.5300 -0.9597 -0.7825
 1096TIP3   OH224702   6.255   3.888  10.356  0.2394  0.1300 -0.5154
 1096TIP3    H124703   6.223   3.830  10.424 -0.5354  1.1534  0.0041
 1096TIP3    H224704   6.229   3.846  10.274 -0.1795 -0.3295 -0.1474
 1097TIP3   OH224705   2.558   0.477  13.457  0.4540  0.3030  0.0491
 1097TIP3    H124706   2.463   0.487  13.452  0.4737 -0.0703 -1.3151
 1097TIP3    H224707   2.593   0.553  13.410  0.8376  0.5580  0.7372
 1098TIP3   OH224708   4.630   0.042  12.376  0.9133  0.0797  0.0849
 1098TIP3    H124709   4.720   0.060  12.349 -0.1041  4.9067 -0.5691
 1098TIP3    H224710   4.584   0.022  12.294  0.9771 -0.5712  0.2022
 1099TIP3   OH224711   5.790   0.034  10.716 -0.0037 -0.2677 -0.0858
 1099TIP3    H124712   5.878   0.017  10.682 -0.6451 -1.1017 -1.3679
 1099TIP3    H224713   5.786  -0.012  10.800  1.0186  0.3601  0.3072
 1100TIP3   OH224714   5.991   2.768  11.940 -0.1596  0.3181 -0.8242
 1100TIP3    H124715   5.970   2.800  11.853 -0.8764 -2.5063 -1.7352
 1100TIP3    H224716   6.073   2.719  11.929  0.4311  1.0103  0.3483
 1101TIP3   OH224717   6.156   6.445  10.719  0.0461 -0.3040  0.1023
 1101TIP3    H124718   6.131   6.368  10.770  0.5621  0.2589  1.2358
 1101TIP3    H224719   6.073   6.478  10.685 -0.1690 -1.3983 -0.4674
 1102TIP3   OH224720   5.878   2.852  10.591 -0.4855  0.5362 -0.0460
 1102TIP3    H124721   5.843   2.808  10.669  0.9896  0.7305  0.7384
 1102TIP3    H224722   5.848   2.942  10.598 -0.9931  0.3719 -0.0995
 1103TIP3   OH224723   5.904   2.654  10.819  0.1218 -0.1299  0.0482
 1103TIP3    H124724   5.840   2.655  10.890  1.5652  0.7554  1.3769
 1103TIP3    H224725   5.885   2.574  10.770 -2.9619  0.8791 -0.5260
 1104TIP3   OH224726   4.579   2.531  11.929 -0.6868 -0.4599  0.1819
 1104TIP3    H124727   4.528   2.478  11.990 -0.8982 -0.0071  0.4074
 1104TIP3    H224728   4.513   2.572  11.873 -0.5718  0.1328  0.4775
 1105TIP3   OH224729   0.933   0.851  11.808  0.3459 -0.0200  0.3083
 1105TIP3    H124730   0.920   0.874  11.901  0.6197 -0.1541  0.3793
 1105TIP3    H224731   0.877   0.912  11.761 -0.7189 -0.7219  0.6333
 1106TIP3   OH224732   0.326   6.818  12.186 -0.6810 -0.5182  0.3958
 1106TIP3    H124733   0.231   6.829  12.195 -1.1995 -3.9069 -0.0230
 1106TIP3    H224734   0.354   6.787  12.272 -0.3829 -1.8169 -0.1511
 1107TIP3   OH224735   6.924   0.751  10.476 -0.1799 -0.3041 -1.1969
 1107TIP3    H124736   6.945   0.721  10.564 -2.5441  1.4645  0.0219
 1107TIP3    H224737   7.007   0.746  10.428  1.6583  0.7957  1.7545
 1108TIP3   OH224738   6.157   0.825  10.377  0.2001  0.1625 -0.3634
 1108TIP3    H124739   6.211   0.809  10.300 -1.1325 -2.2664 -0.8349
 1108TIP3    H224740   6.144   0.739  10.416  1.3959  1.4263  2.9826
 1109TIP3   OH224741   1.219   0.826  12.389  0.0290  0.3870  0.2353
 1109TIP3    H124742   1.261   0.747  12.422  2.2218  0.9825 -1.0621
 1109TIP3    H224743   1.205   0.880  12.467  2.4747  0.5298  0.6181
 1110TIP3   OH224744   5.049   2.708  12.167 -0.0873 -0.4938  0.2785
 1110TIP3    H124745   5.120   2.646  12.181  0.0558 -0.6970 -1.2164
 1110TIP3    H224746   5.001   2.674  12.092 -1.6032 -0.1947  1.0849
 1111TIP3   OH224747   0.067   6.362  11.356  0.0538  0.1035  0.1145
 1111TIP3    H124748   0.060   6.303  11.431  1.7986 -1.1868 -0.6808
 1111TIP3    H224749   0.161   6.368  11.339 -0.1874  2.1291 -0.6089
 1112TIP3   OH224750   6.021   7.147  11.175 -0.4551  0.2891  0.3711
 1112TIP3    H124751   6.065   7.191  11.102  1.2449  1.0698  1.8253
 1112TIP3    H224752   6.016   7.056  11.148  0.2112  0.5637 -0.7198
 1113TIP3   OH224753   6.218   6.830  10.004  0.2711  0.2352 -0.1419
 1113TIP3    H124754   6.243   6.895   9.938  1.2975  0.2015  0.2120
 1113TIP3    H224755   6.298   6.779  10.019  0.0012  0.1263  0.9901
 1114TIP3   OH224756   6.917   0.035   9.840 -0.0741  0.2493 -0.3628
 1114TIP3    H124757   6.872   0.084   9.909  1.6697 -0.6187  1.4508
 1114TIP3    H224758   7.005   0.073   9.838  0.3383 -0.7281 -1.1212
 1115TIP3   OH224759   0.930   0.274  10.786 -0.4424  0.3686 -0.2135
 1115TIP3    H124760   0.836   0.258  10.788 -0.2395 -0.7664  0.8075
 1115TIP3    H224761   0.939   0.364  10.819 -1.0905  0.0845  0.7680
 1116TIP3   OH224762   6.067   2.026  12.767 -0.4644  0.0109  0.0800
 1116TIP3    H124763   6.017   2.068  12.837  0.3361  0.8963  0.1198
 1116TIP3    H224764   6.050   1.933  12.778 -0.1417  0.1254  1.6137
 1117TIP3   OH224765   5.329   7.032  13.513  0.1518 -0.6995 -0.0159
 1117TIP3    H124766   5.252   7.055  13.565 -0.7296 -0.3778 -1.4485
 1117TIP3    H224767   5.317   6.940  13.492 -0.0584 -0.5327 -0.6188
 1118TIP3   OH224768   7.059   1.714  11.656 -0.0577 -0.5059 -0.2582
 1118TIP3    H124769   6.985   1.695  11.714 -0.8846 -1.5022 -1.6068
 1118TIP3    H224770   7.070   1.633  11.605  1.3991 -0.0564 -0.6663
 1119TIP3   OH224771   4.168   0.945  10.687  0.0279 -0.1921 -0.2052
 1119TIP3    H124772   4.193   1.010  10.621 -1.2540  0.8669  0.3051
 1119TIP3    H224773   4.079   0.919  10.662  0.1087 -0.9055  0.2440
 1120TIP3   OH224774   0.408   3.302  10.101 -0.0897 -0.6275  0.1026
 1120TIP3    H124775   0.465   3.240  10.147 -0.0670 -0.9607 -0.3721
 1120TIP3    H224776   0.436   3.388  10.132  0.2608 -0.8239  0.3327
 1121TIP3   OH224777   0.986   2.536  10.205 -0.5743 -0.0366 -0.3105
 1121TIP3    H124778   0.961   2.554  10.296 -0.6360  0.6554 -0.4571
 1121TIP3    H224779   1.066   2.484  10.212 -0.1349  0.6777  0.1508
 1122TIP3   OH224780   6.752   3.175  10.440 -0.0319 -0.0279 -0.1109
 1122TIP3    H124781   6.847   3.169  10.430 -0.1265 -2.0740  0.0187
 1122TIP3    H224782   6.717   3.108  10.381 -1.4579  1.5754 -1.1238
 1123TIP3   OH224783   7.234   4.851  10.416 -0.0893  0.2588  0.0101
 1123TIP3    H124784   7.314   4.899  10.438 -1.1395  1.6025  0.9630
 1123TIP3    H224785   7.199   4.896  10.339 -0.4758  0.3293  0.2242
 1124TIP3   OH224786   0.493   2.720  12.584 -0.1196  0.0448  0.1195
 1124TIP3    H124787   0.566   2.676  12.628  0.5577 -0.5287 -1.5372
 1124TIP3    H224788   0.438   2.649  12.551 -1.1900  0.4726  0.9308
 1125TIP3   OH224789   5.780   1.937  12.450 -0.2061 -0.2571  0.1996
 1125TIP3    H124790   5.698   1.961  12.493 -0.3756 -1.0932  0.3448
 1125TIP3    H224791   5.756   1.869  12.387  0.3222 -0.2702  0.0104
 1126TIP3   OH224792   6.289   3.239  10.763 -0.2505 -0.4563 -0.3323
 1126TIP3    H124793   6.199   3.211  10.777 -0.9647  1.3809 -1.0597
 1126TIP3    H224794   6.309   3.295  10.839 -0.6241  1.1929 -1.4108
 1127TIP3   OH224795   6.326   1.830  11.233 -0.9960  0.8261 -0.1360
 1127TIP3    H124796   6.370   1.885  11.168  0.1435  0.8685  0.6589
 1127TIP3    H224797   6.274   1.769  11.180  1.9843 -0.8814 -1.2136
 1128TIP3   OH224798   2.739   4.070  12.686 -0.7672 -0.1355 -0.8236
 1128TIP3    H124799   2.670   4.096  12.625 -0.8706 -0.9930 -1.0766
 1128TIP3    H224800   2.698   4.003  12.741 -1.2663  1.9246  1.4123
 1129TIP3   OH224801   3.596   1.024  10.462  0.8153 -0.1567 -0.5180
 1129TIP3    H124802   3.600   1.029  10.557 -0.4074  0.2885 -0.4832
 1129TIP3    H224803   3.651   1.097  10.432  0.7039  0.0831 -0.1427
 1130TIP3   OH224804   6.255   1.893  10.269  0.1592 -0.1335 -0.4668
 1130TIP3    H124805   6.324   1.829  10.289 -0.4740 -0.7052 -0.0989
 1130TIP3    H224806   6.280   1.930  10.184 -0.2540 -1.9337 -1.3814
 1131TIP3   OH224807   5.540   1.740  10.556  0.4345  0.2956 -0.4374
 1131TIP3    H124808   5.592   1.666  10.589  0.7352  1.0083  0.7048
 1131TIP3    H224809   5.596   1.781  10.490  0.9161  0.4789  0.0904
 1132TIP3   OH224810   0.322   1.483  12.053 -0.2746  0.5487  0.3447
 1132TIP3    H124811   0.325   1.552  11.986  2.1774  0.6476  0.4989
 1132TIP3    H224812   0.293   1.405  12.005  2.9112  0.2576 -1.2357
 1133TIP3   OH224813   5.890   2.593  11.453 -0.1515 -0.2054 -0.1084
 1133TIP3    H124814   5.883   2.662  11.388 -0.7092  0.3809  0.5587
 1133TIP3    H224815   5.843   2.518  11.415 -0.0829 -0.0140 -0.5653
 1134TIP3   OH224816   1.824   3.127  12.018 -0.4267  0.2399 -0.0608
 1134TIP3    H124817   1.900   3.168  12.058  0.5367 -1.4472 -0.1308
 1134TIP3    H224818   1.752   3.145  12.078  0.4563  0.0487  1.0591
 1135TIP3   OH224819   3.526   2.086  11.844 -0.0951 -0.1805  0.2118
 1135TIP3    H124820   3.542   2.024  11.915 -0.9175 -1.2420 -0.5273
 1135TIP3    H224821   3.472   2.038  11.781 -1.2535  1.4517 -0.0918
 1136TIP3   OH224822   0.529   2.881  11.589  0.5003 -0.0775 -0.7408
 1136TIP3    H124823   0.510   2.812  11.653 -1.6693  1.0278 -0.1449
 1136TIP3    H224824   0.501   2.962  11.632 -0.1402  0.7867 -2.7229
 1137TIP3   OH224825   1.142   3.457  10.663  0.1794  0.7219  0.7502
 1137TIP3    H124826   1.100   3.429  10.745 -0.4986  0.1614  0.2112
 1137TIP3    H224827   1.159   3.551  10.676 -0.4605  0.7633  1.3033
 1138TIP3   OH224828   7.005   3.369  10.664  0.0733 -0.6367 -0.1594
 1138TIP3    H124829   6.930   3.420  10.634 -2.4363 -3.4702  1.1271
 1138TIP3    H224830   7.031   3.413  10.746  0.3066  0.7656 -0.9610
 1139TIP3   OH224831   0.321   0.514  12.037  0.5243 -0.2877  0.5155
 1139TIP3    H124832   0.401   0.519  11.985 -0.2577  1.5178 -0.5790
 1139TIP3    H224833   0.299   0.421  12.038  0.7823 -0.4261 -2.0923
 1140TIP3   OH224834   1.668   1.493  11.545 -0.1190 -0.5112 -0.4273
 1140TIP3    H124835   1.660   1.490  11.640  2.2007 -1.2157 -0.2282
 1140TIP3    H224836   1.581   1.470  11.512 -0.8615 -0.5025  1.5153
 1141TIP3   OH224837   0.477   4.725  11.148  0.1289 -0.0751 -0.0347
 1141TIP3    H124838   0.525   4.757  11.072  0.7442 -1.8586 -0.4219
 1141TIP3    H224839   0.514   4.639  11.165 -2.5700 -1.2855 -0.0253
 1142TIP3   OH224840   1.398   3.499  10.107 -0.0247 -0.1112 -0.2214
 1142TIP3    H124841   1.467   3.537  10.052 -1.2895  1.6868 -0.6017
 1142TIP3    H224842   1.384   3.411  10.071  1.2864 -0.0753 -0.8419
 1143TIP3   OH224843   2.469   2.792  11.521 -0.2899  0.4550 -0.3616
 1143TIP3    H124844   2.418   2.858  11.474  1.1572  1.9052  0.0510
 1143TIP3    H224845   2.556   2.797  11.483  0.4479  0.4473  1.2748
 1144TIP3   OH224846   1.259   1.826  11.547 -0.9044  0.0929 -0.4521
 1144TIP3    H124847   1.274   1.807  11.640 -1.9689  4.0365  0.6071
 1144TIP3    H224848   1.347   1.823  11.508 -0.4193 -1.4228  0.7010
 1145TIP3   OH224849   7.214   2.609  10.716 -0.4559 -0.5680  0.6218
 1145TIP3    H124850   7.270   2.666  10.768  0.0177  0.9819 -1.5353
 1145TIP3    H224851   7.273   2.544  10.679 -0.1993  0.4974 -0.8807
 1146TIP3   OH224852   0.164   1.970  13.125  0.2528 -0.1253 -0.4338
 1146TIP3    H124853   0.069   1.979  13.131  0.4665  2.7289 -0.7759
 1146TIP3    H224854   0.182   1.880  13.153 -2.6710 -1.1982 -1.8403
 1147TIP3   OH224855   1.448   7.036  11.237  0.2538 -0.2060 -0.0887
 1147TIP3    H124856   1.378   7.100  11.249 -0.2386 -0.7450 -0.0763
 1147TIP3    H224857   1.500   7.071  11.164  0.8357  0.9524  0.8556
 1148TIP3   OH224858   0.698   0.845  11.208 -0.2002  0.3712 -0.0400
 1148TIP3    H124859   0.743   0.770  11.169 -0.5003 -1.1023  2.3462
 1148TIP3    H224860   0.606   0.832  11.185 -0.5615 -1.1659  2.0720
 1149TIP3   OH224861   0.764   3.255  11.645 -0.0720 -0.1555 -0.1023
 1149TIP3    H124862   0.719   3.205  11.714  0.5527 -0.7567 -0.1261
 1149TIP3    H224863   0.775   3.192  11.574  2.6573 -0.6276  0.6815
 1150TIP3   OH224864   2.625   2.467  11.567 -0.8109 -0.4157 -0.1880
 1150TIP3    H124865   2.657   2.494  11.481  0.8317 -0.8642  0.2515
 1150TIP3    H224866   2.557   2.402  11.549 -1.3845  0.4629 -1.1612
 1151TIP3   OH224867   2.576   2.667  10.973  0.5388 -0.8089  0.2806
 1151TIP3    H124868   2.540   2.702  11.055  0.3890  1.5384 -0.7653
 1151TIP3    H224869   2.501   2.664  10.913  0.5995 -2.7330  0.2603
 1152TIP3   OH224870   0.120   2.806  12.105  0.0272  0.1673 -1.2817
 1152TIP3    H124871   0.188   2.777  12.165 -1.3804  0.3829  0.4549
 1152TIP3    H224872   0.136   2.757  12.024  1.2007 -1.0303 -0.3258
 1153TIP3   OH224873   0.200   1.073  10.639 -0.2297  0.2470 -0.0504
 1153TIP3    H124874   0.174   1.149  10.692 -1.1942 -0.8116  1.0284
 1153TIP3    H224875   0.202   1.105  10.549 -0.5683  1.5606  0.4025
 1154TIP3   OH224876   6.401   5.744  10.912 -0.4754  0.0838  0.2132
 1154TIP3    H124877   6.433   5.708  10.995  0.3515 -0.4171 -0.3108
 1154TIP3    H224878   6.384   5.836  10.930 -2.0440 -0.4194  1.4233
 1155TIP3   OH224879   2.264   3.982  10.672  0.2767  0.3247 -0.6763
 1155TIP3    H124880   2.343   3.984  10.726 -1.2809  0.8518  1.6258
 1155TIP3    H224881   2.247   3.889  10.659 -0.3919  0.1396  1.3511
 1156TIP3   OH224882   1.386   1.698  11.764 -0.0976  0.0189 -0.0802
 1156TIP3    H124883   1.478   1.671  11.768 -0.0164  0.1911 -0.7402
 1156TIP3    H224884   1.372   1.745  11.847  0.3555 -0.1758  0.1097
 1157TIP3   OH224885   1.580   3.695  12.091 -0.3885 -0.5645  0.3909
 1157TIP3    H124886   1.590   3.771  12.034  0.8475  0.0044  1.3688
 1157TIP3    H224887   1.641   3.631  12.056  0.0546 -0.3728  0.8185
 1158TIP3   OH224888   1.447   1.579  12.264 -0.0366 -0.2110  0.1518
 1158TIP3    H124889   1.490   1.661  12.238  1.9548 -1.2172  0.1033
 1158TIP3    H224890   1.420   1.593  12.354  0.7391  0.3452  0.3038
 1159TIP3   OH224891   6.208   4.594  11.689 -0.0866  0.0205 -0.0463
 1159TIP3    H124892   6.117   4.564  11.686  0.1351 -0.5229 -1.4885
 1159TIP3    H224893   6.202   4.685  11.717 -1.1596  0.3247 -1.2489
 1160TIP3   OH224894   7.187   3.591  11.315  0.1418 -0.1156 -0.7888
 1160TIP3    H124895   7.281   3.599  11.298  0.3592 -0.5881  0.1811
 1160TIP3    H224896   7.175   3.501  11.343 -0.2336  0.5597  1.3224
 1161TIP3   OH224897   1.233   2.123  11.829 -0.9101  0.7808 -0.2058
 1161TIP3    H124898   1.283   2.053  11.871  1.2489  2.6990  0.4894
 1161TIP3    H224899   1.262   2.122  11.738  0.5267  1.9730  0.2241
 1162TIP3   OH224900   1.785   2.411  10.664  0.1076  0.0020 -0.5147
 1162TIP3    H124901   1.792   2.349  10.737 -1.5727 -0.5812 -0.8190
 1162TIP3    H224902   1.748   2.359  10.593 -2.5902  1.6663 -0.3831
 1163TIP3   OH224903   0.297   3.411  10.417 -0.0347  0.1131 -0.0884
 1163TIP3    H124904   0.214   3.422  10.463 -0.2749  0.9339 -0.7165
 1163TIP3    H224905   0.280   3.443  10.329  0.3853 -1.5661 -0.8113
 1164TIP3   OH224906   7.176   3.643  10.529  0.1888  0.0350  0.0202
 1164TIP3    H124907   7.180   3.735  10.553  0.5284  0.1509 -0.4890
 1164TIP3    H224908   7.205   3.597  10.609  0.3546  0.3814  0.1628
 1165TIP3   OH224909   1.696   5.562  12.451  0.4120  0.1411  0.0603
 1165TIP3    H124910   1.616   5.510  12.459  1.7283 -1.8625  0.5251
 1165TIP3    H224911   1.766   5.503  12.481  2.2411  1.3753 -1.6887
 1166TIP3   OH224912   3.541   4.442  12.169 -0.4039 -0.0941 -0.3693
 1166TIP3    H124913   3.531   4.390  12.089  0.8344  1.7688 -1.7687
 1166TIP3    H224914   3.452   4.448  12.204 -0.5630 -3.1908 -0.1108
 1167TIP3   OH224915   6.996   3.982  12.101 -0.3182  0.7230  0.3331
 1167TIP3    H124916   7.064   3.929  12.059 -0.6259 -0.1014  0.8623
 1167TIP3    H224917   7.041   4.061  12.131  0.2749  0.4618  0.1221
 1168TIP3   OH224918   6.511   4.005  11.084  0.1258 -0.8941 -0.1004
 1168TIP3    H124919   6.439   3.993  11.022  0.1867  0.8957 -0.5680
 1168TIP3    H224920   6.590   3.999  11.029  0.1257  3.0354 -0.7323
 1169TIP3   OH224921   0.356   4.910   9.962 -0.1631  0.1479 -0.0823
 1169TIP3    H124922   0.383   4.989  10.009 -1.4624 -0.2041  1.3009
 1169TIP3    H224923   0.300   4.942   9.891 -0.3932  0.5021  0.2556
 1170TIP3   OH224924   2.794   4.755  11.941 -0.4201 -0.2840  0.0330
 1170TIP3    H124925   2.867   4.718  11.991  0.8640  0.6398 -1.1345
 1170TIP3    H224926   2.718   4.703  11.968  0.4086 -0.3816  2.2754
 1171TIP3   OH224927   6.888   6.737  11.511 -0.2760  0.6332  0.4131
 1171TIP3    H124928   6.796   6.712  11.521 -0.5695  1.0102 -1.1146
 1171TIP3    H224929   6.916   6.691  11.432  0.7214  0.8706  0.6287
 1172TIP3   OH224930   4.709   2.600  11.591 -0.4036 -0.3583  0.6248
 1172TIP3    H124931   4.680   2.575  11.503 -1.1302 -0.4193  0.8800
 1172TIP3    H224932   4.680   2.528  11.647 -1.0905  0.2981  1.1142
 1173TIP3   OH224933   1.447   1.607  10.369  0.1365  0.2640  0.1684
 1173TIP3    H124934   1.535   1.643  10.368  0.4247 -0.4125  0.8419
 1173TIP3    H224935   1.397   1.664  10.310  1.5317 -0.6488 -1.9850
 1174TIP3   OH224936   2.469   3.166  10.457  0.7942 -0.1341  0.0110
 1174TIP3    H124937   2.473   3.243  10.514 -1.0085 -0.5914  0.7944
 1174TIP3    H224938   2.471   3.202  10.368  0.9511  0.7644  0.3682
 1175TIP3   OH224939   0.896   1.435  13.707  0.1815 -0.2288  0.1198
 1175TIP3    H124940   0.902   1.419  13.613 -0.1481  0.8288 -0.0894
 1175TIP3    H224941   0.811   1.477  13.719 -0.4680 -1.7951  1.1101
 1176TIP3   OH224942   5.492   2.074  11.264  0.0893 -0.1189  0.5199
 1176TIP3    H124943   5.512   2.103  11.353  0.7898  2.2105 -0.3771
 1176TIP3    H224944   5.401   2.098  11.251  0.2981  0.5112  0.2267
 1177TIP3   OH224945   1.550   2.637  10.585  0.1216 -0.2348  0.4102
 1177TIP3    H124946   1.532   2.547  10.610 -0.6931 -0.0782  0.3858
 1177TIP3    H224947   1.468   2.684  10.602  0.1934  0.2796 -0.6367
 1178TIP3   OH224948   0.508   3.577  10.754 -0.3533 -0.1291 -0.1179
 1178TIP3    H124949   0.570   3.507  10.777  0.4971  1.1373  1.5197
 1178TIP3    H224950   0.551   3.624  10.683 -0.2822 -0.4159 -0.2656
 1179TIP3   OH224951   0.241   0.261  12.054  0.1317 -0.3176 -0.7726
 1179TIP3    H124952   0.148   0.271  12.076  0.4093  0.2185  0.1895
 1179TIP3    H224953   0.243   0.261  11.959 -0.8069  0.2298 -0.8001
 1180TIP3   OH224954   2.266   3.749  10.529 -0.0192 -0.2757  0.5745
 1180TIP3    H124955   2.286   3.827  10.477 -1.2608  0.2582  0.8966
 1180TIP3    H224956   2.311   3.678  10.483  0.8057  0.5578  0.0663
 1181TIP3   OH224957   1.181   3.116  12.043 -0.1199 -0.0839  0.2006
 1181TIP3    H124958   1.238   3.050  12.006  0.9965 -0.2980  2.2022
 1181TIP3    H224959   1.226   3.199  12.027  0.6766 -0.2297  1.5418
 1182TIP3   OH224960   6.743   2.345  10.009  0.3641 -0.0987  0.0014
 1182TIP3    H124961   6.823   2.389   9.980  0.6655 -1.4565 -1.2287
 1182TIP3    H224962   6.704   2.407  10.070  0.8018  1.9154 -1.6824
 1183TIP3   OH224963   0.195   2.768  10.174 -0.0234 -0.2897 -0.1521
 1183TIP3    H124964   0.230   2.800  10.091  1.2696 -1.1329  0.0633
 1183TIP3    H224965   0.189   2.673  10.163  1.2179 -0.5347  1.1085
 1184TIP3   OH224966   6.341   2.021  11.999 -0.1095  0.8562  0.4872
 1184TIP3    H124967   6.394   1.986  11.927  1.2735 -1.0602  2.3610
 1184TIP3    H224968   6.256   1.979  11.988 -0.4496  1.8798 -0.9784
 1185TIP3   OH224969   1.220   4.527  12.971 -0.0105  0.0566 -0.2206
 1185TIP3    H124970   1.257   4.514  12.884 -0.3891  0.1098 -0.3860
 1185TIP3    H224971   1.222   4.440  13.011  2.0624  0.3870  0.4596
 1186TIP3   OH224972   7.141   0.984  10.783 -0.4985  0.0575  1.1993
 1186TIP3    H124973   7.093   1.022  10.710 -0.9943 -0.7597  1.0920
 1186TIP3    H224974   7.210   1.048  10.803 -1.1635  0.8823  0.8655
 1187TIP3   OH224975   6.715   2.667  10.287 -0.2973  0.6433  0.6844
 1187TIP3    H124976   6.654   2.631  10.351 -0.2958 -2.5667 -1.0569
 1187TIP3    H224977   6.680   2.640  10.202  1.8110  1.5229 -0.5033
 1188TIP3   OH224978   1.499   2.516  12.189  0.2425  0.4324 -0.5056
 1188TIP3    H124979   1.500   2.421  12.177  2.3113  0.2385  0.9030
 1188TIP3    H224980   1.516   2.551  12.102 -0.0549 -0.4756 -0.9462
 1189TIP3   OH224981   6.888   3.033  12.115 -0.4432 -0.4136  0.7596
 1189TIP3    H124982   6.898   3.094  12.188 -2.4768  0.9785 -0.0934
 1189TIP3    H224983   6.794   3.019  12.109 -0.7067  2.6592 -4.1674
 1190TIP3   OH224984   0.213   3.129  10.385  0.8404 -0.2811 -0.0958
 1190TIP3    H124985   0.166   3.206  10.418 -1.3306 -1.8401  0.5741
 1190TIP3    H224986   0.296   3.164  10.354  0.3810  2.1735  1.2477
 1191TIP3   OH224987   0.110   1.226  11.535  0.1970  0.2950  0.0349
 1191TIP3    H124988   0.072   1.204  11.450 -0.1286  1.1605 -0.0484
 1191TIP3    H224989   0.061   1.172  11.597  1.0050 -0.9757 -0.4019
 1192TIP3   OH224990   1.523   1.715  11.170  0.6398 -0.0888  0.4368
 1192TIP3    H124991   1.615   1.731  11.152  0.1791  1.2641 -0.8441
 1192TIP3    H224992   1.480   1.724  11.084 -0.9254  1.1476  1.3272
 1193TIP3   OH224993   0.587   1.836  10.408  0.5498  0.0804  0.2572
 1193TIP3    H124994   0.678   1.846  10.380  0.0089  2.0719 -0.9024
 1193TIP3    H224995   0.568   1.743  10.397  1.4771  0.1788 -2.5913
 1194TIP3   OH224996   1.251   3.660  13.543 -0.5659 -0.5748 -0.1565
 1194TIP3    H124997   1.233   3.590  13.482 -1.2931  0.5556 -1.2576
 1194TIP3    H224998   1.213   3.738  13.503 -1.4016  0.1222  1.9018
 1195TIP3   OH224999   6.672   2.890  10.614  0.7350 -0.3620 -0.0972
 1195TIP3    H125000   6.628   2.834  10.550  0.9546  0.3120 -0.8569
 1195TIP3    H225001   6.600   2.927  10.666  0.5056 -0.4848 -0.3237
 1196TIP3   OH225002   3.195   2.012  10.743  0.1151  0.3762 -0.0445
 1196TIP3    H125003   3.123   1.953  10.723  1.1681 -0.9793  0.1166
 1196TIP3    H225004   3.180   2.039  10.833 -0.3162  0.3040 -0.0926
 1197TIP3   OH225005   1.510   3.742  10.234 -0.4236  0.4467 -0.0618
 1197TIP3    H125006   1.591   3.752  10.185 -0.2343  0.5988  0.2777
 1197TIP3    H225007   1.468   3.665  10.196 -0.3112  0.6005 -0.5042
 1198TIP3   OH225008   7.091   2.754  10.124 -0.5464  0.3081 -0.0326
 1198TIP3    H125009   7.152   2.817  10.085 -0.4391  0.1492 -0.1262
 1198TIP3    H225010   7.015   2.755  10.066  0.5723 -1.6594 -1.6184
 1199TIP3   OH225011   6.848   3.916  10.694  0.1424 -0.6738 -0.2496
 1199TIP3    H125012   6.863   3.982  10.626  0.9243  0.3062  0.8323
 1199TIP3    H225013   6.885   3.835  10.658 -0.2676 -0.3758 -1.3466
 1200TIP3   OH225014   0.999   1.636  11.265  0.7041 -0.2938 -0.4374
 1200TIP3    H125015   1.039   1.634  11.178  2.4348  0.5743  0.3152
 1200TIP3    H225016   1.008   1.726  11.294 -1.3846 -0.2019 -0.0279
 1201TIP3   OH225017   6.486   3.330  12.881  0.5583  0.2014 -0.6161
 1201TIP3    H125018   6.552   3.262  12.894  0.2510 -0.0446 -0.3020
 1201TIP3    H225019   6.470   3.330  12.786 -0.4472 -1.1525 -0.4768
 1202TIP3   OH225020   2.138   3.651  11.605  0.3592 -0.6595 -0.3006
 1202TIP3    H125021   2.056   3.694  11.630 -0.9731 -2.4567 -1.5076
 1202TIP3    H225022   2.188   3.719  11.561 -0.2570  0.5893  0.8892
 1203TIP3   OH225023   2.400   1.216  10.300 -0.5004 -0.2909 -0.0165
 1203TIP3    H125024   2.316   1.260  10.285 -1.3379 -1.7607  0.3093
 1203TIP3    H225025   2.409   1.155  10.227  0.3146 -0.1228 -0.0641
 1204TIP3   OH225026   2.884   7.201  12.130 -0.3104  0.1287  0.1789
 1204TIP3    H125027   2.938   7.138  12.082 -1.7899  0.3323 -1.7582
 1204TIP3    H225028   2.946   7.270  12.155  0.9693 -1.1958  0.8076
 1205TIP3   OH225029   0.929   2.192  12.116 -0.6016 -0.7012 -0.2638
 1205TIP3    H125030   0.842   2.212  12.150  0.1888  1.1422  0.7777
 1205TIP3    H225031   0.980   2.272  12.133  2.0145 -2.6594  1.5576
 1206TIP3   OH225032   0.136   4.484  11.029 -0.2107 -0.0531  0.1394
 1206TIP3    H125033   0.145   4.389  11.038  0.2839  0.0787  1.0971
 1206TIP3    H225034   0.135   4.499  10.934  2.7795 -0.7363 -0.0443
 1207TIP3   OH225035   6.629   3.621  11.292  0.6006  0.3459 -0.2223
 1207TIP3    H125036   6.592   3.709  11.295 -0.3225 -0.0709  1.5005
 1207TIP3    H225037   6.724   3.635  11.294  0.4758  1.3152 -0.6448
 1208TIP3   OH225038   0.611   0.997  10.759  0.1056 -0.4177 -0.0323
 1208TIP3    H125039   0.625   0.964  10.847 -4.4338 -0.6072  0.7411
 1208TIP3    H225040   0.592   0.920  10.706  1.4152 -0.1718 -0.8866
 1209TIP3   OH225041   4.831   3.546  12.882  0.6979  0.0506  0.0303
 1209TIP3    H125042   4.746   3.502  12.877  0.5128  0.1699  1.7806
 1209TIP3    H225043   4.891   3.485  12.839  0.1538 -1.1901  0.9917
 1210TIP3   OH225044   7.155   4.525   9.913  0.2286  0.3374 -0.5151
 1210TIP3    H125045   7.228   4.464   9.905 -0.7521 -1.1527  1.5877
 1210TIP3    H225046   7.077   4.470   9.913 -0.7233  1.6577  0.4750
 1211TIP3   OH225047   2.579   2.817  11.781 -0.1947 -0.0021  0.4733
 1211TIP3    H125048   2.549   2.816  11.690 -0.2848  0.5510  0.4930
 1211TIP3    H225049   2.503   2.850  11.830  0.1366  0.5232  0.6390
 1212TIP3   OH225050   0.198   1.350  10.706  0.1886  0.2912 -0.4071
 1212TIP3    H125051   0.180   1.444  10.704 -0.6632  0.1511  0.2040
 1212TIP3    H225052   0.266   1.339  10.772  0.6248  0.5210 -0.8103
 1213TIP3   OH225053   1.144   1.295  10.555  0.0747 -0.2227 -0.0065
 1213TIP3    H125054   1.116   1.293  10.463  0.1594  0.4495 -0.0539
 1213TIP3    H225055   1.225   1.346  10.554 -0.7548  1.1250  0.6454
 1214TIP3   OH225056   1.338   0.147  10.879  0.1120  0.5745 -0.6340
 1214TIP3    H125057   1.431   0.167  10.884 -0.3062  3.0233 -2.0270
 1214TIP3    H225058   1.301   0.188  10.958  0.1299 -0.0012 -0.3215
 1215TIP3   OH225059   6.809   1.458  11.156  0.6179 -0.4472  0.3754
 1215TIP3    H125060   6.802   1.553  11.168 -1.0896 -0.5182  0.0701
 1215TIP3    H225061   6.739   1.422  11.211  0.0273 -1.4177 -0.9861
 1216TIP3   OH225062   6.613   2.600  10.056  0.2903  0.1143  0.0705
 1216TIP3    H125063   6.647   2.686  10.029 -1.7042  0.3183 -2.0072
 1216TIP3    H225064   6.540   2.584   9.996 -0.8799 -1.9677  1.9883
 1217TIP3   OH225065   1.817   1.935  11.984  0.3161  0.0193  0.5220
 1217TIP3    H125066   1.838   2.019  11.943  0.1213 -0.3933 -0.4432
 1217TIP3    H225067   1.899   1.886  11.983  0.2941 -0.0190  0.5683
 1218TIP3   OH225068   1.442   2.447  11.583  0.1822 -0.4902 -0.0108
 1218TIP3    H125069   1.418   2.386  11.514 -0.4250 -0.1022 -0.1465
 1218TIP3    H225070   1.360   2.487  11.609  0.1475 -1.8555  2.1087
 1219TIP3   OH225071   1.564   3.473  11.429 -0.3179  0.1710 -0.1998
 1219TIP3    H125072   1.572   3.396  11.486  0.3951  0.9935  0.8219
 1219TIP3    H225073   1.635   3.531  11.456  0.2140  0.4620 -2.1288
 1220TIP3   OH225074   2.862   0.603  11.049  0.3745  0.0944 -0.0748
 1220TIP3    H125075   2.912   0.573  10.973 -0.4261  0.3915 -0.7352
 1220TIP3    H225076   2.852   0.697  11.035  0.2637  0.1548  0.4215
 1221TIP3   OH225077   6.602   1.766  10.505 -0.0019  0.2168 -0.4350
 1221TIP3    H125078   6.591   1.789  10.413  2.5800 -1.2436 -1.1599
 1221TIP3    H225079   6.605   1.670  10.506 -0.1018  0.2069  1.1765
 1222TIP3   OH225080   6.635   2.628  11.742 -0.6275 -0.4293  0.4557
 1222TIP3    H125081   6.597   2.622  11.654 -0.4605 -1.0890  0.4239
 1222TIP3    H225082   6.592   2.558  11.791  2.8064 -3.3401 -0.4456
 1223TIP3   OH225083   1.027   1.893  11.414  0.5258  0.0703  0.1863
 1223TIP3    H125084   1.034   1.836  11.491 -0.7012 -0.4295 -0.0603
 1223TIP3    H225085   1.112   1.937  11.410  0.7698 -0.2209  1.5714
 1224TIP3   OH225086   0.194   1.483  11.051 -0.1498  0.3582 -0.2112
 1224TIP3    H125087   0.226   1.533  10.976 -0.2822 -1.0606 -1.2389
 1224TIP3    H225088   0.099   1.480  11.040 -0.2650  1.0498  0.5896
 1225TIP3   OH225089   1.001   4.020  11.521  0.0724 -0.5308  0.0489
 1225TIP3    H125090   1.051   4.060  11.450  0.1315  0.8751  0.8732
 1225TIP3    H225091   0.930   4.081  11.538  1.4320  0.3452  2.8116
 1226TIP3   OH225092   7.159   2.876  11.152  0.4501 -0.7126  0.0955
 1226TIP3    H125093   7.073   2.882  11.194  0.6843 -0.9774  0.6244
 1226TIP3    H225094   7.141   2.840  11.066 -0.4775  3.4048 -1.5344
 1227TIP3   OH225095   1.890   0.693  11.778 -0.0893  0.1694  0.2472
 1227TIP3    H125096   1.819   0.736  11.729 -0.0322  1.0101  0.9027
 1227TIP3    H225097   1.941   0.765  11.815 -2.1141 -0.3969  4.4733
 1228TIP3   OH225098   1.660   4.567  11.523 -0.5241 -0.4320 -0.2708
 1228TIP3    H125099   1.650   4.472  11.517  0.5501 -0.5484 -0.2412
 1228TIP3    H225100   1.592   4.602  11.465 -0.4499 -1.2317 -0.8361
 1229TIP3   OH225101   3.091   2.208  11.874  0.3708 -0.4993 -0.0754
 1229TIP3    H125102   3.057   2.228  11.787 -0.2503  0.2121  0.3262
 1229TIP3    H225103   3.014   2.195  11.928  0.7711 -3.1398 -0.1035
 1230TIP3   OH225104   7.141   2.543  11.029 -0.4698  0.7614 -0.5304
 1230TIP3    H125105   7.088   2.618  11.003 -0.3405  0.3438 -2.0535
 1230TIP3    H225106   7.121   2.476  10.964  0.2741 -0.1341  0.1522
 1231TIP3   OH225107   1.600   3.142  10.065  0.5625  0.1458 -0.5917
 1231TIP3    H125108   1.510   3.173  10.052  0.1445 -0.3452  0.9685
 1231TIP3    H225109   1.590   3.047  10.079  1.1949  0.2693  0.7710
 1232TIP3   OH225110   6.731   4.524  11.379 -0.3703 -0.1516 -0.8643
 1232TIP3    H125111   6.661   4.512  11.314  0.2994  0.7880 -1.7679
 1232TIP3    H225112   6.811   4.528  11.327  0.4612 -2.0845  0.2307
 1233TIP3   OH225113   6.947   2.898  10.667 -0.2655  0.5708  0.2371
 1233TIP3    H125114   6.854   2.907  10.688 -0.4447  0.8373 -0.6459
 1233TIP3    H225115   6.949   2.861  10.579  0.4725 -0.1722  0.5568
 1234TIP3   OH225116   0.759   3.912  10.480 -0.3329 -0.1875 -0.6275
 1234TIP3    H125117   0.783   3.857  10.405 -1.5652  1.6299 -2.4270
 1234TIP3    H225118   0.821   3.984  10.479 -0.1958 -0.2863  0.2657
 1235TIP3   OH225119   0.394   3.358  11.063  0.3265  0.1897 -0.0273
 1235TIP3    H125120   0.339   3.341  11.139  3.0140 -0.3679  1.8592
 1235TIP3    H225121   0.364   3.443  11.030  0.4146  1.3884  2.8482
 1236TIP3   OH225122   1.134   3.546  10.089 -0.5737  0.1935  0.1703
 1236TIP3    H125123   1.224   3.565  10.115 -0.3523  0.3675 -0.6926
 1236TIP3    H225124   1.140   3.463  10.042 -1.1627 -0.7764  1.7588
 1237TIP3   OH225125   1.554   2.850  12.362  0.4813 -0.1174  0.1761
 1237TIP3    H125126   1.612   2.784  12.325  1.6653  2.4446 -2.7945
 1237TIP3    H225127   1.595   2.876  12.444  1.0030 -1.6874  0.4195
 1238TIP3   OH225128   0.198   1.936  10.588 -0.0288  0.0238  0.1286
 1238TIP3    H125129   0.193   1.993  10.511 -0.8931 -0.5765 -0.2666
 1238TIP3    H225130   0.286   1.950  10.622 -0.1145  1.3530 -0.1533
 1239TIP3   OH225131   6.453   2.108  10.720 -0.6036 -0.2774  0.3819
 1239TIP3    H125132   6.457   2.092  10.626  0.2325 -0.7442  0.4869
 1239TIP3    H225133   6.536   2.150  10.741 -1.1855  0.7033  0.7584
 1240TIP3   OH225134   2.367   3.281  10.178  0.0599  0.3748  0.0699
 1240TIP3    H125135   2.330   3.193  10.164 -0.5452  0.5190  0.7082
 1240TIP3    H225136   2.357   3.325  10.094 -1.1825  0.3947  0.2206
 1241TIP3   OH225137   1.422   2.404  10.697 -0.0736  0.5050  0.2635
 1241TIP3    H125138   1.328   2.391  10.699  0.0278 -0.1855  0.6481
 1241TIP3    H225139   1.458   2.317  10.678  0.4963  0.7189  0.3454
 1242TIP3   OH225140   1.475   4.345  12.499 -0.0517  0.8134 -0.0169
 1242TIP3    H125141   1.519   4.397  12.567 -0.2183  2.8629 -1.4522
 1242TIP3    H225142   1.531   4.268  12.489  0.6678  1.0989  1.5371
 1243TIP3   OH225143   2.900   2.653  10.627  0.2041  0.7470 -0.5109
 1243TIP3    H125144   2.879   2.670  10.719 -1.8782  2.6927 -1.2941
 1243TIP3    H225145   2.883   2.737  10.583  1.9692  0.0822 -2.5563
 1244TIP3   OH225146   1.453   1.199  10.845 -0.1996 -0.4235  0.0664
 1244TIP3    H125147   1.516   1.158  10.904  0.7661  1.5849  0.4780
 1244TIP3    H225148   1.487   1.287  10.832 -1.6763 -0.0822 -1.6109
 1245TIP3   OH225149   3.289   1.847  10.445  0.0368  0.3227  0.2867
 1245TIP3    H125150   3.257   1.796  10.520 -0.7860  0.4396  0.0267
 1245TIP3    H225151   3.308   1.781  10.378  3.5902 -0.0468  1.5600
 1246TIP3   OH225152   1.460   0.941  11.295 -0.1582  0.3270  0.0279
 1246TIP3    H125153   1.422   1.022  11.260  0.1443  1.0704  1.3852
 1246TIP3    H225154   1.489   0.965  11.383 -0.8873 -1.4946  0.7842
 1247TIP3   OH225155   6.139   3.599  12.312 -0.1472 -0.4185 -0.0683
 1247TIP3    H125156   6.234   3.596  12.308  0.0357  2.7081  0.7824
 1247TIP3    H225157   6.118   3.620  12.403 -1.3835  3.5174 -1.1235
 1248TIP3   OH225158   3.074   0.090  11.708 -0.0575 -0.6574 -0.3788
 1248TIP3    H125159   3.038   0.177  11.725  0.1920 -0.4860 -0.7231
 1248TIP3    H225160   3.127   0.070  11.785 -1.5533 -1.2667  0.5206
 1249TIP3   OH225161   6.854   0.957  11.247  0.5328  0.1510 -0.0507
 1249TIP3    H125162   6.843   0.988  11.337 -0.0665 -3.3827  1.1525
 1249TIP3    H225163   6.944   0.925  11.243  0.2318 -0.6554 -0.4080
 1250TIP3   OH225164   2.698   0.942  11.216  0.2509 -0.0477  0.1216
 1250TIP3    H125165   2.652   0.864  11.186 -0.4065  0.1289  0.6529
 1250TIP3    H225166   2.630   1.008  11.225  0.8363  0.6656 -0.5543
 1251TIP3   OH225167   6.822   3.481  12.417  0.2277 -0.0687 -0.1810
 1251TIP3    H125168   6.797   3.549  12.479  0.5171  0.2609 -0.4212
 1251TIP3    H225169   6.781   3.507  12.335 -0.7377 -0.8804  0.0384
 1252TIP3   OH225170   0.424   3.106   9.896  0.2636 -0.0809  0.2345
 1252TIP3    H125171   0.359   3.130   9.830  1.2531  0.3496 -0.5971
 1252TIP3    H225172   0.414   3.173   9.964 -0.1936 -0.0407  0.1288
 1253TIP3   OH225173   7.250   2.330  11.494  0.6386  0.2110 -0.2940
 1253TIP3    H125174   7.244   2.382  11.415 -0.0734 -2.3195 -1.9497
 1253TIP3    H225175   7.330   2.361  11.537  1.3901  1.1657 -2.3321
 1254TIP3   OH225176   0.465   0.960  11.408 -0.0561  0.3476 -0.0343
 1254TIP3    H125177   0.402   0.905  11.454  0.2759 -0.4110 -0.4837
 1254TIP3    H225178   0.548   0.915  11.417  0.6413  1.9043  1.4846
 1255TIP3   OH225179   0.336   4.837  12.310  0.7149  0.0358 -0.6244
 1255TIP3    H125180   0.268   4.904  12.306 -0.8125 -1.4832 -0.5778
 1255TIP3    H225181   0.342   4.814  12.403 -1.0416 -2.1390 -1.0072
 1256TIP3   OH225182   1.774   3.350  10.455 -0.1363 -0.3524  0.2238
 1256TIP3    H125183   1.834   3.423  10.446  2.3824 -2.1649  1.8049
 1256TIP3    H225184   1.729   3.346  10.370  1.6595  1.2958 -0.8498
 1257TIP3   OH225185   0.018   4.062  10.329 -0.2931 -0.1047  0.0957
 1257TIP3    H125186   0.065   4.145  10.336 -0.1112 -0.1811 -0.2294
 1257TIP3    H225187  -0.071   4.086  10.303 -0.5144  0.0615  0.9934
 1258TIP3   OH225188   1.454   2.848  12.846  0.3035  0.7729 -0.0165
 1258TIP3    H125189   1.545   2.833  12.820  1.0996  1.2743  2.3694
 1258TIP3    H225190   1.449   2.942  12.862 -0.8220  0.8407 -0.7191
 1259TIP3   OH225191   1.108   3.351  11.708 -0.1415 -0.1707 -0.0903
 1259TIP3    H125192   1.036   3.409  11.735  1.5155  1.8795  0.0235
 1259TIP3    H225193   1.096   3.339  11.614 -0.3889  0.4881 -0.1411
 1260TIP3   OH225194   6.071   1.972  11.051  0.1643  0.1738  0.3376
 1260TIP3    H125195   6.141   2.021  11.008  1.5193  0.4140  2.7328
 1260TIP3    H225196   6.087   1.881  11.026 -0.6904  0.5991 -1.8443
 1261TIP3   OH225197   6.437   1.333  10.275 -0.7409 -0.3316  1.1833
 1261TIP3    H125198   6.501   1.345  10.205 -1.3825  1.1137  0.8153
 1261TIP3    H225199   6.394   1.250  10.254  0.3372 -0.8227  0.8943
 1262TIP3   OH225200   3.109   4.381  11.473 -1.1183  0.4863  0.4724
 1262TIP3    H125201   3.052   4.312  11.437 -0.5752  0.8048 -1.0506
 1262TIP3    H225202   3.178   4.390  11.407  1.0116 -0.2860  2.5559
 1263TIP3   OH225203   2.553   0.826  12.879  0.4604 -0.2935 -0.0067
 1263TIP3    H125204   2.525   0.796  12.965 -0.1405  0.2068 -0.0260
 1263TIP3    H225205   2.482   0.803  12.820  0.1670  0.7845 -0.0909
 1264TIP3   OH225206   1.929   2.965  10.363 -0.0623 -0.6835 -0.3295
 1264TIP3    H125207   2.003   2.938  10.309 -0.4379 -1.3379 -0.5286
 1264TIP3    H225208   1.889   2.883  10.392  0.1725 -0.3381  1.0081
 1265TIP3   OH225209   1.565   7.288  11.861 -0.1582  0.3361 -0.4218
 1265TIP3    H125210   1.519   7.295  11.778 -0.3187 -0.0250 -0.3635
 1265TIP3    H225211   1.573   7.194  11.877 -1.3235  0.4073  0.6350
 1266TIP3   OH225212   2.642   3.108  10.111  0.1673  0.0784 -0.0854
 1266TIP3    H125213   2.713   3.154  10.066 -0.9543  1.2376 -0.7023
 1266TIP3    H225214   2.605   3.050  10.044  0.8571 -0.9419  0.3875
 1267TIP3   OH225215   2.904   4.177  11.420 -0.1091  0.0751 -0.6422
 1267TIP3    H125216   2.826   4.183  11.475 -1.4473 -2.0810 -2.2469
 1267TIP3    H225217   2.879   4.218  11.338  0.4059 -0.7399 -1.2105
 1268TIP3   OH225218   4.363   2.542  14.053  0.7049 -0.2196 -0.8078
 1268TIP3    H125219   4.439   2.578  14.098  0.5360 -0.1697 -0.5620
 1268TIP3    H225220   4.298   2.612  14.056 -0.1455 -1.0516  0.9597
 1269TIP3   OH225221   2.480   2.257  11.158  0.2312  0.4318 -0.3839
 1269TIP3    H125222   2.425   2.281  11.083 -0.2270  1.2992  0.2366
 1269TIP3    H225223   2.561   2.306  11.144  0.1451  0.5957 -0.3070
 1270TIP3   OH225224   5.350   2.739  12.034 -0.0490  0.1929  0.2901
 1270TIP3    H125225   5.298   2.683  11.978  0.5962 -1.2259  1.0869
 1270TIP3    H225226   5.439   2.733  12.000 -0.2548  2.0862 -0.6592
 1271TIP3   OH225227   6.081   4.399  10.240 -0.2051  0.2868  0.3852
 1271TIP3    H125228   6.111   4.330  10.180  1.5573 -0.0669  1.6519
 1271TIP3    H225229   6.010   4.358  10.289 -2.5355  0.9658 -2.2670
 1272TIP3   OH225230   1.959   1.443  10.562  0.0550 -0.3034  0.5850
 1272TIP3    H125231   2.013   1.433  10.484 -1.2448  0.7944 -0.4608
 1272TIP3    H225232   1.882   1.390  10.544  0.7340 -1.8454  2.0670
 1273TIP3   OH225233   2.356   1.760  11.387 -0.3851  0.0406  0.0728
 1273TIP3    H125234   2.402   1.683  11.355 -1.7058 -0.1986 -1.3499
 1273TIP3    H225235   2.418   1.832  11.374  0.6956 -0.7042  1.0168
 1274TIP3   OH225236   0.525   1.390  12.254  0.3576  0.3931  0.2461
 1274TIP3    H125237   0.449   1.423  12.206  1.8356  1.6879 -1.3048
 1274TIP3    H225238   0.550   1.462  12.312 -0.1093 -0.3538  1.3852
 1275TIP3   OH225239   0.875   2.610  10.453 -0.2854  0.0677 -0.6169
 1275TIP3    H125240   0.780   2.610  10.436 -0.5202 -1.3635  0.5820
 1275TIP3    H225241   0.885   2.659  10.534  0.3608  2.9098 -2.3451
 1276TIP3   OH225242   0.422   1.708  10.672  0.2964  0.1648 -0.0453
 1276TIP3    H125243   0.505   1.665  10.689 -0.2481 -0.8586  0.0923
 1276TIP3    H225244   0.424   1.728  10.578 -0.7858 -3.1987 -0.8753
 1277TIP3   OH225245   4.315   4.690  10.503 -0.4874  0.5218  0.1160
 1277TIP3    H125246   4.307   4.685  10.408 -1.0744 -0.2996  0.2060
 1277TIP3    H225247   4.310   4.784  10.523 -0.6948  0.6706 -0.6296
 1278TIP3   OH225248   2.036   5.608  11.531 -0.1503  0.2091 -0.5363
 1278TIP3    H125249   2.088   5.596  11.610  1.5070  1.0996 -1.4589
 1278TIP3    H225250   1.979   5.682  11.550 -1.2931 -0.9539  0.5863
 1279TIP3   OH225251   6.903   1.716  10.535  0.6864 -0.5145  0.2327
 1279TIP3    H125252   6.813   1.731  10.506  0.1665 -0.7081  1.7489
 1279TIP3    H225253   6.922   1.791  10.592  1.5245 -0.4203 -0.1701
 1280TIP3   OH225254   1.446   3.509  13.737  0.0330  0.4975  0.0670
 1280TIP3    H125255   1.392   3.505  13.658  0.1436  0.7979 -0.0276
 1280TIP3    H225256   1.536   3.511  13.704  0.1195 -0.5231  0.2391
 1281TIP3   OH225257   1.130   2.896  11.178 -0.4060 -0.4879  0.3350
 1281TIP3    H125258   1.056   2.841  11.151 -0.5397 -0.4017  0.5297
 1281TIP3    H225259   1.096   2.950  11.249  0.1976 -1.3161  1.2520
 1282TIP3   OH225260   6.642   4.062  11.824 -0.0927  0.5144 -0.1864
 1282TIP3    H125261   6.675   4.150  11.845  0.8188 -0.2266  1.5960
 1282TIP3    H225262   6.661   4.051  11.731 -1.8795  2.9144 -0.9010
 1283TIP3   OH225263   6.355   4.348  10.793  0.0062  0.2479 -0.2737
 1283TIP3    H125264   6.334   4.440  10.775 -0.8210  0.2554  0.6444
 1283TIP3    H225265   6.396   4.316  10.713 -0.6146  1.1460 -0.9623
 1284TIP3   OH225266   1.136   1.986  12.216  0.4353 -0.5999 -0.4897
 1284TIP3    H125267   1.059   2.024  12.174  1.8115  0.3454 -2.1941
 1284TIP3    H225268   1.181   2.060  12.256  0.2855 -1.2003  0.8132
 1285TIP3   OH225269   0.282   2.822  12.812  0.0859  0.1281  0.2565
 1285TIP3    H125270   0.210   2.796  12.755  0.4275 -0.1965 -0.0286
 1285TIP3    H225271   0.352   2.849  12.752  0.5219 -0.4188  0.5060
 1286TIP3   OH225272   1.522   1.632  14.293  0.5404 -0.3093 -0.1974
 1286TIP3    H125273   1.488   1.717  14.320 -3.6788 -0.6751 -3.7951
 1286TIP3    H225274   1.493   1.572  14.363 -1.2418  0.3866 -0.3061
 1287TIP3   OH225275   0.754   2.614  12.046  0.0062 -0.3622  0.0647
 1287TIP3    H125276   0.697   2.635  11.973  0.4364  1.7863  0.3316
 1287TIP3    H225277   0.770   2.520  12.038 -1.6555 -0.5374 -1.3595
 1288TIP3   OH225278   0.872   1.791  10.693 -0.6153  0.5466 -0.2824
 1288TIP3    H125279   0.959   1.831  10.697 -1.1282  1.7247 -0.6372
 1288TIP3    H225280   0.886   1.710  10.645 -0.0950  1.8438 -2.4021
 1289TIP3   OH225281   0.775   2.671  10.111  0.2280 -0.0490 -0.1137
 1289TIP3    H125282   0.797   2.763  10.104  1.9931 -0.3543  1.1943
 1289TIP3    H225283   0.859   2.626  10.125 -0.4959 -1.9426 -1.5492
 1290TIP3   OH225284   2.324   1.527   9.975 -0.0926 -0.7750 -0.9878
 1290TIP3    H125285   2.390   1.459   9.985 -0.1257 -0.3448  2.9143
 1290TIP3    H225286   2.244   1.479   9.952  0.5361 -1.7436 -1.1983
 1291TIP3   OH225287   1.210   3.202  12.676 -0.2255 -0.0794 -0.4322
 1291TIP3    H125288   1.147   3.261  12.718 -0.0761 -0.9144  1.0009
 1291TIP3    H225289   1.293   3.251  12.677 -0.4442  0.2958 -0.6605
 1292TIP3   OH225290   1.013   1.628   9.818  0.8304 -0.0658  0.1712
 1292TIP3    H125291   0.998   1.575   9.897 -0.2821  1.6451  1.1179
 1292TIP3    H225292   1.073   1.575   9.766  0.5810 -1.8006  1.5842
 1293TIP3   OH225293   0.636   0.103  11.259 -0.2079  0.0047 -0.3530
 1293TIP3    H125294   0.608   0.107  11.351  0.0656 -0.0373 -0.2665
 1293TIP3    H225295   0.595   0.179  11.218  0.8076  0.8362  0.1234
 1294TIP3   OH225296   1.752   2.631  12.193  0.0882  0.2891 -0.3205
 1294TIP3    H125297   1.822   2.571  12.218  0.0939  0.1711 -0.6179
 1294TIP3    H225298   1.675   2.600  12.241  0.1253  0.1296 -0.3639
 1295TIP3   OH225299   0.247   2.382  11.390  0.5229  0.2535 -0.2925
 1295TIP3    H125300   0.248   2.457  11.330  0.7393 -0.8829 -1.7610
 1295TIP3    H225301   0.236   2.306  11.332  2.2248 -0.9940  0.9820
 1296TIP3   OH225302   7.178   3.492  10.288  0.4672  0.5697  0.1642
 1296TIP3    H125303   7.194   3.528  10.376 -0.4662 -1.7590  1.3360
 1296TIP3    H225304   7.095   3.445  10.296 -0.7662  2.1791 -2.5903
 1297TIP3   OH225305   1.301   0.231  10.618  0.4749 -0.5300  0.4152
 1297TIP3    H125306   1.214   0.262  10.591  0.6601 -0.7931 -0.5080
 1297TIP3    H225307   1.294   0.221  10.713  0.0971  1.3833  0.6195
 1298TIP3   OH225308   1.153   0.810  13.548 -0.1702 -0.0498 -0.2125
 1298TIP3    H125309   1.085   0.799  13.481 -1.0857  0.1669  0.6684
 1298TIP3    H225310   1.107   0.798  13.631  0.7273  0.8238  0.4205
 1299TIP3   OH225311   0.402   1.207  13.196 -0.2105  0.2158 -0.0691
 1299TIP3    H125312   0.355   1.143  13.249  0.6158 -0.6485 -0.3735
 1299TIP3    H225313   0.453   1.155  13.134 -1.8331  1.2196 -2.3179
 1300TIP3   OH225314   3.178   3.684  12.694 -0.1777  0.0237  0.0193
 1300TIP3    H125315   3.156   3.615  12.757  0.1787 -0.4118 -0.3334
 1300TIP3    H225316   3.270   3.670  12.673  0.3235  1.5832  1.1484
 1301TIP3   OH225317   3.799   2.865  10.310  0.2108 -0.2227  0.0881
 1301TIP3    H125318   3.886   2.836  10.283 -0.0941 -0.4891 -0.6565
 1301TIP3    H225319   3.790   2.835  10.400  1.2069  0.5461  0.4481
 1302TIP3   OH225320   1.923   3.121  10.880  0.0581 -0.5496  0.2616
 1302TIP3    H125321   1.853   3.069  10.920  0.2260 -0.8454  0.1727
 1302TIP3    H225322   1.910   3.111  10.786  0.1211 -0.4727  0.2430
 1303TIP3   OH225323   2.108   2.145  10.728 -0.1649 -0.4740 -0.8106
 1303TIP3    H125324   2.091   2.232  10.763  2.4485  0.0423 -0.7521
 1303TIP3    H225325   2.053   2.140  10.649 -2.2734  0.2282  0.5596
 1304TIP3   OH225326   3.307   1.035  10.913  0.0433 -0.1897  0.1534
 1304TIP3    H125327   3.287   0.978  10.839 -1.4246  0.1988  0.2380
 1304TIP3    H225328   3.257   1.115  10.896  0.9758  0.5333  0.7475
 1305TIP3   OH225329   1.781   4.476  10.466  0.1726 -0.0206  0.1667
 1305TIP3    H125330   1.876   4.485  10.474 -0.0492 -0.1701  3.3848
 1305TIP3    H225331   1.746   4.560  10.495 -0.7669 -0.9808  1.8895
 1306TIP3   OH225332   2.253   2.040  11.138  0.2520 -0.2810 -0.2000
 1306TIP3    H125333   2.315   2.105  11.171 -0.2480  0.2064 -0.2060
 1306TIP3    H225334   2.306   1.977  11.090  0.8176 -0.2167  0.3343
 1307TIP3   OH225335   0.461   2.072  10.902  0.6938 -0.7524 -0.2178
 1307TIP3    H125336   0.387   2.014  10.883 -1.0725  1.0022  1.0917
 1307TIP3    H225337   0.536   2.031  10.857 -0.2240 -4.6488  1.5899
 1308TIP3   OH225338   2.863   3.383  10.239 -0.3458 -0.6372  0.2620
 1308TIP3    H125339   2.934   3.428  10.285  0.4803 -0.6624 -0.9576
 1308TIP3    H225340   2.907   3.315  10.188 -1.0556  0.4061 -1.7907
 1309TIP3   OH225341   2.220   3.165  11.563 -0.4787 -0.3049  0.8095
 1309TIP3    H125342   2.176   3.250  11.562  0.7481  0.3350  0.6632
 1309TIP3    H225343   2.191   3.125  11.645 -1.8760 -0.1890  0.3869
 1310TIP3   OH225344   3.838   0.797  10.743 -0.2902 -0.5990 -0.6870
 1310TIP3    H125345   3.856   0.828  10.654 -0.3013 -1.7925 -1.1234
 1310TIP3    H225346   3.773   0.858  10.777  1.4081  1.2443 -0.6382
 1311TIP3   OH225347   1.826   2.254  10.904  0.1912  0.2560 -0.2835
 1311TIP3    H125348   1.773   2.179  10.876  0.9190 -1.2317  2.2018
 1311TIP3    H225349   1.781   2.289  10.980 -0.8671  3.2385 -2.2006
 1312TIP3   OH225350   1.860   1.902  10.081  0.1744  0.3575  0.2070
 1312TIP3    H125351   1.780   1.862  10.047  0.9017 -0.4585 -0.5867
 1312TIP3    H225352   1.851   1.897  10.176 -0.3580 -0.4656  0.1228
 1313TIP3   OH225353   3.949   2.211  11.018 -0.0184  0.2587 -0.4053
 1313TIP3    H125354   4.035   2.183  11.051  0.4184 -0.7271 -2.2976
 1313TIP3    H225355   3.890   2.198  11.092  0.9347 -1.9140  0.0228
 1314TIP3   OH225356   2.709   2.865  10.626  0.3166  0.3229  0.2011
 1314TIP3    H125357   2.723   2.925  10.553  2.6337  0.0046  0.3429
 1314TIP3    H225358   2.653   2.913  10.686  0.0068  1.3425 -0.8784
 1315TIP3   OH225359   2.351   3.012  11.370 -0.7091 -0.9115 -0.2177
 1315TIP3    H125360   2.273   3.046  11.415 -0.9091 -2.7458  0.8617
 1315TIP3    H225361   2.319   2.982  11.285 -1.3961 -2.6037  0.6192
 1316TIP3   OH225362   4.168   1.330  10.638  0.5248  0.1502 -0.3673
 1316TIP3    H125363   4.141   1.290  10.555  1.6382  2.6499 -1.9719
 1316TIP3    H225364   4.088   1.370  10.672  0.2632 -0.0610 -0.7261
 1317TIP3   OH225365   0.201   1.622  10.808 -0.0916  0.3589  0.3065
 1317TIP3    H125366   0.138   1.664  10.750 -0.5798  0.8352  1.1799
 1317TIP3    H225367   0.286   1.655  10.778 -0.0886 -1.4752 -1.8820
 1318TIP3   OH225368   2.678   2.568  11.823  0.1970 -0.3249  0.1313
 1318TIP3    H125369   2.669   2.538  11.732 -2.0212  0.5652  0.0161
 1318TIP3    H225370   2.641   2.656  11.822  1.2272  0.1356  1.6808
 1319TIP3   OH225371   0.485   2.279  11.110  0.5249 -0.4058 -0.2789
 1319TIP3    H125372   0.417   2.248  11.170 -0.5352 -0.6919 -1.6130
 1319TIP3    H225373   0.473   2.228  11.031 -0.2390  2.2859 -1.9650
 1320TIP3   OH225374   3.588   2.977  10.043  0.3509 -0.1446  0.0178
 1320TIP3    H125375   3.663   3.016   9.998  0.5805 -0.5691  0.0335
 1320TIP3    H225376   3.623   2.897  10.081  0.1811  0.2615  1.0325
 1321TIP3   OH225377   1.796   0.985   9.743 -0.2257 -0.2505  0.1913
 1321TIP3    H125378   1.849   1.025   9.811 -0.8976 -0.2405  0.7105
 1321TIP3    H225379   1.732   0.932   9.790 -1.7688  1.0837 -0.3678
 1322TIP3   OH225380   2.714   3.014  10.392 -0.1926  0.0418  0.3584
 1322TIP3    H125381   2.663   3.093  10.412  0.0256 -0.4051  2.7782
 1322TIP3    H225382   2.734   3.022  10.298 -0.9314  2.4081  0.3644
 1323TIP3   OH225383   1.522   2.891   9.950  0.0599 -0.2512  0.2057
 1323TIP3    H125384   1.463   2.952   9.906 -0.2423  0.2886  1.3360
 1323TIP3    H225385   1.594   2.879   9.889 -0.9772 -0.5426 -0.9875
 1324TIP3   OH225386   4.083   1.934  10.352  0.4305 -0.2233 -0.1840
 1324TIP3    H125387   4.016   1.894  10.296  0.4794  0.9099 -1.0552
 1324TIP3    H225388   4.038   1.950  10.435 -0.5033  0.8750 -0.8826
 1325TIP3   OH225389   4.926   2.365  10.896  0.1157 -0.2028  0.7456
 1325TIP3    H125390   4.986   2.371  10.970  1.0094  1.0773 -0.0606
 1325TIP3    H225391   4.872   2.288  10.915  2.1149 -1.4790  1.3994
 1326TIP3   OH225392   2.106   1.055  10.811 -0.8536  0.2659 -0.3173
 1326TIP3    H125393   2.116   1.064  10.716  2.2164  0.3812 -0.0472
 1326TIP3    H225394   2.109   1.145  10.843  0.4823  0.1200  0.0307
 1327TIP3   OH225395   4.533   5.558  11.624 -0.1973 -0.1439  0.5164
 1327TIP3    H125396   4.497   5.561  11.712 -0.1073  2.3810  0.4960
 1327TIP3    H225397   4.590   5.634  11.618  0.7917 -0.9832 -1.3027
 1328TIP3   OH225398   3.927   4.127  10.721  0.3863  0.0688  0.2306
 1328TIP3    H125399   3.957   4.215  10.744  1.9748  0.0987 -1.8188
 1328TIP3    H225400   4.005   4.072  10.730 -0.3650 -0.9558  0.5505
 1329TIP3   OH225401   3.893   2.690  11.460 -0.3150  0.6369  0.2399
 1329TIP3    H125402   3.988   2.692  11.467 -0.1681  1.1297 -1.5180
 1329TIP3    H225403   3.872   2.759  11.397 -1.8971  1.0318  1.1599
 1330TIP3   OH225404   4.245   1.667  11.692 -0.3135  0.4730  0.4386
 1330TIP3    H125405   4.308   1.738  11.701  2.9753 -2.1226 -0.7904
 1330TIP3    H225406   4.196   1.689  11.612  0.3379  1.5761  0.3302
 1331TIP3   OH225407   2.879   1.018  10.042 -0.3886  0.1481 -0.2938
 1331TIP3    H125408   2.960   1.031   9.994 -0.4958  0.8978 -0.2862
 1331TIP3    H225409   2.810   1.046   9.981 -0.4633  2.0223  0.6078
 1332TIP3   OH225410   3.452   5.338  11.443  0.1020  0.1237  0.4851
 1332TIP3    H125411   3.536   5.362  11.405 -0.8742  0.6869 -1.3768
 1332TIP3    H225412   3.419   5.419  11.481 -1.1915  0.7759 -1.9288
 1333TIP3   OH225413   1.744   2.664  10.787  0.1522  0.3073  0.2863
 1333TIP3    H125414   1.684   2.676  10.713  1.4707 -1.1931 -1.0656
 1333TIP3    H225415   1.778   2.575  10.776  1.9162  0.8014  1.5479
 1334TIP3   OH225416   2.472   3.047  12.259  0.0077 -0.3782  0.3668
 1334TIP3    H125417   2.417   3.110  12.212  1.1230 -0.1084 -0.5953
 1334TIP3    H225418   2.512   3.097  12.330  0.1497 -0.2344  0.1836
 1335TIP3   OH225419   4.396   3.484  11.826 -0.2730 -0.5987  0.0312
 1335TIP3    H125420   4.486   3.510  11.848  0.1345 -3.6758  2.4649
 1335TIP3    H225421   4.385   3.400  11.871 -4.3284 -0.3475 -0.3767
 1336TIP3   OH225422   4.376   2.708  11.800 -0.0268  0.3626 -0.1334
 1336TIP3    H125423   4.306   2.766  11.767 -0.4554  0.2156  0.5219
 1336TIP3    H225424   4.355   2.622  11.764 -0.8040  0.0857  0.9658
 1337TIP3   OH225425   7.285   2.971  13.370  0.4912  0.1452 -0.0234
 1337TIP3    H125426   7.337   3.040  13.412  2.0333 -2.0711  1.8710
 1337TIP3    H225427   7.350   2.906  13.342 -0.9421 -0.6522 -1.5720
 1338TIP3   OH225428   5.033   2.621  10.803 -0.2787  0.2356 -0.4664
 1338TIP3    H125429   4.970   2.677  10.756 -0.9059  0.7789  1.0094
 1338TIP3    H225430   4.986   2.539  10.817  0.1243 -0.1460 -1.3140
 1339TIP3   OH225431   2.906   4.421  13.071  0.0154  0.2169 -0.0043
 1339TIP3    H125432   2.979   4.425  13.010 -0.1515  0.7095 -0.1777
 1339TIP3    H225433   2.885   4.328  13.078 -1.2798  0.2915 -2.2886
 1340TIP3   OH225434   2.439   3.598  11.580 -0.0137  0.2211  0.4704
 1340TIP3    H125435   2.344   3.588  11.580 -0.1625  1.5292 -1.0471
 1340TIP3    H225436   2.456   3.668  11.643 -0.2430  1.5851 -0.9753
 1341TIP3   OH225437   2.062   4.532  10.425  0.5742  0.1919  0.0120
 1341TIP3    H125438   2.127   4.490  10.481  1.0241 -0.1019 -0.7323
 1341TIP3    H225439   2.112   4.595  10.373  0.0877  0.7810  0.2463
 1342TIP3   OH225440   2.707   3.416  10.529  0.3260 -0.4762  0.4882
 1342TIP3    H125441   2.760   3.428  10.451  0.4993 -0.9632  0.5280
 1342TIP3    H225442   2.735   3.331  10.564 -1.2161 -1.2298 -0.0677
 1343TIP3   OH225443   0.823   3.007  10.241  0.1949 -0.2553  0.2926
 1343TIP3    H125444   0.880   3.013  10.318  1.4864  1.3846 -0.7706
 1343TIP3    H225445   0.843   3.085  10.190 -0.9762 -1.0989 -1.5005
 1344TIP3   OH225446   2.127   1.746  13.238  0.5671  0.7196 -0.2319
 1344TIP3    H125447   2.139   1.779  13.149  0.0717 -2.2624 -1.4462
 1344TIP3    H225448   2.136   1.824  13.294  3.7999  2.1723 -2.6340
 1345TIP3   OH225449   2.277   2.896  11.118 -0.4576  0.5843 -0.2441
 1345TIP3    H125450   2.289   2.802  11.105  1.1780  0.6947  0.3500
 1345TIP3    H225451   2.283   2.933  11.031  0.3131  0.2856 -0.3204
 1346TIP3   OH225452   3.053   2.443  10.495  0.2935 -0.7773 -0.0511
 1346TIP3    H125453   3.027   2.358  10.529 -1.6642 -0.0862  0.2494
 1346TIP3    H225454   3.003   2.506  10.547  1.6941  0.5465 -0.2917
 1347TIP3   OH225455   1.488   3.723  10.501  0.2702 -0.1533  0.4555
 1347TIP3    H125456   1.494   3.717  10.406 -1.4233  1.2931  0.2186
 1347TIP3    H225457   1.577   3.709  10.532  0.4635 -2.9716 -1.1859
 1348TIP3   OH225458   2.234   4.547  11.274 -0.3208 -0.0661  0.3893
 1348TIP3    H125459   2.302   4.598  11.319 -1.8334  2.8446 -0.5113
 1348TIP3    H225460   2.283   4.490  11.214  1.4867 -0.8398  2.5432
 1349TIP3   OH225461   2.293   6.349  11.137 -1.0004 -0.7409 -0.4171
 1349TIP3    H125462   2.288   6.259  11.171  0.4940 -0.0246  1.8517
 1349TIP3    H225463   2.386   6.372  11.147 -1.8959  2.1596  2.1006
 1350TIP3   OH225464   3.680   0.816  11.351  0.0873  0.1668  0.2339
 1350TIP3    H125465   3.657   0.867  11.273 -3.2140 -1.9492 -0.2560
 1350TIP3    H225466   3.743   0.751  11.319 -0.7203 -0.2503 -0.5251
 1351TIP3   OH225467   2.301   2.127  10.307  0.1476  0.1750  0.0737
 1351TIP3    H125468   2.245   2.156  10.235  0.3252 -1.2146 -0.6330
 1351TIP3    H225469   2.389   2.156  10.281 -0.0360  1.2182  0.5748
 1352TIP3   OH225470   1.876   2.387  13.079  0.7436 -0.4051  0.2380
 1352TIP3    H125471   1.825   2.324  13.028  1.4174 -1.0479  0.3598
 1352TIP3    H225472   1.963   2.384  13.041  0.6295  0.9012 -0.1516
 1353TIP3   OH225473   3.737   3.597  11.467  0.9018 -0.2596 -0.4790
 1353TIP3    H125474   3.829   3.581  11.487  0.6673 -0.0941  0.8305
 1353TIP3    H225475   3.700   3.510  11.451  0.4969 -0.7312  2.6768
 1354TIP3   OH225476   3.569   1.749   9.695  0.1109 -0.1696 -0.1818
 1354TIP3    H125477   3.551   1.841   9.681 -1.3552 -0.7231 -2.1166
 1354TIP3    H225478   3.664   1.741   9.681  0.2861  1.0697  0.2675
 1355TIP3   OH225479   2.416   2.608  14.579  0.3632 -0.2463 -0.0883
 1355TIP3    H125480   2.460   2.604  14.664 -1.2561 -1.6779  0.7062
 1355TIP3    H225481   2.439   2.525  14.537 -0.1872 -0.2617 -0.3576
 1356TIP3   OH225482   2.909   6.799  14.470  0.2020  0.2585 -0.5720
 1356TIP3    H125483   2.926   6.834  14.557  3.4485 -0.7684 -0.7078
 1356TIP3    H225484   2.843   6.731  14.483  0.7320  0.0458  1.1073
 1357TIP3   OH225485   2.808   0.705  12.125  0.1593 -0.3073 -0.0099
 1357TIP3    H125486   2.857   0.774  12.080  0.1203 -0.1900  0.1281
 1357TIP3    H225487   2.718   0.713  12.092  0.5031 -1.3676 -1.2655
 1358TIP3   OH225488   2.208   0.753  10.029  0.8244  0.2044  0.6287
 1358TIP3    H125489   2.277   0.760  10.096 -0.0345 -0.4851  1.5981
 1358TIP3    H225490   2.238   0.810   9.958  2.7587 -0.6552  0.7233
 1359TIP3   OH225491   0.716   3.741  12.258  0.2772 -0.4708 -0.1990
 1359TIP3    H125492   0.803   3.729  12.220 -0.2419 -0.8071 -1.3119
 1359TIP3    H225493   0.657   3.693  12.200 -0.6877 -0.0186  0.3806
 1360TIP3   OH225494   2.035   2.265   9.686  0.4271  0.0657 -0.0527
 1360TIP3    H125495   2.027   2.170   9.678  0.1321  0.1449 -0.6939
 1360TIP3    H225496   1.950   2.293   9.718  0.8572  0.0057  1.1950
 1361TIP3   OH225497   4.041   2.830  11.010 -0.0132 -0.1217  0.0796
 1361TIP3    H125498   4.135   2.810  11.005 -0.0030  0.0694 -0.5459
 1361TIP3    H225499   4.023   2.881  10.931 -0.4848  0.5109  0.5893
 1362TIP3   OH225500   2.283   2.727  10.022 -0.3911  0.2013 -0.0342
 1362TIP3    H125501   2.223   2.724  10.096 -0.3533  0.6854  0.0178
 1362TIP3    H225502   2.281   2.818   9.992  1.2539  0.5187  0.7518
 1363TIP3   OH225503   1.889   0.589  11.251  0.2404  0.1203 -0.1861
 1363TIP3    H125504   1.817   0.586  11.315  0.8303 -0.3948  0.4639
 1363TIP3    H225505   1.887   0.504  11.208 -0.2160  0.5015 -0.9364
 1364TIP3   OH225506   1.756   2.032  11.442  0.2691 -0.5206 -0.1168
 1364TIP3    H125507   1.791   1.946  11.467  0.2860 -0.5878 -0.3728
 1364TIP3    H225508   1.830   2.091  11.448  0.1394 -0.4219  0.5796
 1365TIP3   OH225509   2.856   3.210  12.500 -0.1274 -0.2625 -0.7379
 1365TIP3    H125510   2.936   3.255  12.471  1.3433 -2.5078 -0.3108
 1365TIP3    H225511   2.846   3.137  12.440 -1.9140  0.0067 -0.8039
 1366TIP3   OH225512   4.027   3.196  10.577  0.2115 -0.4198 -0.1849
 1366TIP3    H125513   4.117   3.214  10.553  0.6442 -0.2164  1.4997
 1366TIP3    H225514   3.976   3.222  10.500  1.1778  3.7962  0.4613
 1367TIP3   OH225515   3.256   1.905  11.138  0.1963 -0.1615 -0.9860
 1367TIP3    H125516   3.226   1.838  11.199 -0.3636  0.8127 -0.1793
 1367TIP3    H225517   3.176   1.942  11.101  0.4494  0.9065 -0.5005
 1368TIP3   OH225518   2.013   2.071  11.303  0.0321 -0.2789 -0.0066
 1368TIP3    H125519   2.094   2.068  11.252 -0.3602 -0.8656 -0.5960
 1368TIP3    H225520   1.957   2.005  11.263 -0.3585 -0.5980  1.0479
 1369TIP3   OH225521   2.758   3.395  11.621 -0.0571 -0.0015 -0.4235
 1369TIP3    H125522   2.783   3.400  11.529  1.4180  0.6091 -0.0102
 1369TIP3    H225523   2.789   3.478  11.658 -0.3694 -0.3743  0.6896
 1370TIP3   OH225524   2.328   2.898  10.321 -0.1226 -0.0802  0.4829
 1370TIP3    H125525   2.246   2.919  10.276 -0.3190  0.7168  1.2090
 1370TIP3    H225526   2.369   2.983  10.338  0.8457 -0.4673  0.1508
 1371TIP3   OH225527   5.381   3.103  12.272  0.2957 -0.0956 -0.7035
 1371TIP3    H125528   5.476   3.105  12.257  0.1087  0.2276 -1.9396
 1371TIP3    H225529   5.362   3.012  12.294  0.9373 -0.1009 -0.1518
 1372TIP3   OH225530   3.358   2.894  12.224 -0.1565  0.7694 -0.3876
 1372TIP3    H125531   3.349   2.917  12.132  1.2397  1.0156 -0.4634
 1372TIP3    H225532   3.342   2.799  12.227  0.7231  0.6011 -1.0140
 1373TIP3   OH225533   0.549   3.589  13.654  0.4308  0.2624 -0.7338
 1373TIP3    H125534   0.484   3.588  13.724  0.5242  0.1978 -0.6485
 1373TIP3    H225535   0.498   3.580  13.573  0.2282  1.4097 -0.7457
 1374TIP3   OH225536   2.570   3.079   9.841 -0.0123 -0.3868 -0.2690
 1374TIP3    H125537   2.653   3.073   9.793  0.2859  0.5779  0.1250
 1374TIP3    H225538   2.525   3.153   9.801  0.8098  1.2602  1.8205
 1375TIP3   OH225539   3.539   0.014  12.420 -0.2855 -0.3566 -0.1187
 1375TIP3    H125540   3.490   0.094  12.441  1.1201  0.2760  0.8498
 1375TIP3    H225541   3.488  -0.057  12.460  0.6423  0.5051  2.7516
 1376TIP3   OH225542   3.195   3.650  10.906  0.0180 -0.0263  0.0846
 1376TIP3    H125543   3.162   3.701  10.832  1.2685  2.1148  0.9760
 1376TIP3    H225544   3.189   3.709  10.980  1.4718 -1.1851  1.1528
 1377TIP3   OH225545   4.443   4.611  10.740  0.8469 -0.0546 -0.0488
 1377TIP3    H125546   4.373   4.630  10.677 -0.1126  0.0156  1.0140
 1377TIP3    H225547   4.454   4.693  10.788  2.5357  0.3158 -1.0185
 1378TIP3   OH225548   3.897   3.105  10.213  0.3349 -0.5262 -0.0679
 1378TIP3    H125549   3.953   3.078  10.140  0.1242 -0.7042 -0.1649
 1378TIP3    H225550   3.888   3.026  10.266  0.7437 -0.3120  0.3181
 1379TIP3   OH225551   2.905   3.693  11.257  0.1892  0.4880 -0.4540
 1379TIP3    H125552   2.941   3.620  11.207  0.1000  0.9094 -1.1354
 1379TIP3    H225553   2.923   3.770  11.203 -1.1931  0.7754 -0.5056
 1380TIP3   OH225554   3.102   3.213  10.389 -0.0042 -0.1335  0.3686
 1380TIP3    H125555   3.157   3.280  10.349 -1.6985 -0.1616 -2.1115
 1380TIP3    H225556   3.050   3.178  10.317 -1.6843 -1.6549  2.2533
 1381TIP3   OH225557   3.699   1.345  10.625 -0.3202 -0.3557  0.2220
 1381TIP3    H125558   3.748   1.340  10.707 -1.4057  1.0669  0.9703
 1381TIP3    H225559   3.624   1.287  10.638  0.3578 -1.3873 -0.3817
 1382TIP3   OH225560   1.667   3.377  10.190  0.1241 -0.3357 -0.0432
 1382TIP3    H125561   1.659   3.295  10.142 -0.7647 -0.1732 -0.1767
 1382TIP3    H225562   1.652   3.445  10.124 -0.2413 -0.0930  0.2917
 1383TIP3   OH225563   2.589   3.398  10.892 -0.6154  0.2351 -0.3139
 1383TIP3    H125564   2.603   3.308  10.922 -0.5791 -0.2058 -1.6215
 1383TIP3    H225565   2.662   3.447  10.929 -0.9485 -0.1393  0.8949
 1384TIP3   OH225566   3.804   3.054  11.443  0.2524 -0.0629  0.2135
 1384TIP3    H125567   3.830   2.996  11.372 -0.0368 -0.5549  0.5108
 1384TIP3    H225568   3.840   3.140  11.418 -1.1064  0.0960 -1.2493
 1385TIP3   OH225569   3.201   3.709  10.347  0.2761 -0.1157 -0.1642
 1385TIP3    H125570   3.238   3.771  10.409  3.0988 -1.3886 -0.5006
 1385TIP3    H225571   3.274   3.686  10.290 -0.1673 -5.0790  1.0393
 1386TIP3   OH225572   2.488   4.558   9.959  0.3524 -0.1601 -0.0080
 1386TIP3    H125573   2.542   4.496   9.910  1.9202  1.1370  0.0213
 1386TIP3    H225574   2.507   4.643   9.919 -3.0188  0.1381 -1.1256
 1387TIP3   OH225575   5.385   2.398  10.295 -0.5686  0.3997 -0.0558
 1387TIP3    H125576   5.452   2.353  10.244 -0.1928 -0.1264  0.8976
 1387TIP3    H225577   5.396   2.365  10.384 -2.3440  0.0365  0.0380
 1388TIP3   OH225578   1.795   1.297  10.862  0.0909  0.2144  0.1551
 1388TIP3    H125579   1.815   1.260  10.948 -3.0451 -1.1236  0.3897
 1388TIP3    H225580   1.802   1.223  10.802  0.5239  0.7633 -0.4754
 1389TIP3   OH225581   1.101   3.832  10.529  0.3933  0.0016  0.5235
 1389TIP3    H125582   1.069   3.919  10.504  1.4074  0.5917  1.2742
 1389TIP3    H225583   1.098   3.781  10.447 -1.7376  0.2530  0.4152
 1390TIP3   OH225584   2.544   3.013  12.579  0.6217  0.2315 -0.0264
 1390TIP3    H125585   2.615   3.018  12.642  0.9383 -0.4255 -0.3222
 1390TIP3    H225586   2.532   2.919  12.563 -1.0762  0.2726  0.8765
 1391TIP3   OH225587   3.699   3.218  10.367  0.2867 -0.1802  0.0567
 1391TIP3    H125588   3.775   3.206  10.310  0.2029 -1.3462  0.1623
 1391TIP3    H225589   3.629   3.170  10.323  0.2222 -1.0946  1.1324
 1392TIP3   OH225590   2.638   3.930  11.420  0.4029 -0.3436 -0.7113
 1392TIP3    H125591   2.620   3.988  11.346  0.5133  0.5386 -0.0597
 1392TIP3    H225592   2.654   3.990  11.494 -0.0193 -1.2108  0.0954
 1393TIP3   OH225593   5.177   3.872  13.637  0.5645  0.0522  0.1042
 1393TIP3    H125594   5.201   3.961  13.664  1.2390  0.0171 -0.3694
 1393TIP3    H225595   5.151   3.829  13.719 -2.1715  1.4030  0.0274
 1394TIP3   OH225596   3.437   3.893  10.121 -0.2371  0.0423  0.3132
 1394TIP3    H125597   3.521   3.917  10.160 -0.2072  1.0008 -0.3311
 1394TIP3    H225598   3.393   3.976  10.104 -2.0311 -0.5036  2.1522
 1395TIP3   OH225599   6.536   3.662  10.622  0.1573 -0.4274  0.4814
 1395TIP3    H125600   6.548   3.575  10.584 -1.2900 -1.0077  1.3265
 1395TIP3    H225601   6.445   3.684  10.605  0.3604  0.6878  0.7772
 1396TIP3   OH225602   1.622   1.847  10.449  0.6163  0.3470 -0.9081
 1396TIP3    H125603   1.715   1.838  10.429  0.6715  0.8896 -0.8964
 1396TIP3    H225604   1.595   1.926  10.402 -0.0925 -0.4337 -1.8463
 1397TIP3   OH225605   2.347   2.466  10.004 -0.8668 -0.0045 -0.6025
 1397TIP3    H125606   2.435   2.434  10.024 -0.4421  0.6400 -1.4126
 1397TIP3    H225607   2.353   2.561  10.019 -1.8238 -0.1531  0.7628
 1398TIP3   OH225608   0.688   6.221  12.285  0.1092  0.3039  0.3136
 1398TIP3    H125609   0.664   6.232  12.193  0.5475 -2.6341 -0.2093
 1398TIP3    H225610   0.605   6.222  12.332 -0.4458 -1.8169 -0.5647
 1399TIP3   OH225611   4.331   1.618  10.812 -0.8917  0.6293 -0.5239
 1399TIP3    H125612   4.287   1.620  10.727 -0.1340  0.2954 -0.9266
 1399TIP3    H225613   4.403   1.556  10.801 -0.1278  1.4035  0.0375
 1400TIP3   OH225614   1.946   1.514  10.826  0.1406 -0.2479 -0.2793
 1400TIP3    H125615   1.953   1.498  10.731  2.3805  1.0486 -0.3836
 1400TIP3    H225616   1.893   1.442  10.859 -2.1588  0.1974 -2.7631
 1401TIP3   OH225617   2.440   4.332  10.146 -0.2996  0.0011  0.4095
 1401TIP3    H125618   2.470   4.400  10.086  1.2433  0.5649  1.8023
 1401TIP3    H225619   2.431   4.375  10.230 -1.3950 -1.0423  0.8490
 1402TIP3   OH225620   4.040   5.060  10.829  0.0014 -0.1918  0.0096
 1402TIP3    H125621   3.955   5.030  10.862  0.5960  0.3314  2.1285
 1402TIP3    H225622   4.031   5.155  10.823 -0.0272 -0.2632 -1.1753
 1403TIP3   OH225623   1.703   2.864  10.200  0.0429  0.4173 -0.1799
 1403TIP3    H125624   1.762   2.939  10.211  1.3304 -1.0153  3.2809
 1403TIP3    H225625   1.745   2.809  10.134  1.8100  0.1737  1.1242
 1404TIP3   OH225626   1.832   3.222   9.893 -0.1775  0.0262  0.4105
 1404TIP3    H125627   1.737   3.206   9.893 -0.3378  0.9267  1.1263
 1404TIP3    H225628   1.869   3.144   9.933 -0.8081  0.5911  2.1808
 1405TIP3   OH225629   0.113   3.179  13.489  0.1083 -0.3343 -0.3627
 1405TIP3    H125630   0.170   3.237  13.439  0.6647  0.2706  0.9517
 1405TIP3    H225631   0.103   3.222  13.574  1.8062 -2.8674  1.2168
 1406TIP3   OH225632   3.196   2.939  11.766 -0.3494 -0.3285  0.1153
 1406TIP3    H125633   3.256   3.010  11.745 -0.2267 -1.2180 -2.7558
 1406TIP3    H225634   3.252   2.869  11.800 -0.0358 -0.2849 -0.3051
 1407TIP3   OH225635   4.178   2.382  10.467  0.0959  0.3133  0.1497
 1407TIP3    H125636   4.113   2.362  10.535  1.1946  0.1413  1.1484
 1407TIP3    H225637   4.256   2.334  10.493  0.3657 -0.1952 -1.5379
 1408TIP3   OH225638   1.644   2.616  11.649  0.0928  0.2254  0.3219
 1408TIP3    H125639   1.715   2.561  11.617 -0.0676  0.7458 -0.9968
 1408TIP3    H225640   1.564   2.569  11.624 -0.0919  2.0217 -2.7857
 1409TIP3   OH225641   2.926   2.458  11.787 -0.0423  0.6493  0.0937
 1409TIP3    H125642   2.939   2.467  11.692  1.2518  1.4805  0.3422
 1409TIP3    H225643   2.833   2.476  11.800 -0.7697 -1.8597 -1.2929
 1410TIP3   OH225644   3.474   2.209  12.288  0.1763  0.7666  0.1428
 1410TIP3    H125645   3.419   2.160  12.226  0.0548 -0.5301  1.2450
 1410TIP3    H225646   3.421   2.286  12.310 -0.8319 -0.0245  0.5227
 1411TIP3   OH225647   1.085   3.657  10.328 -0.5169  0.3554  0.0232
 1411TIP3    H125648   1.124   3.619  10.249  0.2073  0.6613  0.2253
 1411TIP3    H225649   0.993   3.632  10.324 -0.2119 -0.7551 -0.2390
 1412TIP3   OH225650   5.848   3.400  10.268  0.4100 -0.2454  0.8740
 1412TIP3    H125651   5.821   3.308  10.263 -0.0620 -0.0154 -1.2845
 1412TIP3    H225652   5.833   3.425  10.359  0.7317 -2.3620  1.5357
 1413TIP3   OH225653   5.018   2.467  10.420 -0.0621  0.3529  0.3756
 1413TIP3    H125654   5.042   2.504  10.336 -2.7384 -1.0979 -1.0997
 1413TIP3    H225655   5.099   2.468  10.471  1.3868  2.1219 -1.8477
 1414TIP3   OH225656   3.103   2.740   9.602 -0.0702 -0.1930  0.0943
 1414TIP3    H125657   3.019   2.780   9.579 -0.4165 -1.2421 -0.4958
 1414TIP3    H225658   3.079   2.658   9.645  0.6223  0.5847  2.0044
 1415TIP3   OH225659   3.037   1.903  13.445 -0.0601 -0.3133 -0.1907
 1415TIP3    H125660   3.089   1.923  13.523 -0.9951 -0.6046  0.5163
 1415TIP3    H225661   3.096   1.922  13.372  1.6031 -2.1282  0.6161
 1416TIP3   OH225662   2.647   1.596  10.778 -0.8976  0.4510  0.4467
 1416TIP3    H125663   2.679   1.525  10.722 -0.6211  0.8788  0.0554
 1416TIP3    H225664   2.634   1.669  10.718 -0.1542  1.0555  1.0115
 1417TIP3   OH225665   4.685   4.034  12.595  0.3692 -0.2948 -0.4140
 1417TIP3    H125666   4.709   4.125  12.608  0.0582 -0.1758 -0.6856
 1417TIP3    H225667   4.613   4.019  12.656  1.3710 -0.7556  0.6792
 1418TIP3   OH225668   3.017   3.087  11.128 -0.1079  0.2607  0.2012
 1418TIP3    H125669   2.996   3.055  11.040 -0.8808 -1.6503  1.0520
 1418TIP3    H225670   3.076   3.161  11.113  0.1642 -0.3456 -1.9043
 1419TIP3   OH225671   3.415   4.189  10.311  0.4095  0.6385 -0.6299
 1419TIP3    H125672   3.350   4.129  10.347  1.1371  1.3012  1.8950
 1419TIP3    H225673   3.491   4.134  10.291  0.6000  0.4965  0.4506
 1420TIP3   OH225674   1.214   2.712  11.521 -0.5993  0.3842 -0.0086
 1420TIP3    H125675   1.130   2.673  11.495  0.2493 -0.8133 -0.9610
 1420TIP3    H225676   1.225   2.684  11.612 -0.7818 -0.2284 -0.1721
 1421TIP3   OH225677   4.759   1.416  11.173  0.0511  0.2514  0.2391
 1421TIP3    H125678   4.734   1.328  11.201 -1.8788  0.9713  0.8502
 1421TIP3    H225679   4.828   1.402  11.109  0.1512 -1.6841  0.7377
 1422TIP3   OH225680   2.497   1.872  11.803  0.3272 -0.2893  0.0875
 1422TIP3    H125681   2.406   1.843  11.800  0.7585 -1.5986 -0.9383
 1422TIP3    H225682   2.518   1.872  11.896  0.1282 -2.8144  0.1745
 1423TIP3   OH225683   1.435   1.727  10.911 -0.4985  0.6516  0.2062
 1423TIP3    H125684   1.417   1.673  10.834 -1.1330  0.5104  0.4432
 1423TIP3    H225685   1.519   1.769  10.893  0.6391 -1.4105  0.5514
 1424TIP3   OH225686   3.797   1.900  11.574  0.2692  0.3832 -0.0074
 1424TIP3    H125687   3.771   1.859  11.492 -0.6385  2.2610 -0.6730
 1424TIP3    H225688   3.877   1.853  11.600 -1.0547 -2.2079 -0.4081
 1425TIP3   OH225689   3.100   4.667  13.960  0.4390 -0.9912 -0.0031
 1425TIP3    H125690   3.067   4.584  13.925  1.1034 -0.3924 -2.1175
 1425TIP3    H225691   3.182   4.681  13.913 -0.2933  1.4829 -0.5984
 1426TIP3   OH225692   0.533   3.131  11.030  0.5068  0.4619  0.0743
 1426TIP3    H125693   0.497   3.220  11.027 -0.1860  0.1806 -0.1749
 1426TIP3    H225694   0.461   3.076  11.000 -0.0974 -0.4945  3.0474
 1427TIP3   OH225695   2.061   2.403  10.938  0.2345  0.9402  0.5206
 1427TIP3    H125696   2.053   2.498  10.933 -0.5872  0.8624  0.3128
 1427TIP3    H225697   1.972   2.370  10.924  0.5044  0.1430  0.6334
 1428TIP3   OH225698   6.783   5.195  10.999  0.3335 -0.0369 -0.1113
 1428TIP3    H125699   6.798   5.180  10.906  1.4506 -1.1219  0.2357
 1428TIP3    H225700   6.814   5.285  11.014 -1.4739  0.7648 -1.1287
 1429TIP3   OH225701   2.119   5.862  10.525  0.1078  0.0131  0.3088
 1429TIP3    H125702   2.027   5.840  10.507 -0.1139  0.7722  0.4915
 1429TIP3    H225703   2.136   5.823  10.610 -0.6650  1.6015  1.2181
 1430TIP3   OH225704   0.843   2.869  11.240  0.5025  0.2183  0.3969
 1430TIP3    H125705   0.804   2.814  11.308  1.2639  0.4665  1.0325
 1430TIP3    H225706   0.888   2.938  11.288  2.0646 -0.2836 -0.3219
 1431TIP3   OH225707   3.902   4.138  11.249 -0.7137 -0.1443 -0.0566
 1431TIP3    H125708   3.995   4.160  11.252 -1.1234  1.7607 -0.4305
 1431TIP3    H225709   3.894   4.082  11.171  0.2045 -0.8372  0.3312
 1432TIP3   OH225710   3.747   2.847  12.081 -0.3992  0.3930  0.1371
 1432TIP3    H125711   3.797   2.854  12.162 -0.5857  0.4616  0.2453
 1432TIP3    H225712   3.735   2.753  12.068  1.2865  0.2831 -0.8142
 1433TIP3   OH225713   3.482   3.121  10.252 -0.6523  0.2855  0.4619
 1433TIP3    H125714   3.497   3.044  10.307 -0.2504  0.0126 -0.0306
 1433TIP3    H225715   3.513   3.095  10.165 -0.3620  1.0517  0.3341
 1434TIP3   OH225716   4.253   3.993  10.525  0.0731  0.2607 -0.0376
 1434TIP3    H125717   4.240   3.987  10.620  0.4376 -0.1257 -0.0133
 1434TIP3    H225718   4.225   3.908  10.491  1.6573 -0.2677 -0.0754
 1435TIP3   OH225719   6.337   3.221  11.897 -0.0588  0.5683 -0.0480
 1435TIP3    H125720   6.385   3.302  11.913  1.7271 -0.7256  1.4383
 1435TIP3    H225721   6.266   3.222  11.961  0.0903  0.8547  0.1143
 1436TIP3   OH225722   5.137   3.591  10.296  0.0725 -0.4636  0.1009
 1436TIP3    H125723   5.089   3.510  10.311 -0.4611 -0.2286 -0.3359
 1436TIP3    H225724   5.070   3.660  10.297  0.3935 -0.1362 -0.5097
 1437TIP3   OH225725   3.878   1.859  10.173 -0.1190  0.4471  0.1363
 1437TIP3    H125726   3.900   1.851  10.080  1.7029  0.1212  0.5662
 1437TIP3    H225727   3.784   1.843  10.177 -0.5152  2.0221 -1.8333
 1438TIP3   OH225728   3.279   2.373   9.842 -0.3642 -0.7934 -0.5695
 1438TIP3    H125729   3.197   2.362   9.794 -1.0459 -1.7894  0.7880
 1438TIP3    H225730   3.328   2.293   9.824 -0.9559 -1.5333  0.9890
 1439TIP3   OH225731   3.027   3.536  10.435 -0.1283  0.3079  0.9852
 1439TIP3    H125732   3.079   3.601  10.387 -0.2574  0.0352  0.4755
 1439TIP3    H225733   3.003   3.581  10.516  0.4071  0.6404  0.9671
 1440TIP3   OH225734   2.956   1.632  10.694 -0.9470  0.3749  0.3879
 1440TIP3    H125735   2.881   1.593  10.739 -2.5865  0.4347 -2.2061
 1440TIP3    H225736   2.986   1.563  10.635 -1.8203  1.8560 -1.8434
 1441TIP3   OH225737   2.753   2.824  11.433 -0.6836 -0.2344 -0.0518
 1441TIP3    H125738   2.785   2.844  11.521  1.4239  0.1520 -0.8852
 1441TIP3    H225739   2.776   2.901  11.381 -1.7389 -0.5489 -1.0100
 1442TIP3   OH225740   4.935   1.157  11.191 -0.5410 -0.3444 -0.0948
 1442TIP3    H125741   5.006   1.190  11.136 -0.2897 -2.7995 -1.3323
 1442TIP3    H225742   4.873   1.117  11.130 -0.3104 -3.0570  1.3418
 1443TIP3   OH225743   3.593   2.442   9.945 -0.7110  0.1031  0.6125
 1443TIP3    H125744   3.528   2.375   9.965 -1.6405  1.1370  1.0687
 1443TIP3    H225745   3.670   2.393   9.916 -1.0676 -1.2041  1.8453
 1444TIP3   OH225746   3.826   3.994  10.968  0.0434 -0.4608 -0.3658
 1444TIP3    H125747   3.891   4.052  10.929  1.3596 -1.8743 -0.3487
 1444TIP3    H225748   3.853   3.906  10.940 -0.3753 -1.2817  1.7344
 1445TIP3   OH225749   1.830   1.397  14.356  1.1837 -0.5051  0.6560
 1445TIP3    H125750   1.736   1.413  14.351  1.0955 -1.3885 -0.8811
 1445TIP3    H225751   1.841   1.344  14.435  0.3475 -0.6523  0.6803
 1446TIP3   OH225752   1.931   0.229  14.372 -0.1773  0.2081 -0.3477
 1446TIP3    H125753   1.934   0.323  14.390  0.3669  0.3514 -1.1620
 1446TIP3    H225754   2.023   0.203  14.368 -0.3194 -0.2009 -0.9311
 1447TIP3   OH225755   4.544   3.296  10.687  0.4605  0.2496 -0.4559
 1447TIP3    H125756   4.546   3.369  10.625 -0.3742  0.1399 -0.6108
 1447TIP3    H225757   4.551   3.337  10.773  0.4776  0.4786 -0.5660
 1448TIP3   OH225758   3.908   0.516  10.935  0.1355 -0.4757 -0.0877
 1448TIP3    H125759   3.937   0.592  10.986 -1.3335 -0.7588  1.2074
 1448TIP3    H225760   3.813   0.513  10.949 -0.2228 -0.8705 -2.4400
 1449TIP3   OH225761   2.009   0.580  11.528 -0.4163  0.2393  0.2237
 1449TIP3    H125762   1.944   0.527  11.482 -0.8757 -1.0196  2.2696
 1449TIP3    H225763   1.957   0.640  11.581  0.1144  0.9868 -0.0876
 1450TIP3   OH225764   3.389   3.701  13.984 -0.2043  0.3971  0.0992
 1450TIP3    H125765   3.447   3.777  13.980 -0.0609  0.3303  0.8323
 1450TIP3    H225766   3.305   3.734  13.953 -0.1770  0.8997  0.5502
 1451TIP3   OH225767   5.462   0.963  12.052 -0.2259 -0.1651 -0.0881
 1451TIP3    H125768   5.543   0.934  12.093 -0.6926 -0.8722  0.3542
 1451TIP3    H225769   5.489   1.001  11.969  0.3327 -2.8056 -1.1630
 1452TIP3   OH225770   2.303   1.923  10.651  0.4212 -0.1825  0.0710
 1452TIP3    H125771   2.280   1.957  10.564 -0.8180 -1.8020 -0.2542
 1452TIP3    H225772   2.238   1.961  10.710  0.0051 -0.7046 -0.0455
 1453TIP3   OH225773   3.367   4.708  10.622 -0.0267  0.2185  0.0359
 1453TIP3    H125774   3.421   4.677  10.549 -1.8023 -0.4101 -1.0452
 1453TIP3    H225775   3.400   4.660  10.698  2.2909  1.3689 -0.1686
 1454TIP3   OH225776   2.304   2.358  11.717 -0.1980  0.0619  0.4065
 1454TIP3    H125777   2.288   2.453  11.713  3.6669  0.7722 -0.4894
 1454TIP3    H225778   2.306   2.330  11.626  2.4581 -0.1342  0.5050
 1455TIP3   OH225779   7.205   3.067  12.318 -0.4942 -0.1664 -0.1209
 1455TIP3    H125780   7.154   3.135  12.361  0.8565  0.6734  0.1659
 1455TIP3    H225781   7.169   2.985  12.353 -0.3598  0.4672  1.5400
 1456TIP3   OH225782   0.284   2.618  14.616 -0.6444  0.4438  0.3458
 1456TIP3    H125783   0.240   2.606  14.701 -3.0400 -0.3092 -0.9436
 1456TIP3    H225784   0.292   2.529  14.581  0.5382  0.7288 -0.1125
 1457TIP3   OH225785   3.735   3.602  12.271  0.0615  0.4987  0.3529
 1457TIP3    H125786   3.781   3.524  12.238 -0.6511  0.7975 -1.3836
 1457TIP3    H225787   3.677   3.568  12.339 -0.2199 -0.4815 -0.3620
 1458TIP3   OH225788   4.152   3.214  12.977  0.2864  0.7220 -0.2332
 1458TIP3    H125789   4.141   3.254  12.890  0.2974  1.2944  0.0241
 1458TIP3    H225790   4.204   3.135  12.960 -1.9067 -0.5751 -1.0914
 1459TIP3   OH225791   3.746   2.017  10.545  0.0650 -0.0080 -0.9350
 1459TIP3    H125792   3.675   2.073  10.576  0.8891  0.5603 -0.0097
 1459TIP3    H225793   3.703   1.936  10.517 -0.7714 -0.4530  1.4994
 1460TIP3   OH225794   1.716   2.808  12.723 -0.7967 -0.0167 -0.8603
 1460TIP3    H125795   1.793   2.761  12.754 -2.2479 -1.0706  1.2777
 1460TIP3    H225796   1.750   2.890  12.688  1.1113  0.3770  1.7846
 1461TIP3   OH225797   3.506   2.217  10.370 -0.3831  0.6815  0.2170
 1461TIP3    H125798   3.473   2.307  10.363  2.6268  1.8652  0.5655
 1461TIP3    H225799   3.522   2.204  10.463  0.4398  0.2496  0.0190
 1462TIP3   OH225800   2.745   4.041   9.897 -0.2068  0.2411 -0.3915
 1462TIP3    H125801   2.754   4.119   9.952 -2.2855 -0.3382  0.8238
 1462TIP3    H225802   2.693   3.981   9.950  0.2501 -1.4727 -1.8549
 1463TIP3   OH225803   5.058   4.293  11.186  0.3182 -0.3624 -0.4126
 1463TIP3    H125804   5.127   4.298  11.253 -1.7844  2.7948  1.6464
 1463TIP3    H225805   5.059   4.379  11.144  0.2663 -1.6408 -3.1762
 1464TIP3   OH225806   4.434   3.367  11.331  0.6403 -0.3453 -0.6053
 1464TIP3    H125807   4.344   3.381  11.302  0.5025 -2.9772 -1.5258
 1464TIP3    H225808   4.487   3.420  11.270 -0.2245  0.9262 -0.2736
 1465TIP3   OH225809   0.371   2.446  10.728  0.2282 -0.7933 -0.0655
 1465TIP3    H125810   0.413   2.364  10.751 -1.4927 -1.9926 -1.0919
 1465TIP3    H225811   0.300   2.422  10.668 -1.0392  1.2941  0.4969
 1466TIP3   OH225812   2.497   2.189  10.084 -0.5088 -0.2360 -0.1593
 1466TIP3    H125813   2.554   2.257  10.049  0.1146  0.1981  1.6620
 1466TIP3    H225814   2.506   2.116  10.023  1.7112 -0.0525 -0.0705
 1467TIP3   OH225815   4.243   3.493  13.128  0.6860  0.1423 -0.1683
 1467TIP3    H125816   4.166   3.546  13.146  1.5647  0.6786  2.2309
 1467TIP3    H225817   4.224   3.409  13.170  0.1289 -0.7895 -2.2473
 1468TIP3   OH225818   3.826   2.914  11.707 -0.2041  0.4762  0.0700
 1468TIP3    H125819   3.760   2.847  11.684  1.4548 -1.0299 -0.4291
 1468TIP3    H225820   3.815   2.981  11.639 -0.4315 -0.3318 -0.7170
 1469TIP3   OH225821   2.080   1.813  12.418 -0.2462 -0.6964  0.6023
 1469TIP3    H125822   2.137   1.758  12.473 -1.9342 -2.6571  0.4410
 1469TIP3    H225823   2.014   1.753  12.384 -2.0344  1.4138  0.2298
 1470TIP3   OH225824   4.186   2.974  10.351  0.5931  0.4623  0.2976
 1470TIP3    H125825   4.143   2.922  10.283  2.0556 -0.1381 -0.1703
 1470TIP3    H225826   4.135   3.056  10.354 -0.5129 -0.1952 -0.3121
 1471TIP3   OH225827   2.364   0.317  11.262  0.1139 -0.0963 -0.8641
 1471TIP3    H125828   2.304   0.392  11.270 -2.4175 -2.0835 -0.4137
 1471TIP3    H225829   2.357   0.290  11.171  2.2866  1.1639 -1.4437
 1472TIP3   OH225830   1.926   1.873   9.755  0.7195 -0.1745 -0.0809
 1472TIP3    H125831   1.929   1.779   9.773  0.1908 -0.3284 -0.7944
 1472TIP3    H225832   1.889   1.911   9.835 -1.5436 -0.8473 -0.7598
 1473TIP3   OH225833   3.001   6.117  10.441 -0.1372  0.7659 -0.2844
 1473TIP3    H125834   3.065   6.055  10.406 -0.0356 -0.2680  1.6321
 1473TIP3    H225835   3.017   6.117  10.536 -4.6794 -1.5103  0.6225
 1474TIP3   OH225836   4.441   2.769  12.668 -0.1869 -0.1440  0.3946
 1474TIP3    H125837   4.390   2.690  12.650  2.0433 -1.1130 -2.0097
 1474TIP3    H225838   4.520   2.737  12.713 -0.3136  0.9887  1.4413
 1475TIP3   OH225839   3.140   1.556  10.136  0.5789 -0.2236 -0.1738
 1475TIP3    H125840   3.111   1.646  10.125 -1.0635 -0.6548  0.4945
 1475TIP3    H225841   3.222   1.563  10.186  0.9172  0.9286 -0.8806
 1476TIP3   OH225842   3.108   4.735  10.612  0.2543  0.0174  0.0979
 1476TIP3    H125843   3.203   4.743  10.621  0.2465  0.6807 -0.3361
 1476TIP3    H225844   3.092   4.746  10.518 -0.4246  1.8445  0.4103
 1477TIP3   OH225845   2.243   2.543  13.174 -0.3632  0.5337 -0.5446
 1477TIP3    H125846   2.231   2.580  13.261 -0.3495 -0.8199  0.0438
 1477TIP3    H225847   2.336   2.520  13.170 -0.6689 -0.7752 -0.3513
 1478TIP3   OH225848   4.346   3.548  13.478 -0.2494  0.5301 -0.1172
 1478TIP3    H125849   4.305   3.472  13.519  0.3610  0.7731  0.9769
 1478TIP3    H225850   4.438   3.522  13.465 -0.4840  0.3903 -1.5104
 1479TIP3   OH225851   2.853   0.449  12.104 -0.4091  0.1510  0.1498
 1479TIP3    H125852   2.857   0.544  12.111 -1.5092  0.1921  0.2386
 1479TIP3    H225853   2.945   0.422  12.098 -0.1509  1.3302 -1.6047
 1480TIP3   OH225854   3.817   2.226  12.613  0.1636 -0.5315 -0.5255
 1480TIP3    H125855   3.752   2.242  12.681 -1.5255 -1.6545 -1.8508
 1480TIP3    H225856   3.899   2.212  12.662 -0.4967  1.1146  1.1400
 1481TIP3   OH225857   6.443   2.851  10.444  0.0126 -0.0268 -0.2111
 1481TIP3    H125858   6.387   2.880  10.372 -0.2971 -0.2692 -0.0666
 1481TIP3    H225859   6.407   2.894  10.522 -1.6250 -2.2858  0.3121
 1482TIP3   OH225860   2.593   0.532  10.331  0.4449 -0.4241 -0.6654
 1482TIP3    H125861   2.597   0.620  10.294  0.2238 -0.6898 -1.3260
 1482TIP3    H225862   2.615   0.544  10.424  0.0784  0.3700 -0.6767
 1483TIP3   OH225863   2.627   2.308  10.824 -0.3465 -0.0534 -0.1274
 1483TIP3    H125864   2.682   2.287  10.749 -0.0048  2.4489 -0.6484
 1483TIP3    H225865   2.546   2.342  10.786 -0.9777 -0.6767  0.6382
 1484TIP3   OH225866   6.928   3.759  10.397 -0.2924 -0.3179  0.5483
 1484TIP3    H125867   6.899   3.684  10.344  3.3079 -2.1651  1.0298
 1484TIP3    H225868   6.932   3.725  10.486  0.4121  0.7752  0.9357
 1485TIP3   OH225869   3.242   2.711  11.186  0.6753  0.2817  0.0040
 1485TIP3    H125870   3.245   2.798  11.146 -1.6134  0.7836  0.8673
 1485TIP3    H225871   3.300   2.718  11.261  3.3788 -0.0556 -1.9858
 1486TIP3   OH225872   3.244   0.911  10.680  0.1270 -0.2150 -0.1556
 1486TIP3    H125873   3.170   0.869  10.635  0.5080 -0.2078 -0.7877
 1486TIP3    H225874   3.231   1.004  10.666  0.5458 -0.2425 -0.7103
 1487TIP3   OH225875   3.464   2.869  10.800  0.4911 -1.0240 -0.4478
 1487TIP3    H125876   3.553   2.839  10.781  1.1519  1.0684 -0.8261
 1487TIP3    H225877   3.470   2.965  10.797 -1.2402 -0.7870  2.0091
 1488TIP3   OH225878   6.171   2.689  10.756  0.0769  0.9143  0.0754
 1488TIP3    H125879   6.079   2.681  10.778 -0.0454 -0.8777 -1.0122
 1488TIP3    H225880   6.194   2.779  10.780 -1.2441  0.5306  2.8858
 1489TIP3   OH225881   2.940   0.726  11.482 -0.3301 -0.1764 -0.1790
 1489TIP3    H125882   2.888   0.801  11.452 -2.6086 -1.3383  0.7468
 1489TIP3    H225883   2.894   0.695  11.560  0.6304 -2.4758 -0.4979
 1490TIP3   OH225884   6.382   2.268  11.126  0.1094  0.0374 -0.0093
 1490TIP3    H125885   6.305   2.263  11.070 -0.9895  0.4534  1.4164
 1490TIP3    H225886   6.363   2.209  11.199  0.1678  1.7604  1.4535
 1491TIP3   OH225887   6.677   2.264  10.727  0.1166  0.6368  0.0121
 1491TIP3    H125888   6.629   2.335  10.771  0.4002  2.3216 -2.3326
 1491TIP3    H225889   6.666   2.282  10.634 -0.0076 -2.5777 -0.6456
 1492TIP3   OH225890   3.458   4.149  10.630  0.5449  0.1980  0.5663
 1492TIP3    H125891   3.451   4.167  10.724  1.6909 -0.7611  0.8440
 1492TIP3    H225892   3.507   4.223  10.595  0.1606  0.5326  0.7257
 1493TIP3   OH225893   5.105   2.637  10.220 -0.5948  0.8096 -0.0111
 1493TIP3    H125894   5.192   2.674  10.210  0.0746 -0.6780  0.1572
 1493TIP3    H225895   5.056   2.668  10.144  1.0115 -0.8959 -1.8213
 1494TIP3   OH225896   6.061   4.359  11.470 -0.1666  0.3831  1.1587
 1494TIP3    H125897   5.968   4.338  11.455 -0.2810  1.3521  0.4939
 1494TIP3    H225898   6.064   4.387  11.562 -0.2271 -1.2815  1.6864
 1495TIP3   OH225899   3.471   1.394  10.935  0.3265 -0.4568  0.2043
 1495TIP3    H125900   3.402   1.353  10.987 -0.3919 -0.7991 -1.0247
 1495TIP3    H225901   3.437   1.481  10.914  1.0397  0.0717  1.1352
 1496TIP3   OH225902   5.247   4.017  10.840  0.5827 -0.0872 -0.7949
 1496TIP3    H125903   5.284   4.095  10.799  1.3028 -1.0573 -2.0405
 1496TIP3    H225904   5.251   4.035  10.934 -2.2903  2.7226 -1.1186
 1497TIP3   OH225905   3.937   3.284  11.296 -0.1746 -0.2451 -0.0516
 1497TIP3    H125906   4.008   3.275  11.232  1.0000  3.6197  0.5462
 1497TIP3    H225907   3.859   3.296  11.243  0.1014 -1.3295 -0.7248
 1498TIP3   OH225908   5.459   2.829   9.934  0.1362  0.3674 -0.6328
 1498TIP3    H125909   5.453   2.741   9.971  0.2456  0.1759 -1.0756
 1498TIP3    H225910   5.371   2.850   9.905  0.3137  0.0035 -1.4486
 1499TIP3   OH225911   4.355   1.842  10.284  0.0440 -0.3863 -0.5294
 1499TIP3    H125912   4.368   1.764  10.230  0.3495 -0.3955 -0.4425
 1499TIP3    H225913   4.262   1.841  10.306  0.4880 -1.9878  1.4356
 1500TIP3   OH225914   4.894   5.274  10.742  0.3561  0.2736  0.5805
 1500TIP3    H125915   4.930   5.357  10.711  2.1549 -0.2825  1.0663
 1500TIP3    H225916   4.802   5.292  10.759 -0.3048  1.0365 -3.4303
 1501TIP3   OH225917   4.469   0.049  10.387 -0.3772 -0.1531  0.3170
 1501TIP3    H125918   4.453  -0.041  10.359  0.1121 -0.1208 -0.0755
 1501TIP3    H225919   4.479   0.044  10.482 -1.6045 -0.3324  0.4465
 1502TIP3   OH225920   4.622   2.216  11.215  0.4762 -0.0061  0.1295
 1502TIP3    H125921   4.592   2.296  11.171 -0.8900 -0.8748 -0.5357
 1502TIP3    H225922   4.559   2.203  11.286  1.2065 -0.0156  0.7811
 1503TIP3   OH225923   4.159   4.244   9.862 -0.5654  0.4540  0.4459
 1503TIP3    H125924   4.113   4.328   9.856 -0.3139  0.6351  1.0494
 1503TIP3    H225925   4.233   4.260   9.921 -0.4385 -0.1565  0.4648
 1504TIP3   OH225926   6.198   1.759  10.720  0.0939 -0.1603 -0.1090
 1504TIP3    H125927   6.176   1.782  10.630  1.1000  0.9921 -0.0753
 1504TIP3    H225928   6.290   1.784  10.729  0.0275 -0.3761  1.2005
 1505TIP3   OH225929   4.427   1.044  13.100 -0.0433 -0.5363 -0.0749
 1505TIP3    H125930   4.422   1.027  13.194 -0.0791 -1.3934 -0.2220
 1505TIP3    H225931   4.514   1.082  13.087 -1.2549  2.6166  0.7413
 1506TIP3   OH225932   4.921   0.799  11.265  0.2240 -0.0986 -0.3453
 1506TIP3    H125933   4.922   0.767  11.355  1.8699 -0.2416 -0.3937
 1506TIP3    H225934   4.861   0.874  11.266  1.0283  0.5454  1.1039
 1507TIP3   OH225935   4.174   4.866  10.702 -0.2196  0.4495  0.3803
 1507TIP3    H125936   4.265   4.896  10.692 -0.2246  0.3878  0.1415
 1507TIP3    H225937   4.134   4.929  10.761 -0.4239  1.3188 -0.6801
 1508TIP3   OH225938   4.424   3.693  10.757 -0.1201  0.0627 -0.5669
 1508TIP3    H125939   4.513   3.690  10.720 -0.5033 -0.2048 -1.4706
 1508TIP3    H225940   4.383   3.612  10.726  0.8242 -2.2396  3.6952
 1509TIP3   OH225941   6.532   4.121  12.527  0.1796  0.0026 -0.0340
 1509TIP3    H125942   6.510   4.151  12.616  1.8811  0.3614  0.2901
 1509TIP3    H225943   6.528   4.200  12.474  3.4469  0.6688  0.5863
 1510TIP3   OH225944   3.218   2.138  13.010  0.2851 -0.3047  0.7163
 1510TIP3    H125945   3.209   2.207  13.075 -2.0384  0.0604  0.0425
 1510TIP3    H225946   3.289   2.168  12.952 -1.8308  2.3911 -0.5995
 1511TIP3   OH225947   6.002   2.029  10.525 -0.2528 -0.1683  0.1492
 1511TIP3    H125948   6.075   2.091  10.515 -1.6627  1.4532 -0.3020
 1511TIP3    H225949   6.039   1.944  10.499  1.8263  0.3829  1.1622
 1512TIP3   OH225950   4.036   3.475  11.506  0.1433  0.5399 -0.7045
 1512TIP3    H125951   4.072   3.404  11.558 -0.2136  0.0086 -1.1758
 1512TIP3    H225952   3.996   3.432  11.431 -1.8311  1.0898  0.0061
 1513TIP3   OH225953   4.457   2.152  10.154  0.0583  0.3759 -0.1753
 1513TIP3    H125954   4.445   2.236  10.197  2.0630  1.0996 -0.9845
 1513TIP3    H225955   4.368   2.127  10.125 -0.6588  1.8218  0.7477
 1514TIP3   OH225956   5.572   4.554  10.953  0.3241  0.2031 -0.5789
 1514TIP3    H125957   5.570   4.596  10.867  0.4572  1.2794 -0.0730
 1514TIP3    H225958   5.563   4.627  11.015 -1.2913 -0.7009  0.2919
 1515TIP3   OH225959   4.836   2.658  10.498  0.2815  0.8922  0.3679
 1515TIP3    H125960   4.899   2.730  10.493  1.1630  0.0576 -0.9080
 1515TIP3    H225961   4.886   2.580  10.473 -0.3170 -0.4008  3.0478
 1516TIP3   OH225962   5.827   4.449  10.655 -0.5123  0.7529 -0.0543
 1516TIP3    H125963   5.877   4.419  10.579 -0.7926  3.0860 -1.2218
 1516TIP3    H225964   5.738   4.419  10.639 -0.5833  1.2996 -0.6962
 1517TIP3   OH225965   3.060   2.065  11.009  0.2558 -0.2982 -0.9734
 1517TIP3    H125966   3.091   2.156  11.010  0.3668 -0.3169  2.6627
 1517TIP3    H225967   2.965   2.073  11.018  0.3663 -0.5774  0.4035
 1518TIP3   OH225968   3.187   1.945  11.810 -0.4730 -0.0019 -0.1105
 1518TIP3    H125969   3.234   1.911  11.733 -0.1752  1.1365 -0.4297
 1518TIP3    H225970   3.135   2.018  11.776  0.9810  1.6295  1.0869
 1519TIP3   OH225971   4.990   5.284  13.901  0.0578  0.1423  0.0941
 1519TIP3    H125972   4.903   5.285  13.860 -1.5631 -2.2103  3.3081
 1519TIP3    H225973   5.019   5.193  13.894  1.8101  0.6778  0.0871
 1520TIP3   OH225974   4.386   3.176   9.815  0.0855  0.1992 -0.2058
 1520TIP3    H125975   4.296   3.148   9.833  0.6312 -1.1551  0.5138
 1520TIP3    H225976   4.380   3.271   9.807 -1.7882 -0.0366 -2.4602
 1521TIP3   OH225977   3.924   3.340   9.729  0.0592 -0.2593  0.2007
 1521TIP3    H125978   4.005   3.386   9.705 -0.9744  1.6114  0.1310
 1521TIP3    H225979   3.881   3.322   9.645 -0.0669 -0.3582  0.2865
 1522TIP3   OH225980   3.929   3.512  12.010 -0.0774 -0.1257  0.1785
 1522TIP3    H125981   3.876   3.433  12.017 -0.0547 -0.1505  0.0683
 1522TIP3    H225982   4.017   3.486  12.037  0.2709 -0.4928 -1.2886
 1523TIP3   OH225983   5.339   3.084  10.514 -0.5031 -0.3334  0.8326
 1523TIP3    H125984   5.285   3.084  10.436 -1.6201 -0.2963  1.5993
 1523TIP3    H225985   5.336   3.175  10.546  1.0546 -0.0342  0.1687
 1524TIP3   OH225986   4.558   1.883  10.667 -0.0131 -0.0539  0.4084
 1524TIP3    H125987   4.468   1.850  10.676 -0.5299  1.5032  1.3586
 1524TIP3    H225988   4.549   1.958  10.608  0.6487  0.1611  0.5827
 1525TIP3   OH225989   1.899   2.911  12.337 -0.1035 -0.6234 -0.0077
 1525TIP3    H125990   1.926   2.923  12.246  0.5579  0.0706  0.2730
 1525TIP3    H225991   1.916   2.819  12.355  0.2166 -0.6533 -0.4411
 1526TIP3   OH225992   5.720   3.309   9.783 -0.2428 -0.1930 -0.1137
 1526TIP3    H125993   5.788   3.371   9.809  0.0266 -0.3887 -0.3339
 1526TIP3    H225994   5.640   3.341   9.823 -0.3613  1.0219 -1.2828
 1527TIP3   OH225995   5.354   3.364  10.635 -0.0074  0.3252 -0.4656
 1527TIP3    H125996   5.305   3.393  10.559 -0.8804  2.5180  0.8914
 1527TIP3    H225997   5.346   3.436  10.698 -0.2842 -1.8846  2.1377
 1528TIP3   OH225998   6.970   4.536  11.234  0.3183  0.1865  0.6338
 1528TIP3    H125999   6.977   4.561  11.141 -0.8564 -0.5553  0.3319
 1528TIP3    H226000   7.050   4.485  11.251 -0.2216 -1.0307 -0.4134
 1529TIP3   OH226001   3.596   4.345  10.445 -0.7408  0.0059 -0.4504
 1529TIP3    H126002   3.525   4.306  10.394 -0.5806  1.6311 -1.9784
 1529TIP3    H226003   3.671   4.346  10.385  1.0145 -2.9815  1.5997
 1530TIP3   OH226004   5.022   3.698  10.651 -0.2709  1.0672  0.0668
 1530TIP3    H126005   5.094   3.727  10.707  0.0657 -0.9959  0.7499
 1530TIP3    H226006   4.999   3.611  10.685 -1.1875  0.5016 -1.9360
 1531TIP3   OH226007   2.478   4.985  11.325 -0.1990  0.3236 -0.0749
 1531TIP3    H126008   2.542   4.938  11.271  0.5761  1.0427  0.2121
 1531TIP3    H226009   2.530   5.027  11.393 -0.9560  1.0897  0.0408
 1532TIP3   OH226010   6.540   1.490  10.929  0.2513  0.6271  0.2359
 1532TIP3    H126011   6.562   1.582  10.943  1.8176  0.4837 -1.1417
 1532TIP3    H226012   6.508   1.485  10.839  2.8282 -0.5881 -0.6704
 1533TIP3   OH226013   4.600   3.606  10.078 -0.3686  0.1461  0.3033
 1533TIP3    H126014   4.681   3.600  10.129  2.4465 -0.8167 -4.0046
 1533TIP3    H226015   4.579   3.515  10.056 -0.9153  0.6126 -1.1309
 1534TIP3   OH226016   3.191   0.219  10.214  0.0820  0.3026 -0.5434
 1534TIP3    H126017   3.175   0.265  10.132 -1.5221  0.1402 -0.3283
 1534TIP3    H226018   3.157   0.277  10.282  0.7493  0.1157 -0.0413
 1535TIP3   OH226019   3.823   1.547  11.103  0.3103 -0.4493 -0.1548
 1535TIP3    H126020   3.764   1.555  11.028 -1.5771 -0.2042  1.3208
 1535TIP3    H226021   3.810   1.458  11.134  1.0460 -0.5332 -0.0844
 1536TIP3   OH226022   5.019   0.760  10.996 -0.5448 -0.5513  0.0088
 1536TIP3    H126023   5.112   0.774  10.981 -0.3130 -0.5176  1.4378
 1536TIP3    H226024   4.996   0.823  11.064 -1.6922 -0.3036 -0.6020
 1537TIP3   OH226025   5.136   3.287  10.452 -0.0651  0.1923  0.3887
 1537TIP3    H126026   5.189   3.272  10.374  0.8362 -0.4518  1.1058
 1537TIP3    H226027   5.052   3.317  10.419  1.0988  2.3285 -0.7469
 1538TIP3   OH226028   5.143   3.887  14.290  0.2872 -0.1434 -0.5685
 1538TIP3    H126029   5.170   3.857  14.376 -0.1051  1.1868  0.0306
 1538TIP3    H226030   5.219   3.871  14.233  0.8525 -0.2223  0.2070
 1539TIP3   OH226031   5.673   1.862  10.767 -0.6555 -0.3442  0.1590
 1539TIP3    H126032   5.622   1.811  10.704 -0.4132  0.4149 -0.6604
 1539TIP3    H226033   5.616   1.936  10.789 -0.5914 -0.4120  0.5540
 1540TIP3   OH226034   3.368   3.442  12.397  0.1868  0.2147  0.1846
 1540TIP3    H126035   3.457   3.441  12.361  0.2495 -0.0483  0.3468
 1540TIP3    H226036   3.372   3.507  12.467  0.3013  0.0580  0.3226
 1541TIP3   OH226037   4.926   5.955  10.580  0.5134 -0.0567  0.6925
 1541TIP3    H126038   4.981   5.935  10.656  0.8652  0.4773  0.5835
 1541TIP3    H226039   4.931   6.051  10.572  0.4193 -0.1047  0.0411
 1542TIP3   OH226040   4.689   3.707  12.287 -0.0636  0.3803 -0.1054
 1542TIP3    H126041   4.606   3.727  12.243 -0.5966  1.7888  1.4742
 1542TIP3    H226042   4.730   3.640  12.232 -2.8088 -1.2647 -0.2218
 1543TIP3   OH226043   5.786   4.253  11.168  0.1579  0.3565  0.2091
 1543TIP3    H126044   5.774   4.171  11.216 -1.6191 -0.6176 -1.7679
 1543TIP3    H226045   5.879   4.272  11.174  0.6965 -2.1383  0.2159
 1544TIP3   OH226046   5.315   1.767  11.051  0.1032  0.2847  0.0316
 1544TIP3    H126047   5.302   1.832  10.982 -1.5938 -1.0011 -0.9007
 1544TIP3    H226048   5.240   1.779  11.110 -0.2267 -0.8235 -0.1529
 1545TIP3   OH226049   3.152   0.776  11.034 -0.3502  0.5437 -0.6344
 1545TIP3    H126050   3.092   0.829  10.981 -0.5271 -0.0761 -1.0532
 1545TIP3    H226051   3.142   0.687  11.001 -0.0027  0.2532  0.0231
 1546TIP3   OH226052   3.506   2.299  10.628  0.6768  0.4803 -0.3088
 1546TIP3    H126053   3.453   2.368  10.668  0.5327  0.2709 -0.1380
 1546TIP3    H226054   3.467   2.217  10.659  1.6194  0.3261  0.5029
 1547TIP3   OH226055   2.908   0.234  10.125  0.1229  0.6614 -0.2105
 1547TIP3    H126056   2.903   0.142  10.099 -0.7230  0.6894 -0.1637
 1547TIP3    H226057   2.849   0.279  10.065 -0.4989  0.9801  0.6276
 1548TIP3   OH226058   4.020   2.030  10.600 -0.5892 -0.4833 -0.2501
 1548TIP3    H126059   4.027   2.120  10.634 -2.0721 -0.3393 -0.3006
 1548TIP3    H226060   3.926   2.017  10.586 -0.1539 -1.0804 -2.8405
 1549TIP3   OH226061   3.899   3.493   9.970  0.0824 -0.3169  0.1386
 1549TIP3    H126062   3.986   3.519   9.942 -0.4300 -0.9032 -2.0578
 1549TIP3    H226063   3.867   3.435   9.901 -1.7398 -0.7320  1.2885
 1550TIP3   OH226064   5.082   0.079  10.280 -0.1740 -0.4958  0.1946
 1550TIP3    H126065   5.098   0.172  10.291 -0.9206 -0.2095 -1.0849
 1550TIP3    H226066   5.158   0.047  10.230  0.3855 -0.6994  1.1624
 1551TIP3   OH226067   7.033   4.738  11.476  0.3741 -0.5555 -0.2149
 1551TIP3    H126068   7.041   4.816  11.421  1.9493 -1.0627 -0.7440
 1551TIP3    H226069   7.002   4.670  11.418  1.5987 -0.9795 -0.3798
 1552TIP3   OH226070   5.612   3.681  10.754 -0.9797 -0.0623 -0.0608
 1552TIP3    H126071   5.610   3.747  10.823 -0.6290  0.1330 -0.2347
 1552TIP3    H226072   5.577   3.727  10.677  2.9647  1.1762 -1.2485
 1553TIP3   OH226073   2.963   1.856  10.531  0.5313 -0.4498 -0.5637
 1553TIP3    H126074   2.916   1.823  10.455 -0.7198  1.6279 -0.7331
 1553TIP3    H226075   2.963   1.783  10.593 -1.8117 -0.9082 -1.0577
 1554TIP3   OH226076   2.006   2.108  11.868  0.1702  0.7748 -0.0576
 1554TIP3    H126077   2.088   2.132  11.912  0.8201  0.8341 -1.2693
 1554TIP3    H226078   1.954   2.188  11.867  1.0014  1.3067 -1.2251
 1555TIP3   OH226079   3.578   3.052  12.044  0.0949 -0.0758 -0.0387
 1555TIP3    H126080   3.531   3.038  11.962  1.3491 -0.2856 -0.7264
 1555TIP3    H226081   3.635   2.975  12.052  0.0076 -0.0392  1.0143
 1556TIP3   OH226082   5.039   3.010  11.012 -0.1691 -0.0181 -0.0326
 1556TIP3    H126083   5.090   3.091  11.009  0.5296 -0.4739 -0.6446
 1556TIP3    H226084   4.954   3.036  11.048  0.8915  0.5358  2.1226
 1557TIP3   OH226085   3.081   2.244  13.409 -0.2369 -0.4196  0.3506
 1557TIP3    H126086   2.992   2.261  13.378  0.7353  4.2752 -0.3452
 1557TIP3    H226087   3.076   2.256  13.504 -0.4185 -0.5950  0.3638
 1558TIP3   OH226088   5.994   2.387  11.109 -0.2755 -0.0744 -0.3883
 1558TIP3    H126089   5.907   2.407  11.073 -0.5018 -0.8312 -0.2764
 1558TIP3    H226090   6.046   2.361  11.033 -0.4134 -0.5005 -0.3445
 1559TIP3   OH226091   3.917   2.613  11.077 -0.2627 -0.1727  0.5505
 1559TIP3    H126092   3.979   2.686  11.072 -0.2361  0.0809  3.3791
 1559TIP3    H226093   3.835   2.654  11.106 -1.0159 -0.8924 -0.5243
 1560TIP3   OH226094   5.233   2.591  10.603 -0.0403 -0.1593  0.3049
 1560TIP3    H126095   5.201   2.663  10.549  0.3513 -0.3363 -0.1722
 1560TIP3    H226096   5.179   2.593  10.682  0.6809  1.3393  0.7694
 1561TIP3   OH226097   5.070   2.778  10.505 -0.0634 -0.1969  0.0675
 1561TIP3    H126098   5.073   2.828  10.423  2.3486  0.8977  0.7859
 1561TIP3    H226099   5.098   2.840  10.572  0.9982 -1.9611  1.2916
 1562TIP3   OH226100   4.646   3.537  11.911  0.8242 -0.2879 -0.2648
 1562TIP3    H126101   4.692   3.620  11.907  2.7954 -1.3106  0.4785
 1562TIP3    H226102   4.694   3.486  11.976  0.8494 -2.7240 -2.1309
 1563TIP3   OH226103   4.144   3.832  11.481  0.3187  0.0927  0.0596
 1563TIP3    H126104   4.099   3.836  11.565 -0.1011 -0.5796 -0.1291
 1563TIP3    H226105   4.216   3.771  11.495 -1.1302 -1.8748 -0.6869
 1564TIP3   OH226106   7.175   3.690  10.944  0.7775 -0.2449  0.1495
 1564TIP3    H126107   7.140   3.779  10.938  3.2452  0.8812  1.6065
 1564TIP3    H226108   7.259   3.701  10.988  0.6810 -3.4452  1.2116
 1565TIP3   OH226109   5.540   2.675  11.074 -0.1255 -0.5414 -0.1507
 1565TIP3    H126110   5.476   2.698  11.141 -0.8538  0.9798 -1.3476
 1565TIP3    H226111   5.517   2.729  10.999  0.9381 -1.9181 -1.5011
 1566TIP3   OH226112   3.064   1.382  10.588 -0.4057 -0.1097  0.0373
 1566TIP3    H126113   3.147   1.359  10.546 -0.0350 -0.3770  0.8910
 1566TIP3    H226114   3.008   1.413  10.517 -0.0747 -1.3476 -0.7763
 1567TIP3   OH226115   3.931   3.390  10.213 -0.7745  0.1598 -0.1230
 1567TIP3    H126116   3.926   3.295  10.197  0.6440 -0.1490  1.1158
 1567TIP3    H226117   3.923   3.430  10.127 -1.0711 -1.1070 -0.6932
 1568TIP3   OH226118   6.132   3.248  11.109  0.2081  0.0232 -0.3800
 1568TIP3    H126119   6.218   3.222  11.142 -0.0340  0.0317  0.2595
 1568TIP3    H226120   6.143   3.339  11.083  0.0643  0.4032  0.8655
 1569TIP3   OH226121   4.243   3.726  10.405 -0.7988 -0.2662  0.0638
 1569TIP3    H126122   4.296   3.734  10.326 -4.7119 -0.5884 -2.7806
 1569TIP3    H226123   4.186   3.650  10.387 -0.9829 -1.0719  3.7212
 1570TIP3   OH226124   5.110   4.006  10.377  0.0666  0.4932  0.5587
 1570TIP3    H126125   5.071   4.011  10.289 -0.7901 -0.4522  0.8703
 1570TIP3    H226126   5.035   4.005  10.436  0.6367  0.8960  1.2898
 1571TIP3   OH226127   4.947   3.375  10.276 -0.6870 -0.0903  0.5846
 1571TIP3    H126128   4.901   3.291  10.286 -0.3233 -0.5078 -1.1118
 1571TIP3    H226129   4.902   3.417  10.202 -0.4177  0.9076  0.9905
 1572TIP3   OH226130   5.190   3.216  11.173  0.6096 -0.4903  1.1601
 1572TIP3    H126131   5.223   3.254  11.092 -0.9391 -0.4867  0.5003
 1572TIP3    H226132   5.265   3.170  11.211  0.8304 -2.3836 -1.4178
 1573TIP3   OH226133   3.118   3.314  11.374 -0.2285  0.4618  0.2356
 1573TIP3    H126134   3.181   3.385  11.382  0.3860 -0.0189 -0.1815
 1573TIP3    H226135   3.170   3.241  11.340 -0.7962 -0.2519  0.8863
 1574TIP3   OH226136   6.482   1.974  11.050  0.0260 -0.0155  0.3528
 1574TIP3    H126137   6.416   2.034  11.016  0.6934  1.0552  0.9407
 1574TIP3    H226138   6.566   2.015  11.027  0.4873  0.2038  2.3627
 1575TIP3   OH226139   3.994   2.935  10.754  0.3695 -0.2469  0.2463
 1575TIP3    H126140   3.981   3.011  10.697  0.6639 -1.4367 -1.4634
 1575TIP3    H226141   4.071   2.890  10.718  2.0093  0.2214  3.0097
 1576TIP3   OH226142   4.129   3.068   9.852  0.0568  0.1902 -0.2243
 1576TIP3    H126143   4.038   3.041   9.847  0.0200  0.5523 -1.9279
 1576TIP3    H226144   4.177   2.990   9.881 -0.8322  0.1284  1.1075
 1577TIP3   OH226145   0.097   2.800  10.791  0.1614  0.2854 -0.5340
 1577TIP3    H126146   0.186   2.773  10.770  0.5876 -0.9094  2.5400
 1577TIP3    H226147   0.095   2.893  10.770  2.6408  0.6825  0.7451
 1578TIP3   OH226148   4.751   0.447  11.533 -0.1290 -0.3846 -0.4568
 1578TIP3    H126149   4.736   0.485  11.447 -0.2049  1.0702  0.1875
 1578TIP3    H226150   4.690   0.492  11.591  0.9844 -0.2545  0.6518
 1579TIP3   OH226151   4.944   3.206  11.311 -0.2132  0.2446  0.1673
 1579TIP3    H126152   4.877   3.145  11.282 -0.6355  0.9038 -0.2690
 1579TIP3    H226153   5.027   3.161  11.295 -0.5097 -0.1126 -0.3590
 1580TIP3   OH226154   1.854   2.782  11.554 -0.1650 -0.4421 -0.2466
 1580TIP3    H126155   1.818   2.731  11.481  0.4024 -0.2141 -0.6842
 1580TIP3    H226156   1.927   2.731  11.586 -1.4058 -1.3394  1.2189
 1581TIP3   OH226157   2.018   2.529  10.530  0.1857 -0.1843 -0.4952
 1581TIP3    H126158   1.956   2.506  10.600  2.3338  0.1131  1.5779
 1581TIP3    H226159   1.963   2.547  10.454 -2.3885  1.8759  1.7589
 1582TIP3   OH226160   4.101   0.988  11.434 -0.5189  0.3979 -0.2536
 1582TIP3    H126161   4.187   1.028  11.417 -0.2283  0.3443  1.0531
 1582TIP3    H226162   4.121   0.898  11.461 -1.1086 -0.2633 -1.9904
 1583TIP3   OH226163   4.493   4.502  10.260 -0.2529 -0.0055  0.0134
 1583TIP3    H126164   4.442   4.431  10.222  0.7389  0.8577 -3.0792
 1583TIP3    H226165   4.443   4.582  10.240  1.4949  0.6969 -1.7579
 1584TIP3   OH226166   4.787   3.433  10.868 -0.6028 -0.3260 -0.0951
 1584TIP3    H126167   4.865   3.428  10.923  0.7204 -1.3922 -2.0022
 1584TIP3    H226168   4.724   3.374  10.909 -0.1926  0.0851  1.1262
 1585TIP3   OH226169   5.232   4.327  10.339  0.1618 -0.1070 -0.6928
 1585TIP3    H126170   5.307   4.386  10.348 -0.8114  0.9404  0.5685
 1585TIP3    H226171   5.262   4.245  10.379  0.3819  0.5529  0.5311
 1586TIP3   OH226172   3.829   2.347   9.851  0.1095 -0.4263 -0.5049
 1586TIP3    H126173   3.903   2.377   9.798  1.0619  0.4821  1.2777
 1586TIP3    H226174   3.833   2.251   9.846  1.5479 -0.3963 -0.2686
 1587TIP3   OH226175   4.648   3.475  11.212  0.0945  0.5020  0.1455
 1587TIP3    H126176   4.698   3.552  11.187 -0.6986  0.7335 -0.7864
 1587TIP3    H226177   4.707   3.424  11.268  1.5151  0.5344 -1.3033
 1588TIP3   OH226178   5.945   0.748  11.526  0.1729  0.3163  0.0915
 1588TIP3    H126179   5.875   0.690  11.555  0.1392  0.0943 -0.4276
 1588TIP3    H226180   6.024   0.713  11.567 -0.3190  1.8570  2.4827
 1589TIP3   OH226181   2.718   3.892  12.055 -0.0491 -0.1688 -0.0801
 1589TIP3    H126182   2.698   3.951  12.128 -0.3328  0.6545 -0.8131
 1589TIP3    H226183   2.657   3.819  12.066 -1.8666  1.1823 -0.9375
 1590TIP3   OH226184   3.905   1.098  11.901 -0.2104 -0.2263 -0.1786
 1590TIP3    H126185   3.989   1.113  11.856 -1.6406  1.3358 -2.4456
 1590TIP3    H226186   3.922   1.123  11.992  0.9685  3.2328 -1.2536
 1591TIP3   OH226187   4.261   4.034  11.273 -0.6500 -0.6987  0.5073
 1591TIP3    H126188   4.234   3.961  11.328  1.0363 -0.6269  1.4849
 1591TIP3    H226189   4.343   4.004  11.233  0.0066  0.6141  0.8454
 1592TIP3   OH226190   4.094   3.237  12.224 -0.4609  0.1863 -0.5957
 1592TIP3    H126191   4.062   3.260  12.312 -0.4290  0.5028 -0.6669
 1592TIP3    H226192   4.150   3.311  12.199 -0.7353  0.2513 -1.0201
 1593TIP3   OH226193   5.124   2.206  10.780  0.0978 -0.1265  0.1398
 1593TIP3    H126194   5.204   2.251  10.752 -0.1685  1.8874  2.4875
 1593TIP3    H226195   5.067   2.276  10.811 -1.2912 -1.8632  1.5700
 1594TIP3   OH226196   1.003   2.431  12.200  0.3980 -0.6079  0.7454
 1594TIP3    H126197   1.067   2.390  12.259  0.1388  0.1451  1.5607
 1594TIP3    H226198   0.956   2.493  12.256 -0.6429 -0.7326  0.0066
 1595TIP3   OH226199   3.634   2.685  10.116  0.2804  0.0491 -0.4449
 1595TIP3    H126200   3.729   2.697  10.122  0.2769 -0.1910  0.0304
 1595TIP3    H226201   3.623   2.616  10.050  0.4015  0.7131 -1.1650
 1596TIP3   OH226202   4.433   3.050  10.732 -0.2946  0.0344  0.1999
 1596TIP3    H126203   4.448   3.037  10.639 -0.3163 -0.5893  0.2793
 1596TIP3    H226204   4.506   3.104  10.762 -0.9321  1.2756 -0.4167
 1597TIP3   OH226205   2.110   2.049  12.237  0.7727 -0.1980 -0.2448
 1597TIP3    H126206   2.108   1.973  12.295  0.0394  0.3289  0.4285
 1597TIP3    H226207   2.020   2.080  12.234  1.3966  1.8405  1.1051
 1598TIP3   OH226208   3.700   1.550  12.315 -0.1869 -0.3576 -0.2232
 1598TIP3    H126209   3.715   1.516  12.227 -1.0652  1.1132 -0.9622
 1598TIP3    H226210   3.612   1.521  12.337 -0.8395  1.1915 -0.7517
 1599TIP3   OH226211   3.778   7.300  14.799 -0.6384  0.0160  0.3319
 1599TIP3    H126212   3.696   7.326  14.756 -0.7618 -0.5316  0.2376
 1599TIP3    H226213   3.778   7.350  14.881 -1.0989 -0.0292  0.3639
 1600TIP3   OH226214   4.259   1.885  10.651 -0.4186  0.2290  0.2461
 1600TIP3    H126215   4.224   1.796  10.637 -1.3116  0.5009  0.6605
 1600TIP3    H226216   4.210   1.940  10.590  3.1846 -0.1734 -3.1958
 1601TIP3   OH226217   1.060   2.506  11.964  0.0317 -0.2806  0.1832
 1601TIP3    H126218   1.030   2.431  11.913 -1.6562  1.6280 -1.6993
 1601TIP3    H226219   1.023   2.491  12.051 -0.6621 -1.4037 -0.2894
 1602TIP3   OH226220   5.659   4.544  11.233  0.4025  0.0309  0.0664
 1602TIP3    H126221   5.618   4.625  11.201 -2.0797 -1.6996 -1.3457
 1602TIP3    H226222   5.707   4.511  11.157 -0.0532 -0.7426  0.1220
 1603TIP3   OH226223   4.062   1.165  12.111  0.5259 -0.0335 -0.0843
 1603TIP3    H126224   4.043   1.159  12.204 -1.5685  2.9792 -0.2365
 1603TIP3    H226225   4.147   1.210  12.107  0.9301 -0.7394  0.3402
 1604TIP3   OH226226   5.338   2.813  12.300 -0.3095 -0.0988 -0.2401
 1604TIP3    H126227   5.382   2.737  12.339  2.8219  1.2421 -1.0189
 1604TIP3    H226228   5.337   2.794  12.206  1.2327  1.1290 -0.5314
 1605TIP3   OH226229   3.527   3.100  11.440  0.1445  0.6036  0.0506
 1605TIP3    H126230   3.613   3.090  11.482  0.6138 -0.0809 -1.0578
 1605TIP3    H226231   3.467   3.117  11.513  1.2498  1.3242  0.8123
 1606TIP3   OH226232   4.501   2.889  10.235 -0.2303  0.4949 -0.1244
 1606TIP3    H126233   4.518   2.939  10.156 -1.1713 -0.4482 -0.9375
 1606TIP3    H226234   4.580   2.836  10.248 -0.1454  0.5216 -0.5290
 1607TIP3   OH226235   4.727   2.381  12.756  0.6215 -0.0311  0.1135
 1607TIP3    H126236   4.673   2.348  12.828  1.4511 -2.4150 -0.3252
 1607TIP3    H226237   4.672   2.369  12.678  0.1220  1.6063  0.1910
 1608TIP3   OH226238   4.319   2.215  12.757  0.2798  0.7854  0.2241
 1608TIP3    H126239   4.230   2.190  12.783  0.6214 -0.4918  0.1867
 1608TIP3    H226240   4.309   2.302  12.718 -0.8659  0.8920  0.7382
 1609TIP3   OH226241   0.950   2.312  11.803 -0.0220  0.4826  0.0929
 1609TIP3    H126242   1.034   2.268  11.789  0.1660  0.8252  0.1444
 1609TIP3    H226243   0.898   2.289  11.726 -0.9155 -2.1236  1.4132
 1610TIP3   OH226244   4.800   2.758  10.751 -0.3014  0.6435  0.2498
 1610TIP3    H126245   4.835   2.845  10.734 -1.3789  1.2914  1.2434
 1610TIP3    H226246   4.775   2.725  10.665 -0.9012  1.7683 -0.0210
 1611TIP3   OH226247   4.754   2.158   9.851 -0.7440 -0.5054 -0.0573
 1611TIP3    H126248   4.747   2.071   9.890 -0.9476  0.6802  2.6727
 1611TIP3    H226249   4.848   2.177   9.851 -0.7340 -0.5535 -0.2471
 1612TIP3   OH226250   6.426   0.761  12.691 -0.0135 -0.0488  0.2674
 1612TIP3    H126251   6.398   0.792  12.605 -0.9739 -1.0813  0.2015
 1612TIP3    H226252   6.348   0.768  12.745  0.6031  0.6509  1.0817
 1613TIP3   OH226253   4.134   3.775  10.058 -0.2335 -0.3015  0.2492
 1613TIP3    H126254   4.209   3.779  10.117  1.1647  1.2700 -1.5635
 1613TIP3    H226255   4.155   3.704   9.997  0.0864  0.5021 -0.6006
 1614TIP3   OH226256   2.765   3.368   9.786  0.4327  0.3833 -0.2085
 1614TIP3    H126257   2.673   3.344   9.795  0.5275  0.2425  0.4300
 1614TIP3    H226258   2.813   3.288   9.812  0.7282 -0.4480 -3.1435
 1615TIP3   OH226259   5.429   2.621  10.134 -0.0104  0.5290 -0.0009
 1615TIP3    H126260   5.393   2.555  10.193  1.0998 -0.2498 -0.1873
 1615TIP3    H226261   5.521   2.597  10.123  0.2525  1.7405 -0.5740
 1616TIP3   OH226262   4.072   2.439  11.510 -0.9906 -0.0881 -0.3501
 1616TIP3    H126263   3.988   2.456  11.553 -1.0737  0.6205 -0.7903
 1616TIP3    H226264   4.064   2.480  11.424 -0.2657 -0.1957 -0.4709
 1617TIP3   OH226265   5.051   0.958  10.147  0.0288 -0.2116  0.4862
 1617TIP3    H126266   5.061   0.876  10.099  0.2734 -0.3450  0.7603
 1617TIP3    H226267   5.096   0.942  10.230 -0.5863 -0.0621  0.8462
 1618TIP3   OH226268   4.647   1.876  12.266 -0.2255 -0.7113 -0.1666
 1618TIP3    H126269   4.590   1.798  12.265  1.0835 -1.6896  0.2015
 1618TIP3    H226270   4.634   1.916  12.180 -1.9582 -0.5489  0.1347
 1619TIP3   OH226271   3.504   1.638  11.378  0.0335 -0.4944 -0.0179
 1619TIP3    H126272   3.517   1.564  11.318 -0.1723  0.3858 -1.1793
 1619TIP3    H226273   3.565   1.621  11.450 -0.5181 -2.1531  0.0890
 1620TIP3   OH226274   5.526   1.541  10.874  0.0073  0.6886 -0.3002
 1620TIP3    H126275   5.580   1.547  10.795 -0.7020  1.7461 -0.7191
 1620TIP3    H226276   5.581   1.580  10.943  0.8622 -0.7844 -0.1331
 1621TIP3   OH226277   6.949   2.740   9.892  0.5085  0.1087  0.4957
 1621TIP3    H126278   6.995   2.789   9.823 -1.3702 -0.1166 -0.9630
 1621TIP3    H226279   6.877   2.798   9.918 -1.3864 -1.5947 -0.8307
 1622TIP3   OH226280   5.018   3.433  10.722 -0.5173 -0.1890  0.2542
 1622TIP3    H126281   4.931   3.394  10.727 -0.2504 -0.8741 -0.4845
 1622TIP3    H226282   5.059   3.392  10.646 -0.3805  1.8101 -0.7790
 1623TIP3   OH226283   6.732   0.726  12.061 -0.4211 -0.4903 -0.7302
 1623TIP3    H126284   6.665   0.659  12.075  1.1969 -1.7665  1.0838
 1623TIP3    H226285   6.697   0.804  12.105  0.1314 -1.6952  1.9405
 1624TIP3   OH226286   6.027   2.355   9.873 -0.3336  0.5078  0.6531
 1624TIP3    H126287   5.956   2.350   9.938 -0.5410  0.0053  0.3910
 1624TIP3    H226288   6.082   2.280   9.892 -0.5699  0.1774  0.0422
 1625TIP3   OH226289   3.644   3.298  10.633 -0.3435 -0.4654 -0.3320
 1625TIP3    H126290   3.679   3.275  10.548 -1.0322 -0.1070 -0.7189
 1625TIP3    H226291   3.576   3.363  10.615 -1.8507 -1.8211  0.3038
 1626TIP3   OH226292   4.507   3.786  11.418  0.4799 -0.4814  0.1662
 1626TIP3    H126293   4.588   3.740  11.441  0.3660 -0.9578 -0.3711
 1626TIP3    H226294   4.438   3.737  11.461  0.0662 -2.5118 -2.6364
 1627TIP3   OH226295   4.471   2.435  11.148  0.5339 -0.1278 -0.3896
 1627TIP3    H126296   4.492   2.463  11.058  0.8728 -0.3294 -0.3785
 1627TIP3    H226297   4.376   2.440  11.153  0.5604  0.6095 -0.5204
 1628TIP3   OH226298   6.298   3.918  11.472 -0.1160 -0.3252  0.2589
 1628TIP3    H126299   6.285   3.955  11.385  1.3702  0.5110  0.3774
 1628TIP3    H226300   6.391   3.897  11.475  0.0432  0.5734  1.9977
 1629TIP3   OH226301   3.623   1.855  10.103  0.3400 -0.5090 -0.4968
 1629TIP3    H126302   3.647   1.909  10.028  1.0362  0.4349  0.3744
 1629TIP3    H226303   3.558   1.908  10.151  1.4298 -0.1806  0.6533
 1630TIP3   OH226304   5.357   1.354  10.777  0.5286 -0.4111 -0.2136
 1630TIP3    H126305   5.413   1.421  10.817 -0.4174  0.8967 -1.0333
 1630TIP3    H226306   5.336   1.294  10.849 -0.7844  1.6470  1.1692
 1631TIP3   OH226307   5.843   3.639  10.115 -0.1086 -0.6998 -0.4528
 1631TIP3    H126308   5.835   3.590  10.033 -2.0508  0.2594 -0.8567
 1631TIP3    H226309   5.868   3.573  10.180 -1.1821 -1.9448 -1.2903
 1632TIP3   OH226310   3.658   2.937  11.081  0.4084 -0.1218  0.6036
 1632TIP3    H126311   3.585   2.877  11.066 -0.0756  0.5118  0.4153
 1632TIP3    H226312   3.617   3.020  11.107  1.0725  0.1250  0.8908
 1633TIP3   OH226313   0.494   2.398  11.928  0.3419 -0.0716 -0.5667
 1633TIP3    H126314   0.503   2.489  11.898  0.1280 -0.3675 -1.5270
 1633TIP3    H226315   0.537   2.346  11.861  0.8905 -0.6500  0.2299
 1634TIP3   OH226316   4.157   1.555  10.312  0.2215  0.2548  0.8400
 1634TIP3    H126317   4.231   1.524  10.261  0.2670  0.4967  0.7566
 1634TIP3    H226318   4.083   1.502  10.284  0.6915 -1.0824  2.0716
 1635TIP3   OH226319   4.077   7.074  10.253  0.6182  0.2895  0.0751
 1635TIP3    H126320   3.990   7.072  10.291 -0.5273  0.1343 -2.4530
 1635TIP3    H226321   4.097   7.167  10.243  0.5762  0.3234  0.3176
 1636TIP3   OH226322   4.611   2.255  10.741  0.0921  0.5618 -0.2099
 1636TIP3    H126323   4.629   2.170  10.782  0.1133  0.6204 -0.0963
 1636TIP3    H226324   4.682   2.265  10.677  0.8092  1.0521  0.6466
 1637TIP3   OH226325   5.571   2.007  12.737  0.2636  0.0039 -0.2984
 1637TIP3    H126326   5.563   2.036  12.828  3.7827  2.3580 -0.6345
 1637TIP3    H226327   5.504   2.057  12.690 -1.5280 -1.1769  0.9426
 1638TIP3   OH226328   4.124   2.200   9.941 -0.3691  0.4156 -0.2696
 1638TIP3    H126329   4.163   2.273   9.892 -1.9014  0.7453 -1.0189
 1638TIP3    H226330   4.050   2.173   9.888 -1.5470  0.2194  1.4495
 1639TIP3   OH226331   4.145   3.293  11.697 -0.0839 -0.5370 -0.5525
 1639TIP3    H126332   4.154   3.275  11.791  1.1394  1.3144 -0.2880
 1639TIP3    H226333   4.207   3.233  11.655  0.3341 -0.4395 -0.0777
 1640TIP3   OH226334   3.698   0.552  10.117 -0.2267 -0.4345 -0.0207
 1640TIP3    H126335   3.734   0.565  10.029 -0.6939 -1.7853 -0.4342
 1640TIP3    H226336   3.673   0.639  10.146  0.7308  0.1408 -0.8793
 1641TIP3   OH226337   3.879   2.879  11.254 -0.3747 -0.4466 -0.2004
 1641TIP3    H126338   3.944   2.910  11.191  0.1919 -1.3071 -0.0628
 1641TIP3    H226339   3.795   2.899  11.214 -0.0662  2.7934  0.6553
 1642TIP3   OH226340   6.371   3.121  11.200 -0.1864 -0.4205 -0.0193
 1642TIP3    H126341   6.327   3.106  11.284  0.7994 -1.4686  0.3339
 1642TIP3    H226342   6.437   3.187  11.220 -0.4203 -0.1538 -0.1318
 1643TIP3   OH226343   4.720   2.904  14.109  0.3233 -0.2416  0.4917
 1643TIP3    H126344   4.739   2.954  14.188 -0.1848  1.0052 -0.1550
 1643TIP3    H226345   4.642   2.853  14.130 -0.5009  0.9726  0.4286
 1644TIP3   OH226346   5.350   2.414  10.818 -0.2827 -0.2556  0.0172
 1644TIP3    H126347   5.427   2.467  10.842  0.4670 -0.8715 -0.9664
 1644TIP3    H226348   5.372   2.379  10.731 -1.7677 -0.2764 -0.3575
 1645TIP3   OH226349   3.842   2.488  11.629 -0.0167  0.2281  0.2025
 1645TIP3    H126350   3.784   2.430  11.580 -0.9521 -0.3002  1.8969
 1645TIP3    H226351   3.844   2.568  11.577  1.0302 -1.1563 -2.0100
 1646TIP3   OH226352   2.662   3.674  11.337  0.0475  0.1498  0.6557
 1646TIP3    H126353   2.756   3.663  11.325  0.2008 -0.0006  1.9073
 1646TIP3    H226354   2.650   3.768  11.347  0.0223  0.1976  0.1868
 1647TIP3   OH226355   6.336   6.803  12.744  0.2955 -0.1210  0.4623
 1647TIP3    H126356   6.274   6.818  12.673  0.6948  0.3510  0.2077
 1647TIP3    H226357   6.359   6.711  12.738  1.0383  0.1204 -0.6019
 1648TIP3   OH226358   6.328   2.649  11.023  0.1931 -0.0572  0.2756
 1648TIP3    H126359   6.314   2.582  10.955  0.0956 -2.0982  2.2372
 1648TIP3    H226360   6.258   2.633  11.086  0.5591  1.5231  1.0915
 1649TIP3   OH226361   5.244   3.509  10.860  0.1427 -0.6247  0.0004
 1649TIP3    H126362   5.154   3.500  10.828 -0.3523 -0.3403  1.2756
 1649TIP3    H226363   5.259   3.603  10.866  0.2283 -0.6745  0.5989
 1650TIP3   OH226364   6.570   3.443  10.459 -0.1224  0.2277  0.2517
 1650TIP3    H126365   6.606   3.358  10.485  0.2018  0.0936 -0.6065
 1650TIP3    H226366   6.478   3.439  10.483 -0.3844 -0.8365 -0.8793
 1651TIP3   OH226367   4.227   5.275  12.673 -0.2086  0.1413  0.5203
 1651TIP3    H126368   4.315   5.262  12.637  0.1294 -0.5914  1.6100
 1651TIP3    H226369   4.215   5.370  12.673  0.4436  0.2272  0.0551
 1652TIP3   OH226370   4.939   5.692  10.888  0.2939  0.2519  0.0274
 1652TIP3    H126371   4.895   5.635  10.951 -0.4682  0.3200 -0.4383
 1652TIP3    H226372   4.877   5.699  10.815  0.8768  0.7363 -0.4217
 1653TIP3   OH226373   4.315   3.075  11.086 -0.4024 -0.1175 -0.7559
 1653TIP3    H126374   4.353   3.117  11.009  1.5674  0.0010  0.2522
 1653TIP3    H226375   4.307   2.983  11.062 -0.7968  0.0941 -1.4643
 1654TIP3   OH226376   3.506   2.179  10.034  0.0790 -0.5631  0.0337
 1654TIP3    H126377   3.559   2.152   9.959 -0.7399 -1.0557 -0.3820
 1654TIP3    H226378   3.455   2.101  10.057 -0.6524 -0.0295  0.2588
 1655TIP3   OH226379   5.555   1.217  10.060 -0.3710 -0.2141  0.5522
 1655TIP3    H126380   5.618   1.282  10.028  0.2385 -0.6997  0.7579
 1655TIP3    H226381   5.533   1.247  10.148  0.4224 -0.6481  0.9044
 1656TIP3   OH226382   5.874   0.568  10.722  0.1950 -0.0949 -1.3241
 1656TIP3    H126383   5.813   0.495  10.728  2.0003 -1.4339  2.6756
 1656TIP3    H226384   5.818   0.646  10.728 -1.3060 -1.2597  0.7595
 1657TIP3   OH226385   3.461   1.679   9.949 -0.2613 -0.4999  0.2545
 1657TIP3    H126386   3.496   1.668   9.861  0.0851 -1.0977  0.4631
 1657TIP3    H226387   3.538   1.696  10.004 -0.6185  1.3130  0.2179
 1658TIP3   OH226388   5.731   2.446  10.447  0.4040  0.8642 -0.0137
 1658TIP3    H126389   5.736   2.359  10.406 -2.6225  1.1398 -1.0895
 1658TIP3    H226390   5.790   2.500  10.394  2.4773 -0.5280  0.7877
 1659TIP3   OH226391   6.732   2.961  11.353  0.4419  0.3839  0.0029
 1659TIP3    H126392   6.673   3.020  11.400  2.0143  0.0448  2.5159
 1659TIP3    H226393   6.674   2.904  11.303 -1.2821  1.3630  0.8399
 1660TIP3   OH226394   2.552   1.663  11.036 -0.2309 -0.1163  0.6557
 1660TIP3    H126395   2.508   1.743  11.010  1.0597  0.8603  1.4024
 1660TIP3    H226396   2.593   1.631  10.955  1.2022  1.2511  0.8247
 1661TIP3   OH226397   4.676   2.872   9.909  0.7025 -0.3250 -0.2212
 1661TIP3    H126398   4.712   2.935   9.846 -1.3123  0.9186 -0.1861
 1661TIP3    H226399   4.613   2.821   9.858  1.6774 -1.7371 -0.0354
 1662TIP3   OH226400   3.484   1.463  12.091  0.6927  0.1643  0.1519
 1662TIP3    H126401   3.558   1.408  12.115  1.8381  1.4205 -0.4373
 1662TIP3    H226402   3.499   1.546  12.136  0.9582  1.2759 -1.9085
 1663TIP3   OH226403   2.632   3.258  12.020  0.1796 -0.1674  0.2433
 1663TIP3    H126404   2.585   3.284  11.940  0.8818 -3.3384 -1.2818
 1663TIP3    H226405   2.580   3.185  12.055  1.3107 -0.5054  1.2269
 1664TIP3   OH226406   6.691   4.729   9.889  0.5075 -1.0597  0.0031
 1664TIP3    H126407   6.597   4.738   9.904  0.3134 -1.0140 -1.2014
 1664TIP3    H226408   6.710   4.789   9.817  1.8554  0.5373  1.6415
 1665TIP3   OH226409   3.533   0.303  10.093  0.3125  0.0299 -0.2676
 1665TIP3    H126410   3.585   0.381  10.072  1.2693 -0.5690 -0.1957
 1665TIP3    H226411   3.562   0.238  10.030 -1.5116  0.1485 -1.2267
 1666TIP3   OH226412   2.718   4.202  11.847  0.2201 -0.6250 -0.1429
 1666TIP3    H126413   2.637   4.252  11.860  0.4499 -0.0919 -0.7616
 1666TIP3    H226414   2.774   4.227  11.920  0.4463  0.2529 -0.6097
 1667TIP3   OH226415   6.481   5.178  11.877 -0.3363  0.1614  0.2987
 1667TIP3    H126416   6.501   5.254  11.823  2.4329 -0.1446  0.8139
 1667TIP3    H226417   6.497   5.103  11.820 -0.9995 -0.0885  0.4365
 1668TIP3   OH226418   4.486   1.330  12.438 -0.1192 -0.6350  0.4213
 1668TIP3    H126419   4.580   1.341  12.453 -0.2770  1.2129  0.1270
 1668TIP3    H226420   4.460   1.262  12.500  1.2442 -0.5547  1.1026
 1669TIP3   OH226421   5.577   3.495  10.175 -0.2255  0.0829 -0.5099
 1669TIP3    H126422   5.661   3.502  10.130  0.3967  2.9230  0.9924
 1669TIP3    H226423   5.599   3.465  10.263 -1.2511 -3.3587 -1.3293
 1670TIP3   OH226424   6.533   5.419  11.309  0.1404  0.4803 -0.9211
 1670TIP3    H126425   6.535   5.397  11.216  0.7437  0.0764 -0.8155
 1670TIP3    H226426   6.626   5.424  11.334 -0.0171  0.7563 -0.3818
 1671TIP3   OH226427   3.138   1.516  11.623  0.7914  0.4211 -0.5113
 1671TIP3    H126428   3.044   1.521  11.605  0.6972  1.3364  0.1963
 1671TIP3    H226429   3.169   1.446  11.566  0.0208  1.3992 -2.2028
 1672TIP3   OH226430   6.283   1.566  11.093 -0.3632  0.2981  0.4485
 1672TIP3    H126431   6.350   1.511  11.052 -0.7774 -0.9294  1.3823
 1672TIP3    H226432   6.282   1.538  11.185 -2.6302 -0.1715  0.3011
 1673TIP3   OH226433   5.918   5.031  11.685  0.0016  0.3760 -0.0071
 1673TIP3    H126434   6.007   5.066  11.680 -0.1418  0.7138 -0.2486
 1673TIP3    H226435   5.906   5.010  11.778 -0.1817  1.7222  0.2972
 1674TIP3   OH226436   4.018   1.861  12.099 -0.2771  0.0357  0.5601
 1674TIP3    H126437   4.030   1.791  12.035  0.0076 -0.6783  1.3860
 1674TIP3    H226438   3.930   1.895  12.081 -0.1753 -0.1127 -0.2529
 1675TIP3   OH226439   0.780   3.493  12.731  0.0165  0.1021 -0.4557
 1675TIP3    H126440   0.833   3.541  12.667  1.6214 -0.6173  0.3141
 1675TIP3    H226441   0.701   3.547  12.741 -0.1974  0.3070 -2.9041
 1676TIP3   OH226442   0.828   3.719  11.437 -0.8387 -0.3905 -0.0558
 1676TIP3    H126443   0.923   3.733  11.438 -1.1583  1.9325  2.3973
 1676TIP3    H226444   0.817   3.638  11.387  2.1631  1.0658 -3.3743
 1677TIP3   OH226445   6.886   3.015   9.877 -0.3198  0.1312  0.1840
 1677TIP3    H126446   6.879   3.090   9.817 -1.8447 -0.6020 -0.5987
 1677TIP3    H226447   6.973   2.979   9.861  0.4303  1.7337  0.5705
 1678TIP3   OH226448   6.731   1.601  11.614 -0.0350  0.0979 -0.2122
 1678TIP3    H126449   6.663   1.616  11.548 -0.4236 -0.2377  0.1078
 1678TIP3    H226450   6.785   1.531  11.577  0.4057  0.6813 -0.6699
 1679TIP3   OH226451   6.607   2.114  12.437  0.2790  0.0577  0.0233
 1679TIP3    H126452   6.589   2.053  12.365  2.4273 -1.1243  0.4480
 1679TIP3    H226453   6.594   2.062  12.516 -3.8411  1.8266  0.6405
 1680TIP3   OH226454   4.528   2.346   9.908 -0.0352 -0.2914  0.3752
 1680TIP3    H126455   4.587   2.275   9.882 -0.2283 -0.2772 -0.1076
 1680TIP3    H226456   4.483   2.313   9.986  1.5774  0.2134  1.5546
 1681TIP3   OH226457   7.029   3.815  11.621 -0.0691  0.2218 -0.4167
 1681TIP3    H126458   7.086   3.808  11.545 -1.1064 -0.6172 -1.1326
 1681TIP3    H226459   6.995   3.904  11.619  0.8100  0.5691 -0.2645
 1682TIP3   OH226460   0.077   2.773  11.534 -0.3991  0.1418 -0.3575
 1682TIP3    H126461   0.035   2.750  11.451 -1.0383 -0.1619  0.0423
 1682TIP3    H226462   0.131   2.697  11.555  0.2173  0.4631 -0.7893
 1683TIP3   OH226463   6.989   3.833   9.966  0.2066  0.7731 -0.2569
 1683TIP3    H126464   6.917   3.792   9.918  2.3712 -1.6483 -1.5578
 1683TIP3    H226465   7.008   3.773  10.038  2.0159  0.4912 -0.9308
 1684TIP3   OH226466   0.027   4.010  11.207 -0.2150  0.1561 -0.0483
 1684TIP3    H126467   0.120   4.031  11.217 -0.2525  0.1244  0.3617
 1684TIP3    H226468  -0.010   4.086  11.161 -0.0314  0.2668 -0.0118
 1685TIP3   OH226469   6.319   7.176  12.252  0.4854 -0.3311  0.5382
 1685TIP3    H126470   6.226   7.175  12.229  0.4725 -2.9717  0.5355
 1685TIP3    H226471   6.321   7.214  12.340 -0.4255  1.0563 -0.0170
 1686TIP3   OH226472   5.842   2.401  10.697 -0.3664 -0.1929 -0.1915
 1686TIP3    H126473   5.799   2.422  10.614 -0.6994 -2.0586 -0.5148
 1686TIP3    H226474   5.817   2.310  10.715 -0.8104  0.3769  2.2694
 1687TIP3   OH226475   7.148   3.771  10.193  0.2656  0.6721 -0.2993
 1687TIP3    H126476   7.163   3.677  10.197  0.6636  0.7920  1.7975
 1687TIP3    H226477   7.098   3.790  10.272  0.7270  2.3194 -0.3931
 1688TIP3   OH226478   2.378   2.199  12.557 -0.8109 -0.3797  0.2214
 1688TIP3    H126479   2.450   2.140  12.534  0.0391  0.9963 -0.7463
 1688TIP3    H226480   2.335   2.218  12.473 -2.1298 -0.9590  0.7537
 1689TIP3   OH226481   6.815   1.821  11.759 -0.1705 -0.4143 -0.3359
 1689TIP3    H126482   6.782   1.898  11.712 -1.8031 -0.3845  0.8011
 1689TIP3    H226483   6.779   1.747  11.711  0.5724 -0.4499 -0.8418
 1690TIP3   OH226484   5.595   4.132  10.121 -0.1986  0.3676 -0.2828
 1690TIP3    H126485   5.558   4.049  10.152 -0.4760  0.6186  0.0595
 1690TIP3    H226486   5.650   4.107  10.047 -0.6967 -0.0633 -0.5158
 1691TIP3   OH226487   5.772   2.823  10.051  0.1514 -0.8202  0.0142
 1691TIP3    H126488   5.774   2.731  10.077 -0.5508 -0.9344 -0.3145
 1691TIP3    H226489   5.753   2.871  10.132  0.7579 -0.9463  0.2295
 1692TIP3   OH226490   7.299   2.683  11.287  0.5679  0.6102 -0.8790
 1692TIP3    H126491   7.277   2.755  11.228  0.8855  0.9336 -0.6016
 1692TIP3    H226492   7.215   2.640  11.303 -0.6164  4.0423  3.1081
 1693TIP3   OH226493   2.150   3.702  12.436  0.2137  0.2145 -0.4599
 1693TIP3    H126494   2.168   3.608  12.427  1.0499  0.4575 -1.4646
 1693TIP3    H226495   2.180   3.723  12.524 -0.9582 -0.6673  0.1695
 1694TIP3   OH226496   6.546   2.229  10.199 -0.2908 -0.3428  0.4550
 1694TIP3    H126497   6.639   2.221  10.176 -0.3077 -1.0983  0.6663
 1694TIP3    H226498   6.500   2.217  10.117 -0.1979  0.2068  0.3194
 1695TIP3   OH226499   6.698   2.858   9.964 -0.1922  0.6982 -0.3786
 1695TIP3    H126500   6.759   2.927   9.937 -1.5184  1.7642 -0.6983
 1695TIP3    H226501   6.613   2.886   9.930 -1.2765  0.3299  1.9151
 1696TIP3   OH226502   5.285   3.234  10.195  0.2080  0.4089  0.0700
 1696TIP3    H126503   5.241   3.268  10.117  0.5817 -3.3074 -1.8581
 1696TIP3    H226504   5.377   3.228  10.169  0.2240 -1.4949  0.5646
 1697TIP3   OH226505   5.954   1.438  10.637 -0.5017  0.4357  0.2431
 1697TIP3    H126506   6.038   1.438  10.684  0.9274 -1.3046 -2.1648
 1697TIP3    H226507   5.957   1.517  10.582 -1.3998  1.5233  1.7361
 1698TIP3   OH226508   7.220   2.558  12.183  0.6945  0.1031 -0.0942
 1698TIP3    H126509   7.243   2.587  12.095 -0.3276  1.5039  0.0832
 1698TIP3    H226510   7.172   2.632  12.221  3.5595  0.6320  2.6504
 1699TIP3   OH226511   1.913   3.271  11.744  0.2123  0.1603 -0.1842
 1699TIP3    H126512   1.936   3.285  11.652  0.4320  0.2154 -0.1224
 1699TIP3    H226513   1.989   3.226  11.781  0.5874  1.1162  0.2288
 1700TIP3   OH226514   3.718   3.307  11.096  0.4339 -0.4795 -0.1912
 1700TIP3    H126515   3.680   3.394  11.087 -1.5705 -1.4116 -0.9240
 1700TIP3    H226516   3.645   3.250  11.119  1.1141 -2.5210 -2.8250
 1701TIP3   OH226517   5.832   5.429  11.797  0.0500  0.2221 -0.1471
 1701TIP3    H126518   5.816   5.513  11.754 -0.4680  0.3471  0.2965
 1701TIP3    H226519   5.892   5.450  11.869 -0.6925  0.3377  0.4417
 1702TIP3   OH226520   0.169   4.737  11.137  0.6726  0.9669 -0.6658
 1702TIP3    H126521   0.163   4.654  11.090 -0.3032  1.7211 -1.9021
 1702TIP3    H226522   0.263   4.752  11.149  0.8451 -0.3791 -0.3234
 1703TIP3   OH226523   6.700   6.135  11.891 -1.2629 -0.1619  0.1131
 1703TIP3    H126524   6.712   6.221  11.931  0.5567 -0.0251 -0.6878
 1703TIP3    H226525   6.606   6.117  11.901 -1.4470  1.3766  1.3491
 1704TIP3   OH226526   6.450   3.122  12.200 -0.2542 -0.8855 -0.5096
 1704TIP3    H126527   6.362   3.154  12.180  0.0787 -0.3080 -1.0739
 1704TIP3    H226528   6.439   3.028  12.212 -0.8109 -0.9435 -1.4102
 1705TIP3   OH226529   4.366   4.443  11.255 -0.3699 -0.5110  0.3653
 1705TIP3    H126530   4.409   4.495  11.323 -0.6558  0.2361 -0.0216
 1705TIP3    H226531   4.421   4.365  11.246  0.9432  0.4668 -0.1772
 1706TIP3   OH226532   4.324   4.004  11.868 -0.0612  0.1745 -0.3024
 1706TIP3    H126533   4.310   4.097  11.850 -0.3301  0.1149 -0.3972
 1706TIP3    H226534   4.246   3.960  11.833 -0.4660  0.0338  0.7601
 1707TIP3   OH226535   6.402   4.318   9.965 -1.0998 -0.6885  0.1662
 1707TIP3    H126536   6.323   4.355   9.927 -0.5195 -0.9257 -1.2900
 1707TIP3    H226537   6.428   4.250   9.904  1.0186  0.3343 -0.1140
 1708TIP3   OH226538   6.778   3.248  11.004  0.4195 -0.4173  0.1975
 1708TIP3    H126539   6.851   3.192  11.030  0.9609  0.8792  1.5065
 1708TIP3    H226540   6.775   3.241  10.909  1.6923 -1.1658  0.2027
 1709TIP3   OH226541   6.407   4.914  10.627 -0.9091  0.0388  0.2086
 1709TIP3    H126542   6.460   4.993  10.620  1.6990 -1.5819  0.6245
 1709TIP3    H226543   6.374   4.898  10.539 -0.4855  0.9540 -0.1193
 1710TIP3   OH226544   6.026   5.442  11.998  0.2479 -0.5884  0.1310
 1710TIP3    H126545   6.079   5.381  11.947 -0.7394 -0.6578 -0.8534
 1710TIP3    H226546   6.089   5.492  12.050  1.1830 -1.3520 -0.2530
 1711TIP3   OH226547   2.205   4.273  12.647  0.0788  0.1530 -0.5767
 1711TIP3    H126548   2.141   4.208  12.677  1.7849 -1.4733 -0.3497
 1711TIP3    H226549   2.281   4.221  12.620  1.8860  2.1126  0.5822
 1712TIP3   OH226550   5.586   1.368  11.477  0.2426 -0.0133  0.3222
 1712TIP3    H126551   5.537   1.307  11.423 -1.2073  0.1477  1.4108
 1712TIP3    H226552   5.678   1.357  11.450 -0.2551 -1.1334 -0.9459
 1713TIP3   OH226553   5.095   1.863  12.894 -0.4751  0.0237  0.0700
 1713TIP3    H126554   5.148   1.848  12.972 -1.1329 -0.0692  0.4980
 1713TIP3    H226555   5.072   1.956  12.899  0.7716  0.4009 -0.8288
 1714TIP3   OH226556   5.536   2.410  11.809 -0.6265  0.4593 -0.6562
 1714TIP3    H126557   5.621   2.393  11.768 -0.7370  2.7227 -1.9000
 1714TIP3    H226558   5.487   2.459  11.743 -2.6763 -0.2226  0.3081
 1715TIP3   OH226559   0.829   2.702  14.231  0.3322 -0.6290 -0.2077
 1715TIP3    H126560   0.740   2.677  14.257  0.2695 -1.5435 -1.2523
 1715TIP3    H226561   0.871   2.729  14.312 -0.3095 -2.0299  0.6050
 1716TIP3   OH226562   6.709   2.649  10.741  0.5710 -0.1063  0.2933
 1716TIP3    H126563   6.785   2.597  10.714  0.5270 -0.0297  0.0174
 1716TIP3    H226564   6.720   2.732  10.694  0.9534  0.3596  1.1797
 1717TIP3   OH226565   6.867   1.925  10.001 -0.4695 -0.0924 -0.5751
 1717TIP3    H126566   6.888   1.893   9.914 -1.0757  0.3783 -0.8968
 1717TIP3    H226567   6.793   1.984   9.988 -0.3777  0.2045  0.2192
 1718TIP3   OH226568   6.807   3.640  13.109  0.3096  0.3787 -0.0536
 1718TIP3    H126569   6.738   3.575  13.111 -2.1783  2.9181 -0.2282
 1718TIP3    H226570   6.787   3.700  13.181  3.0287  0.4954  0.6793
 1719TIP3   OH226571   0.260   0.806  10.973 -0.7155 -0.5399 -0.2189
 1719TIP3    H126572   0.176   0.841  11.001 -1.1364 -2.5978  1.1902
 1719TIP3    H226573   0.251   0.795  10.878 -1.5621  0.4782 -0.2576
 1720TIP3   OH226574   4.847   2.252  10.459 -0.0561  0.0005  0.0414
 1720TIP3    H126575   4.825   2.214  10.374 -1.5366 -0.8079  0.7621
 1720TIP3    H226576   4.913   2.318  10.440 -1.5140  0.9237 -1.9240
 1721TIP3   OH226577   6.660   2.088   9.925 -0.1909 -0.1062  0.2394
 1721TIP3    H126578   6.695   2.176   9.943 -1.4442  0.5855 -0.5617
 1721TIP3    H226579   6.574   2.105   9.886 -0.5367 -1.7099  0.2838
 1722TIP3   OH226580   6.125   1.203  11.504 -0.2256 -0.1315  0.0861
 1722TIP3    H126581   6.153   1.117  11.473 -0.4045 -0.4197  0.7182
 1722TIP3    H226582   6.048   1.185  11.557 -0.8917  0.5364 -0.6513
 1723TIP3   OH226583   1.008   4.676  12.889  0.1744  0.0351  0.1498
 1723TIP3    H126584   1.064   4.750  12.865  0.5933 -0.2208  0.3245
 1723TIP3    H226585   1.064   4.621  12.944 -0.8803  0.7981  2.0341
 1724TIP3   OH226586   6.318   3.397  10.534  0.1857  1.1021  0.2587
 1724TIP3    H126587   6.254   3.372  10.467  0.8333  0.0160  0.0283
 1724TIP3    H226588   6.291   3.347  10.611  0.6499  0.7878  0.2139
 1725TIP3   OH226589   4.934   7.036  12.760 -0.0483  0.6391  0.5980
 1725TIP3    H126590   4.891   7.105  12.708  1.1603  0.7335 -0.3038
 1725TIP3    H226591   5.017   7.020  12.714  0.4844 -0.1556  1.8230
 1726TIP3   OH226592   1.923   4.244  10.318 -0.8500 -0.5308  0.6399
 1726TIP3    H126593   1.900   4.336  10.307  1.7588  0.0815  0.0257
 1726TIP3    H226594   1.939   4.213  10.229 -0.3725 -1.2118  0.9620
 1727TIP3   OH226595   7.052   2.789  13.338  0.3735 -0.2537  0.0226
 1727TIP3    H126596   7.141   2.819  13.356  0.6061 -1.0123  0.1654
 1727TIP3    H226597   7.063   2.711  13.284 -0.2225 -0.0942 -0.3338
 1728TIP3   OH226598   4.125   0.890  12.058  0.3041 -0.2758 -0.0762
 1728TIP3    H126599   4.085   0.972  12.087 -0.0431 -0.1343 -0.9670
 1728TIP3    H226600   4.143   0.843  12.140  1.1050  0.9615  0.4844
 1729TIP3   OH226601   6.271   4.573  12.060 -0.2368 -0.2299  0.0047
 1729TIP3    H126602   6.350   4.607  12.103 -0.3925  0.0569  0.0591
 1729TIP3    H226603   6.231   4.516  12.126 -1.5978  1.8352  1.0084
 1730TIP3   OH226604   6.972   2.468   9.965  0.1752 -0.5073  0.0321
 1730TIP3    H126605   7.068   2.463   9.961  0.0380 -2.1348 -1.6814
 1730TIP3    H226606   6.952   2.554   9.927  1.0603  1.1434  3.1039
 1731TIP3   OH226607   6.970   5.419  10.427  0.1867  0.1546  0.3961
 1731TIP3    H126608   6.941   5.330  10.410 -0.0250  0.4660 -0.9432
 1731TIP3    H226609   7.000   5.418  10.518  0.3386 -1.3187  0.3400
 1732TIP3   OH226610   5.038   1.417  10.418 -0.1303 -0.2624 -0.0705
 1732TIP3    H126611   5.092   1.475  10.471 -1.9039  1.6024 -0.2538
 1732TIP3    H226612   5.022   1.341  10.473  2.7419 -0.8962 -0.0572
 1733TIP3   OH226613   6.499   1.870   9.653  0.0100 -0.2044 -0.6597
 1733TIP3    H126614   6.489   1.965   9.648 -0.8261 -0.2845 -0.5855
 1733TIP3    H226615   6.557   1.856   9.728  0.1683  0.2466 -0.6958
 1734TIP3   OH226616   5.277   4.907  11.415  0.1365 -0.0956 -0.1277
 1734TIP3    H126617   5.187   4.929  11.391  0.4940  0.8266 -0.6631
 1734TIP3    H226618   5.305   4.845  11.348  0.5727  1.1999 -1.1827
 1735TIP3   OH226619   6.355   4.392  13.577  0.2222  0.1600 -0.1748
 1735TIP3    H126620   6.420   4.393  13.647 -0.3162 -0.2756  0.3297
 1735TIP3    H226621   6.274   4.420  13.618 -0.4030 -1.3949 -0.3086
 1736TIP3   OH226622   5.028   2.214  11.700  0.1588  0.1279 -0.3537
 1736TIP3    H126623   4.961   2.246  11.639  0.0878  1.5962  0.4601
 1736TIP3    H226624   5.016   2.268  11.778 -0.6225 -2.5826  1.4893
 1737TIP3   OH226625   5.921   4.531  11.653 -0.0805  0.0307  0.1263
 1737TIP3    H126626   5.877   4.609  11.686  1.1555  0.7422  0.1028
 1737TIP3    H226627   5.852   4.464  11.651 -0.7716  0.6691  1.6826
 1738TIP3   OH226628   5.279   2.269  11.244  0.2520  0.3092  0.5314
 1738TIP3    H126629   5.325   2.343  11.283  0.9908  0.2270 -0.1632
 1738TIP3    H226630   5.233   2.306  11.169  1.7523 -0.1602 -0.6575
 1739TIP3   OH226631   0.322   3.006  10.901  0.4352 -0.7886  0.6077
 1739TIP3    H126632   0.334   2.917  10.870  0.2418 -0.4976 -0.3225
 1739TIP3    H226633   0.357   3.061  10.831 -0.4570 -0.1078  0.6905
 1740TIP3   OH226634   6.823   3.127  10.123 -0.0681 -0.3915 -0.2315
 1740TIP3    H126635   6.860   3.090  10.043 -1.2121 -0.3158 -0.8103
 1740TIP3    H226636   6.749   3.070  10.144 -2.1109  1.7183 -1.3543
 1741TIP3   OH226637   0.391   2.398  13.746 -0.1555 -0.4580  0.8817
 1741TIP3    H126638   0.423   2.472  13.798 -2.3812  1.3577 -0.2566
 1741TIP3    H226639   0.378   2.328  13.810  2.8713 -0.2141  1.8369
 1742TIP3   OH226640   5.410   2.422  12.674  0.5187  0.4784  0.0756
 1742TIP3    H126641   5.415   2.517  12.662  1.9361  0.5011  0.7609
 1742TIP3    H226642   5.382   2.411  12.765  0.6496  0.2377  0.0880
 1743TIP3   OH226643   0.336   3.927  11.994 -0.4172 -0.0859 -0.3889
 1743TIP3    H126644   0.287   3.881  12.063 -0.4463 -0.0792 -0.4043
 1743TIP3    H226645   0.387   3.858  11.952  1.9406  0.3765  1.5973
 1744TIP3   OH226646   1.358   4.067  14.976 -0.1153  0.1295  0.3667
 1744TIP3    H126647   1.380   4.129  15.046 -1.6589  0.8168  0.2585
 1744TIP3    H226648   1.272   4.032  15.001 -0.2014 -0.4006 -0.6496
 1745TIP3   OH226649   6.520   5.363  11.007 -0.5341  0.0304 -0.8119
 1745TIP3    H126650   6.560   5.279  10.982  0.6169 -0.0203  1.1058
 1745TIP3    H226651   6.437   5.339  11.047 -1.1603 -0.0459 -2.1209
 1746TIP3   OH226652   1.330   2.188  12.322  0.0014  0.2691 -0.6284
 1746TIP3    H126653   1.415   2.161  12.356 -1.1318 -3.1329 -0.3728
 1746TIP3    H226654   1.350   2.228  12.237  1.8756 -0.3864 -0.5203
 1747TIP3   OH226655   7.159   3.747  12.977  0.6852  0.3509  0.3762
 1747TIP3    H126656   7.222   3.787  12.917  1.1230  0.9471  1.2077
 1747TIP3    H226657   7.133   3.819  13.035 -0.5861  0.0466  0.1848
 1748TIP3   OH226658   5.035   1.413  11.391 -0.1817  0.1338 -0.2509
 1748TIP3    H126659   5.008   1.487  11.335  0.1748  0.6179  0.2178
 1748TIP3    H226660   4.977   1.342  11.364  0.4977  0.1336 -1.7859
 1749TIP3   OH226661   6.628   2.978  10.239 -0.1450  0.3163 -0.0638
 1749TIP3    H126662   6.556   2.976  10.302  1.0704  1.7459  1.4071
 1749TIP3    H226663   6.641   2.886  10.215 -2.1659 -0.0117 -0.0423
 1750TIP3   OH226664   0.956   2.111  12.806 -0.3718  0.7328 -0.5759
 1750TIP3    H126665   0.977   2.204  12.818  2.4717  0.1775 -0.8710
 1750TIP3    H226666   0.992   2.069  12.884 -2.3171 -0.0543 -0.0768
 1751TIP3   OH226667   7.128   1.138  10.269  0.6121  1.0506  0.0709
 1751TIP3    H126668   7.065   1.104  10.205 -0.0690  1.7142  0.3815
 1751TIP3    H226669   7.176   1.207  10.222  0.9288  0.7291 -0.0830
 1752TIP3   OH226670   5.809   2.795  10.321 -0.3208 -0.2388 -0.0103
 1752TIP3    H126671   5.885   2.832  10.276 -0.6352 -0.1092 -0.4326
 1752TIP3    H226672   5.829   2.805  10.414 -0.2266  0.6419 -0.1247
 1753TIP3   OH226673   6.363   1.209  12.790  0.2264  0.2793 -0.0935
 1753TIP3    H126674   6.283   1.207  12.737  0.1177 -0.5470  0.0994
 1753TIP3    H226675   6.429   1.165  12.736  0.4908  0.7279 -0.1437
 1754TIP3   OH226676   5.807   2.042  12.020 -0.0345 -0.1218  0.5100
 1754TIP3    H126677   5.842   1.987  11.949 -1.1253 -0.7688  0.4691
 1754TIP3    H226678   5.867   2.028  12.093  0.9117  0.2917 -0.1748
 1755TIP3   OH226679   0.175   2.585  10.942  0.4623  0.1359  0.2208
 1755TIP3    H126680   0.144   2.668  10.906 -0.9208 -1.0228 -1.3271
 1755TIP3    H226681   0.250   2.562  10.887  0.9110  0.3942  0.7158
 1756TIP3   OH226682   4.789   3.224  10.558  0.4039  0.1004 -0.8527
 1756TIP3    H126683   4.721   3.269  10.609  0.1611 -1.1517 -0.0592
 1756TIP3    H226684   4.750   3.214  10.471  0.1168  0.6347 -0.7920
 1757TIP3   OH226685   2.115   3.142  12.841  0.3077 -0.2017 -0.8793
 1757TIP3    H126686   2.093   3.065  12.894  1.3349  0.0224 -0.1115
 1757TIP3    H226687   2.159   3.202  12.902  0.2260  0.6607 -1.6542
 1758TIP3   OH226688   4.390   4.048  10.955 -0.3696  0.7082  0.6610
 1758TIP3    H126689   4.463   4.006  11.000  0.9897  0.9014 -1.3171
 1758TIP3    H226690   4.424   4.133  10.928 -1.1002  0.5326 -0.8789
 1759TIP3   OH226691   5.634   3.402  10.763 -0.4338 -0.4826  0.4691
 1759TIP3    H126692   5.625   3.497  10.770  2.3077 -0.2115  1.1139
 1759TIP3    H226693   5.688   3.388  10.685 -2.2592 -1.6189 -0.6117
 1760TIP3   OH226694   6.263   4.220  14.895 -0.6481 -0.1548  0.0920
 1760TIP3    H126695   6.356   4.212  14.874 -0.6346  2.1163 -0.8851
 1760TIP3    H226696   6.255   4.306  14.937 -2.1635 -0.7505  1.0816
 1761TIP3   OH226697   5.386   3.329  11.370  0.0701 -0.1005 -0.0071
 1761TIP3    H126698   5.422   3.241  11.359 -1.1369 -0.5196 -0.7312
 1761TIP3    H226699   5.381   3.363  11.281 -0.0589  0.4637  0.2156
 1762TIP3   OH226700   0.865   0.978  11.390 -0.5688  0.0086  0.3356
 1762TIP3    H126701   0.806   0.940  11.325  1.1332 -3.4977  0.7001
 1762TIP3    H226702   0.950   0.981  11.346 -0.0081  0.3537  1.4259
 1763TIP3   OH226703   6.273   4.835  11.828 -0.5004  0.3746  0.1423
 1763TIP3    H126704   6.255   4.919  11.785 -2.9459 -1.0375 -1.7165
 1763TIP3    H226705   6.224   4.839  11.910 -1.7355  0.2852 -0.5662
 1764TIP3   OH226706   5.939   3.109  11.252 -0.1545  0.2428 -0.0635
 1764TIP3    H126707   6.014   3.141  11.201  0.1148  0.0634  0.2175
 1764TIP3    H226708   5.875   3.179  11.247  0.7467  1.1767  1.2221
 1765TIP3   OH226709   6.191   3.063   9.642 -0.3341 -0.4058 -0.1687
 1765TIP3    H126710   6.215   2.973   9.665  1.5709  0.1456  0.1098
 1765TIP3    H226711   6.205   3.067   9.547 -1.6038 -0.7432 -0.3733
 1766TIP3   OH226712   0.512   2.027  12.332  0.6769  0.0780  0.9304
 1766TIP3    H126713   0.437   2.081  12.305  1.0702 -0.0585 -0.4674
 1766TIP3    H226714   0.483   1.985  12.413 -1.0465 -0.5269  0.0233
 1767TIP3   OH226715   6.785   1.949  13.693 -0.2332 -0.1289 -0.1766
 1767TIP3    H126716   6.722   2.005  13.739 -0.2264  1.1051 -1.6534
 1767TIP3    H226717   6.809   1.883  13.758 -1.7805  0.3713  0.9415
 1768TIP3   OH226718   7.194   4.945  11.816  0.7256 -0.0634  0.1560
 1768TIP3    H126719   7.286   4.931  11.839  1.3818  0.5434 -1.9802
 1768TIP3    H226720   7.173   4.872  11.758 -0.7834 -1.3558  2.2662
 1769TIP3   OH226721   5.297   4.025  12.036  0.0879 -0.3363 -0.1918
 1769TIP3    H126722   5.357   4.000  11.965  0.9786 -2.2309  1.1719
 1769TIP3    H226723   5.239   3.950  12.046  0.3987 -0.3831  1.5044
 1770TIP3   OH226724   6.275   3.737  10.600 -0.3648  0.2734 -0.0349
 1770TIP3    H126725   6.239   3.659  10.643 -0.0910  1.2558  2.0551
 1770TIP3    H226726   6.239   3.810  10.650  1.0154  1.4207 -0.6907
 1771TIP3   OH226727   1.418   5.192  13.557  0.3650  0.3162  0.4720
 1771TIP3    H126728   1.481   5.164  13.623  0.9467 -0.2046 -0.2923
 1771TIP3    H226729   1.467   5.190  13.474 -0.9133 -1.0619 -0.2713
 1772TIP3   OH226730   0.918   4.291  10.648 -0.4573  0.1281  0.2967
 1772TIP3    H126731   0.959   4.218  10.602 -0.2608  0.9373 -0.8434
 1772TIP3    H226732   0.992   4.341  10.684 -0.3235  1.9225 -2.2673
 1773TIP3   OH226733   6.189   4.074  11.066  0.2680  0.0535  0.7088
 1773TIP3    H126734   6.202   4.091  11.160  0.1634  0.0443  0.7260
 1773TIP3    H226735   6.115   4.130  11.042  0.4724  0.2640  0.5690
 1774TIP3   OH226736   5.773   4.057  12.060 -0.7987 -0.5606  0.0367
 1774TIP3    H126737   5.731   3.972  12.048 -2.6775  0.5273 -1.3956
 1774TIP3    H226738   5.702   4.116  12.082  0.1428  1.0756 -1.2128
 1775TIP3   OH226739   0.208   2.530  12.442 -0.3903 -0.2271  0.2184
 1775TIP3    H126740   0.158   2.501  12.518 -1.0298  0.4844  0.0707
 1775TIP3    H226741   0.170   2.483  12.368 -1.0732  0.5605  0.0580
 1776TIP3   OH226742   6.992   3.061  11.377  0.3677 -0.0180 -0.7453
 1776TIP3    H126743   6.898   3.040  11.379  0.3863  0.0185  0.8841
 1776TIP3    H226744   7.018   3.061  11.469  2.2245 -1.1034 -1.2627
 1777TIP3   OH226745   0.766   1.451  13.100  0.1504 -0.2432  0.6426
 1777TIP3    H126746   0.682   1.408  13.081 -0.2124  0.8264 -0.2475
 1777TIP3    H226747   0.827   1.416  13.035 -0.4501  1.4709 -0.8956
 1778TIP3   OH226748   6.698   2.116  10.988  0.3147 -0.5216 -0.8900
 1778TIP3    H126749   6.713   2.155  10.902 -1.5100  0.9270 -0.5880
 1778TIP3    H226750   6.767   2.153  11.044 -0.5370  1.1806 -0.9459
 1779TIP3   OH226751   6.717   1.824  10.232 -0.3877 -0.1740 -0.1762
 1779TIP3    H126752   6.797   1.830  10.179 -0.1920 -0.9006  0.0373
 1779TIP3    H226753   6.663   1.760  10.186 -0.6569 -0.0257 -0.0667
 1780TIP3   OH226754   6.506   4.778  11.223 -0.3588  0.6530  0.4053
 1780TIP3    H126755   6.453   4.780  11.302 -0.0804  0.4169  0.5982
 1780TIP3    H226756   6.520   4.685  11.206  0.1660  0.7192  0.4692
 1781TIP3   OH226757   6.112   4.955  11.464 -0.6889 -0.4479  0.6489
 1781TIP3    H126758   6.136   5.047  11.454  0.9532 -0.9624 -0.3230
 1781TIP3    H226759   6.026   4.957  11.507 -0.1924  1.5109  1.6150
 1782TIP3   OH226760   6.150   4.553  11.301  0.2257  0.1566 -0.3614
 1782TIP3    H126761   6.090   4.598  11.361 -0.2307  0.7313 -1.2394
 1782TIP3    H226762   6.174   4.473  11.348 -1.7071 -0.3776 -0.2276
 1783TIP3   OH226763   0.069   3.047  11.067  0.2889  0.0981  0.3533
 1783TIP3    H126764   0.024   2.965  11.089  0.1724 -0.3775 -1.5428
 1783TIP3    H226765   0.158   3.020  11.042 -0.2653  0.3202 -1.9919
 1784TIP3   OH226766   6.771   2.082  10.291 -0.5814 -0.1619  0.2004
 1784TIP3    H126767   6.753   2.076  10.385  0.7203 -2.5548  0.3190
 1784TIP3    H226768   6.753   1.995  10.257 -2.5486  1.0793 -2.0799
 1785TIP3   OH226769   7.229   3.910  10.583 -0.4289  0.3832  0.6806
 1785TIP3    H126770   7.149   3.963  10.580 -1.4084 -1.1011  0.3523
 1785TIP3    H226771   7.275   3.931  10.501 -0.3940  1.3483  0.9389
 1786TIP3   OH226772   6.841   0.505  11.884 -0.2539  0.1058  0.1752
 1786TIP3    H126773   6.775   0.435  11.888 -0.4237  0.1855 -1.1100
 1786TIP3    H226774   6.795   0.583  11.914 -0.1960 -0.2248  1.1585
 1787TIP3   OH226775   0.795   2.145  11.605  0.2316  0.1352  0.1502
 1787TIP3    H126776   0.740   2.154  11.527 -0.2058  0.1496  0.4566
 1787TIP3    H226777   0.885   2.151  11.573  0.0567 -0.1602 -0.3905
 1788TIP3   OH226778   1.095   4.058  12.744  0.9343  0.1475 -0.5682
 1788TIP3    H126779   1.055   3.971  12.741  3.5196 -1.0263 -2.9213
 1788TIP3    H226780   1.038   4.108  12.803 -2.6992 -2.0463 -2.0392
 1789TIP3   OH226781   5.645   4.792  10.821  0.0180 -0.0113  0.3527
 1789TIP3    H126782   5.699   4.823  10.894  0.4613  1.3498 -0.5411
 1789TIP3    H226783   5.708   4.762  10.756 -0.3296  0.3105 -0.1356
 1790TIP3   OH226784   6.640   5.516  10.214  0.2649  0.2510  0.3324
 1790TIP3    H126785   6.698   5.456  10.168  0.9306  1.4184 -0.3925
 1790TIP3    H226786   6.577   5.460  10.259  0.0713 -0.9264 -1.3792
 1791TIP3   OH226787   6.694   3.889  12.102  0.0956  0.4758  0.0138
 1791TIP3    H126788   6.712   3.905  12.195 -1.1569  1.4246  0.1033
 1791TIP3    H226789   6.746   3.954  12.056  0.5074  0.1789  0.0515
 1792TIP3   OH226790   6.632   7.299  11.837  0.3985 -0.8493  0.0103
 1792TIP3    H126791   6.720   7.271  11.863  0.3584 -0.3479  0.7156
 1792TIP3    H226792   6.585   7.308  11.920  0.0175 -0.0095 -0.2997
 1793TIP3   OH226793   6.329   3.078  11.466  0.0902 -0.0740  0.1763
 1793TIP3    H126794   6.372   2.995  11.484  1.1339  0.0996 -1.3705
 1793TIP3    H226795   6.270   3.092  11.540  0.5057 -1.7840  0.8397
 1794TIP3   OH226796   3.170   2.368  10.967 -0.1773 -0.5387 -0.7736
 1794TIP3    H126797   3.150   2.461  10.960 -2.4192 -0.8359  1.2417
 1794TIP3    H226798   3.256   2.365  11.009 -0.4195  0.5865 -0.1918
 1795TIP3   OH226799   3.448   3.702  10.608 -0.4812 -0.5402  0.2224
 1795TIP3    H126800   3.475   3.660  10.690 -0.2456 -2.4501 -0.7984
 1795TIP3    H226801   3.437   3.629  10.547  0.4317  0.9389 -1.7533
 1796TIP3   OH226802   2.456   2.768  13.399  0.2994 -0.7127 -0.2333
 1796TIP3    H126803   2.462   2.804  13.311 -0.7569 -0.3183 -0.1501
 1796TIP3    H226804   2.364   2.746  13.410  0.1849  0.4237  1.2449
 1797TIP3   OH226805   0.378   2.761  10.730 -0.3132 -0.2841  0.1248
 1797TIP3    H126806   0.339   2.735  10.647 -0.5969 -1.4938  0.6224
 1797TIP3    H226807   0.453   2.702  10.741  0.1022  0.2987  0.4125
 1798TIP3   OH226808   5.981   3.983  11.553  0.6519 -0.0020 -0.0830
 1798TIP3    H126809   6.069   3.946  11.545  0.4021 -0.4943 -0.6064
 1798TIP3    H226810   5.995   4.077  11.568  1.2417  0.3200 -2.4321
 1799TIP3   OH226811   5.401   3.962  10.250 -0.1025 -0.7300  0.1151
 1799TIP3    H126812   5.414   3.871  10.224 -1.4263 -1.2645  1.2964
 1799TIP3    H226813   5.322   3.989  10.204  0.6283  0.0368 -0.7199
 1800TIP3   OH226814   1.904   0.999  12.613  0.3877  0.4304  0.5254
 1800TIP3    H126815   1.853   1.007  12.693 -1.5346 -0.7820 -0.5614
 1800TIP3    H226816   1.847   1.032  12.544  1.6428  0.5011 -0.5059
 1801TIP3   OH226817   6.061   5.050  12.153  0.2088 -0.2703  0.1102
 1801TIP3    H126818   6.015   5.001  12.222 -0.8417  0.7935  0.1696
 1801TIP3    H226819   6.110   4.983  12.106 -0.8949 -1.3427  0.4511
 1802TIP3   OH226820   6.393   4.137  10.194  0.3759  0.4336 -0.0310
 1802TIP3    H126821   6.298   4.136  10.201  0.4238  0.4667  0.7123
 1802TIP3    H226822   6.411   4.166  10.105 -0.2954  2.4564  0.4640
 1803TIP3   OH226823   5.612   7.142  13.233 -0.1093  0.0952  0.5209
 1803TIP3    H126824   5.551   7.071  13.211 -0.8096  0.5422  0.9736
 1803TIP3    H226825   5.602   7.153  13.328  0.2193  0.5893  0.4997
 1804TIP3   OH226826   5.424   3.048  11.284 -0.1915 -0.3694 -0.1161
 1804TIP3    H126827   5.394   2.959  11.299  1.3444 -0.5007  2.6250
 1804TIP3    H226828   5.477   3.043  11.205 -0.2196 -1.8632 -0.0462
 1805TIP3   OH226829   6.287   4.559  14.006 -0.2593  0.0905  0.3106
 1805TIP3    H126830   6.253   4.515  13.928  1.0575  1.5212 -1.1063
 1805TIP3    H226831   6.337   4.492  14.053  1.4816 -0.0360 -1.6630
 1806TIP3   OH226832   6.985   2.970  11.648  0.3271 -0.6271  0.2685
 1806TIP3    H126833   6.997   2.970  11.742  2.0979 -1.3859  0.0504
 1806TIP3    H226834   6.968   2.879  11.625 -1.2479 -0.2814 -0.0205
 1807TIP3   OH226835   6.069   4.136  10.817  0.1212  0.5902  0.7899
 1807TIP3    H126836   6.055   4.142  10.722 -0.4563 -1.4109  0.7327
 1807TIP3    H226837   6.093   4.225  10.843 -0.2721  1.2883 -1.1441
 1808TIP3   OH226838   0.850   1.949  11.030 -0.1162  0.0913 -0.5733
 1808TIP3    H126839   0.828   1.861  11.000 -2.8187  0.7325 -0.5973
 1808TIP3    H226840   0.813   1.955  11.119 -0.0333  1.1986 -0.5977
 1809TIP3   OH226841   0.266   2.064  12.049 -0.0492  0.0313 -0.4743
 1809TIP3    H126842   0.238   2.147  12.010  1.8940  1.4734  1.1184
 1809TIP3    H226843   0.358   2.055  12.023  1.1030  0.6710  3.0705
 1810TIP3   OH226844   6.941   3.343  10.263 -0.2220 -0.2017  0.1970
 1810TIP3    H126845   6.958   3.286  10.338 -0.4523 -0.1011  0.3264
 1810TIP3    H226846   6.908   3.285  10.195 -0.4890 -0.2196  0.3399
 1811TIP3   OH226847   5.825   4.717  13.002  0.0043  0.4604  0.4453
 1811TIP3    H126848   5.850   4.680  13.086  1.0346  1.3959  0.5633
 1811TIP3    H226849   5.902   4.765  12.973 -0.5180  0.5667 -0.7974
 1812TIP3   OH226850   6.104   3.647  11.572 -0.4601  0.1919  0.3639
 1812TIP3    H126851   6.158   3.567  11.573 -1.1544 -0.2794  0.7118
 1812TIP3    H226852   6.166   3.717  11.592  0.4938 -0.0309 -1.5908
 1813TIP3   OH226853   3.896   3.867  10.238 -0.0321 -0.2425 -0.2589
 1813TIP3    H126854   3.982   3.831  10.218 -0.3552 -0.7713 -0.7323
 1813TIP3    H226855   3.855   3.801  10.295 -0.2546 -0.1557 -0.3157
 1814TIP3   OH226856   6.179   1.791  11.997 -0.1216  0.2195 -0.6398
 1814TIP3    H126857   6.260   1.762  11.955  0.5883  0.2033  0.7212
 1814TIP3    H226858   6.111   1.737  11.957  0.8501 -1.4785 -0.0546
 1815TIP3   OH226859   6.411   2.121  10.437  0.0086  0.7932  0.1728
 1815TIP3    H126860   6.435   2.136  10.346 -2.1661  0.1973 -0.5320
 1815TIP3    H226861   6.316   2.131  10.439 -0.0610  0.0244  2.2207
 1816TIP3   OH226862   6.964   3.407  11.524 -0.2773  0.6759 -0.3821
 1816TIP3    H126863   6.919   3.465  11.586  0.1287 -1.6647  2.1950
 1816TIP3    H226864   6.901   3.395  11.452 -2.3532  0.3816  1.4219
 1817TIP3   OH226865   7.046   4.646  10.972 -0.2772 -0.0733 -0.0454
 1817TIP3    H126866   6.953   4.671  10.977  0.1878  1.4839  1.3267
 1817TIP3    H226867   7.076   4.680  10.888 -0.6195  0.5931  0.0989
 1818TIP3   OH226868   1.110   6.171  10.547 -0.3406 -0.1597 -0.2049
 1818TIP3    H126869   1.205   6.156  10.540 -0.1110  1.3405 -0.4758
 1818TIP3    H226870   1.074   6.084  10.563  1.1521 -0.6746  0.5640
 1819TIP3   OH226871   2.702   4.809  11.243  0.4268  1.2089 -0.1435
 1819TIP3    H126872   2.747   4.726  11.231  0.3201  1.3953 -1.9068
 1819TIP3    H226873   2.765   4.863  11.291  0.0821 -0.2148  1.9694
 1820TIP3   OH226874   0.494   2.831  11.141  0.2897 -0.2925 -0.3344
 1820TIP3    H126875   0.464   2.913  11.180  1.9406  0.5127 -0.7174
 1820TIP3    H226876   0.523   2.778  11.215 -1.2074 -0.7349 -0.0443
 1821TIP3   OH226877   2.075   3.683  11.118 -0.7705  0.1049 -0.1924
 1821TIP3    H126878   2.047   3.599  11.153  0.3642 -0.7285 -1.2631
 1821TIP3    H226879   2.090   3.667  11.025  1.3136  1.0136 -0.0354
 1822TIP3   OH226880   6.693   4.789  10.362 -0.6891 -0.4039  0.1613
 1822TIP3    H126881   6.749   4.786  10.284 -0.6910  1.4886  0.0595
 1822TIP3    H226882   6.613   4.742  10.335 -0.8342  0.5316 -1.1110
 1823TIP3   OH226883   5.888   4.653  10.366 -0.4049  0.2232 -0.1114
 1823TIP3    H126884   5.981   4.673  10.359 -0.2845 -0.3767 -0.2027
 1823TIP3    H226885   5.867   4.608  10.284 -1.1832  1.9996 -0.9054
 1824TIP3   OH226886   1.150   4.563  10.428 -0.2511  0.2920  0.4242
 1824TIP3    H126887   1.210   4.581  10.355 -2.3669  1.2703 -1.1189
 1824TIP3    H226888   1.184   4.616  10.500  0.5260  1.1104 -0.5225
 1825TIP3   OH226889   0.063   4.409  10.608  0.0472 -0.0699 -1.0896
 1825TIP3    H126890   0.048   4.481  10.669 -1.3774 -0.2545 -1.1939
 1825TIP3    H226891   0.080   4.453  10.524  2.8302  0.1966 -0.4219
 1826TIP3   OH226892   1.000   5.288  10.106  0.5745 -0.2599 -0.1729
 1826TIP3    H126893   0.954   5.300  10.022  0.9610  1.5156 -0.1381
 1826TIP3    H226894   1.082   5.336  10.096  0.4087  0.3604  1.4125
 1827TIP3   OH226895   0.032   4.638  10.766  0.3108 -0.1902  0.1483
 1827TIP3    H126896  -0.057   4.675  10.766 -0.3313 -1.7053  0.2085
 1827TIP3    H226897   0.089   4.714  10.775 -0.9700  0.8372 -0.1826
 1828TIP3   OH226898   0.759   3.979  11.320 -0.5009  0.0046 -0.1091
 1828TIP3    H126899   0.815   3.969  11.243  0.3621 -1.8755  0.7223
 1828TIP3    H226900   0.784   3.906  11.377 -4.1564 -1.1661  0.0897
 1829TIP3   OH226901   1.975   4.339  10.710 -0.1242  0.5391  0.2684
 1829TIP3    H126902   2.016   4.425  10.703 -2.0234  1.6432  2.1615
 1829TIP3    H226903   1.883   4.356  10.691 -0.1382 -1.4787 -1.5542
 1830TIP3   OH226904   1.708   4.289  11.015  0.2508 -0.4425  0.5059
 1830TIP3    H126905   1.638   4.254  10.959 -0.3040  0.6214  0.5226
 1830TIP3    H226906   1.785   4.238  10.991  0.7243  1.8948 -3.3904
 1831TIP3   OH226907   0.750   4.915  10.148  0.4165  1.0148 -0.6821
 1831TIP3    H126908   0.703   4.999  10.142  0.6404  1.0315 -2.4729
 1831TIP3    H226909   0.715   4.863  10.077  1.4335  0.1538 -0.5653
 1832TIP3   OH226910   0.474   2.002  11.365  0.2783 -0.2869  0.3930
 1832TIP3    H126911   0.478   1.917  11.407 -0.7850 -0.5094  0.0525
 1832TIP3    H226912   0.548   2.002  11.303  1.3907 -0.2400  1.6941
 1833TIP3   OH226913   0.836   3.488  10.899  0.1004  0.3713  0.2779
 1833TIP3    H126914   0.834   3.560  10.836  4.3107 -0.5377 -1.0907
 1833TIP3    H226915   0.786   3.418  10.857  2.1198  0.0827 -1.7681
 1834TIP3   OH226916   1.385   4.302  11.313 -0.1582  0.3279  0.3702
 1834TIP3    H126917   1.476   4.299  11.344 -0.6763 -1.8526  1.8423
 1834TIP3    H226918   1.389   4.269  11.224  0.7522  2.2110 -0.3024
 1835TIP3   OH226919   1.627   5.071  11.567 -0.1438 -0.2261  0.1350
 1835TIP3    H126920   1.667   4.988  11.542 -0.2092 -0.2300  0.0439
 1835TIP3    H226921   1.701   5.132  11.574 -0.0582 -0.3731  0.5379
 1836TIP3   OH226922   5.557   3.831  10.031  0.0954  0.3506  0.8720
 1836TIP3    H126923   5.604   3.848   9.950 -2.2972  0.0673 -0.6197
 1836TIP3    H226924   5.592   3.747  10.063  1.7352  0.9522  0.6809
 1837TIP3   OH226925   2.812   3.079  11.334  0.4282 -0.1840  0.8918
 1837TIP3    H126926   2.902   3.088  11.301  0.6391  0.1103  1.5407
 1837TIP3    H226927   2.772   3.164  11.316  0.5227 -0.0468  1.3337
 1838TIP3   OH226928   0.729   2.759  10.987  0.1878 -0.2169  0.1201
 1838TIP3    H126929   0.646   2.806  10.990  1.6074  2.3500  0.9166
 1838TIP3    H226930   0.757   2.752  11.078  0.9382 -0.9139 -0.1516
 1839TIP3   OH226931   0.139   4.898  10.884 -0.3081 -0.1700  0.0570
 1839TIP3    H126932   0.139   4.828  10.950  0.2387 -0.8177 -0.6274
 1839TIP3    H226933   0.052   4.938  10.892 -1.0375 -1.6538 -0.3170
 1840TIP3   OH226934   6.396   4.295  12.704 -0.8640 -0.4007  0.1863
 1840TIP3    H126935   6.381   4.334  12.790 -1.2819 -1.5600  0.6455
 1840TIP3    H226936   6.315   4.247  12.685 -0.9532  0.2029 -1.0515
 1841TIP3   OH226937   1.748   3.050  12.515  0.2706 -0.1269  0.5883
 1841TIP3    H126938   1.811   3.097  12.569  0.5855  0.6454 -0.4388
 1841TIP3    H226939   1.801   3.003  12.450 -0.1697  0.1049  0.0516
 1842TIP3   OH226940   2.849   5.019  10.248  0.3727 -0.2829 -0.2717
 1842TIP3    H126941   2.791   4.982  10.181  1.4457 -0.6516 -0.9905
 1842TIP3    H226942   2.916   5.067  10.199  0.3915  0.5833  0.5812
 1843TIP3   OH226943   5.653   2.580  12.020  0.4372  0.3263  0.1469
 1843TIP3    H126944   5.655   2.645  11.950 -0.2822  0.4345  0.2218
 1843TIP3    H226945   5.592   2.513  11.990  0.0767  0.4030  0.6904
 1844TIP3   OH226946   0.101   6.032  11.172 -0.0327 -0.2594 -0.4000
 1844TIP3    H126947   0.162   6.066  11.106  1.1618 -1.0013  0.3103
 1844TIP3    H226948   0.154   5.973  11.225 -0.9937  0.2941  1.2010
 1845TIP3   OH226949   2.918   2.760  10.219 -0.5195  0.3720 -0.4974
 1845TIP3    H126950   2.935   2.821  10.146 -0.0790 -2.3660 -2.7728
 1845TIP3    H226951   2.845   2.706  10.189  0.5688 -1.7085  0.4987
 1846TIP3   OH226952   2.672   6.080  11.314 -0.0447  0.3536 -0.3846
 1846TIP3    H126953   2.723   6.047  11.241  0.0298 -0.4272  0.0137
 1846TIP3    H226954   2.594   6.024  11.317 -0.8198  1.3812 -0.8414
 1847TIP3   OH226955   1.409   4.090  11.680 -0.1055  0.3165  0.0406
 1847TIP3    H126956   1.354   4.040  11.620 -0.5358 -0.0944  0.7660
 1847TIP3    H226957   1.350   4.153  11.721  0.5001  1.6531 -1.1032
 1848TIP3   OH226958   0.650   3.329  10.770 -0.7221  0.0684 -0.1433
 1848TIP3    H126959   0.697   3.257  10.813  0.0836  0.7963  0.1950
 1848TIP3    H226960   0.628   3.294  10.683  0.0781 -0.4252 -0.1520
 1849TIP3   OH226961   2.401   2.103  13.477  0.2154 -0.3556 -0.1231
 1849TIP3    H126962   2.357   2.188  13.480  1.4140  0.2149  1.5291
 1849TIP3    H226963   2.431   2.087  13.566  2.6792 -1.0944 -1.0262
 1850TIP3   OH226964   3.087   5.694  10.447  1.0554  0.1155 -0.0963
 1850TIP3    H126965   3.025   5.645  10.500  1.0286 -0.9161 -1.0561
 1850TIP3    H226966   3.116   5.631  10.380  3.1132  0.5780  0.3312
 1851TIP3   OH226967   2.392   5.050  12.602  0.2632 -0.3214  0.1052
 1851TIP3    H126968   2.465   5.100  12.566 -0.4519  0.4719 -0.2479
 1851TIP3    H226969   2.342   5.020  12.526  0.3453 -1.0576  0.3370
 1852TIP3   OH226970   6.316   2.791  12.269  0.0333  0.3891  0.4102
 1852TIP3    H126971   6.238   2.738  12.256 -1.8641  3.0213  0.4948
 1852TIP3    H226972   6.324   2.800  12.364  0.1508  0.4905  0.3916
 1853TIP3   OH226973   1.827   4.335  12.188 -0.3289 -0.2097 -0.1553
 1853TIP3    H126974   1.812   4.241  12.192  0.4896 -0.3820 -0.8458
 1853TIP3    H226975   1.748   4.374  12.224  0.0496 -1.1992  1.7839
 1854TIP3   OH226976   1.188   4.409  10.861 -0.4024  0.6664  0.3133
 1854TIP3    H126977   1.113   4.357  10.890 -1.1507  0.4594 -1.9286
 1854TIP3    H226978   1.150   4.487  10.821  0.6219  1.0861  0.1503
 1855TIP3   OH226979   0.915   5.431   9.875  0.1129  0.4310  0.3932
 1855TIP3    H126980   0.896   5.411   9.783  0.4202 -1.3722  0.7094
 1855TIP3    H226981   0.848   5.494   9.900 -1.4864 -0.9564 -0.3595
 1856TIP3   OH226982   0.020   4.638  10.163  0.1150 -0.4698  0.6678
 1856TIP3    H126983  -0.042   4.581  10.119  0.5220 -0.1238 -0.3533
 1856TIP3    H226984   0.106   4.610  10.132  0.3290  0.5298  0.3468
 1857TIP3   OH226985   0.803   4.254  10.009  0.7282 -0.3936 -0.2759
 1857TIP3    H126986   0.860   4.245  10.085  0.5491  0.2147 -0.0690
 1857TIP3    H226987   0.826   4.339   9.971 -0.2875  0.0277  0.0223
 1858TIP3   OH226988   6.971   4.033  10.428  0.2603 -0.5763 -0.1651
 1858TIP3    H126989   6.994   4.070  10.343 -1.5010  0.9293  0.0044
 1858TIP3    H226990   6.926   3.951  10.407 -0.4193 -0.0715 -0.6891
 1859TIP3   OH226991   7.073   3.927  10.913  0.0531  0.3747  0.1130
 1859TIP3    H126992   6.991   3.938  10.865  0.7355  0.6575 -1.0045
 1859TIP3    H226993   7.078   4.004  10.971 -1.3317 -0.5517  1.4971
 1860TIP3   OH226994   6.530   2.592  11.498 -0.2587 -0.4306  0.2538
 1860TIP3    H126995   6.460   2.533  11.471  1.0376 -1.1686 -1.5388
 1860TIP3    H226996   6.609   2.557  11.458  0.9717  1.0550  1.2925
 1861TIP3   OH226997   7.272   3.293  11.101 -0.1123 -0.2401 -0.1439
 1861TIP3    H126998   7.313   3.212  11.068 -0.2329 -0.4866  0.3208
 1861TIP3    H226999   7.346   3.345  11.133  0.0190  0.0410 -0.8755
 1862TIP3   OH227000   1.507   5.245   9.533  0.1961 -0.1521  0.7028
 1862TIP3    H127001   1.497   5.294   9.452  0.1901 -2.0994 -0.4865
 1862TIP3    H227002   1.572   5.295   9.583  0.2378  1.0246 -0.4967
 1863TIP3   OH227003   1.181   4.610  12.180  0.0161  0.0191 -0.3666
 1863TIP3    H127004   1.267   4.580  12.150  0.2547 -0.9669  1.2627
 1863TIP3    H227005   1.121   4.582  12.111  1.1817  2.1938 -2.3552
 1864TIP3   OH227006   1.183   3.391  12.009  0.4756 -0.2515  0.1698
 1864TIP3    H127007   1.108   3.435  12.049  0.5713 -0.1332  0.2204
 1864TIP3    H227008   1.145   3.341  11.937  0.5110  0.8114 -0.5928
 1865TIP3   OH227009   2.372   4.382  10.839 -0.1467  0.4407 -0.4829
 1865TIP3    H127010   2.350   4.363  10.930 -1.3476  2.2815 -0.3537
 1865TIP3    H227011   2.434   4.314  10.815 -0.3798 -0.5173  1.4796
 1866TIP3   OH227012   6.105   4.871   9.923  0.2487  0.4201  0.5667
 1866TIP3    H127013   6.078   4.781   9.906 -0.3165  0.4129  1.4502
 1866TIP3    H227014   6.061   4.923   9.857  1.8374 -0.1187 -0.9536
 1867TIP3   OH227015   6.765   6.254  10.418  0.0881 -0.2581  0.3587
 1867TIP3    H127016   6.763   6.219  10.507 -1.1778  0.1833  0.5195
 1867TIP3    H227017   6.802   6.184  10.365  1.7681 -0.1664  1.3806
 1868TIP3   OH227018   7.230   0.384  12.822 -0.2202  0.6660 -0.0433
 1868TIP3    H127019   7.172   0.309  12.827  1.2267 -0.5065 -0.5392
 1868TIP3    H227020   7.208   0.426  12.739 -0.3830  0.2479 -0.2119
 1869TIP3   OH227021   0.707   6.070  10.821 -0.8039 -0.6672 -0.4053
 1869TIP3    H127022   0.620   6.036  10.801 -1.3661  1.2799 -1.3604
 1869TIP3    H227023   0.698   6.165  10.814  1.3527 -0.4285 -0.3046
 1870TIP3   OH227024   6.088   2.388  10.858 -0.6221  0.1712  0.0038
 1870TIP3    H127025   6.126   2.476  10.858 -0.1277  0.0118  2.4403
 1870TIP3    H227026   6.011   2.395  10.802 -0.5002  2.1323  0.0310
 1871TIP3   OH227027   0.027   3.511  11.996  0.2035 -0.3793 -0.2339
 1871TIP3    H127028   0.079   3.435  11.970  0.0811 -0.1231 -1.2470
 1871TIP3    H227029  -0.044   3.515  11.931  0.0119  0.3976  0.0140
 1872TIP3   OH227030   0.554   1.601  12.689  0.2079 -1.1131  0.1265
 1872TIP3    H127031   0.510   1.541  12.749  1.2820 -0.6242  1.4342
 1872TIP3    H227032   0.485   1.630  12.629 -1.3749 -0.0592  2.3789
 1873TIP3   OH227033   0.823   3.617  10.440 -0.4936  0.3967 -0.4833
 1873TIP3    H127034   0.747   3.629  10.383 -1.0252  0.2997  0.1914
 1873TIP3    H227035   0.794   3.650  10.526 -0.6331 -1.9491  0.3988
 1874TIP3   OH227036   0.893   5.510  10.230  0.2688 -0.3513  0.7028
 1874TIP3    H127037   0.935   5.557  10.158 -4.9489 -0.2095 -2.5027
 1874TIP3    H227038   0.925   5.421  10.223  0.6047 -0.0985 -1.1983
 1875TIP3   OH227039   0.520   3.036  10.181 -0.4801 -0.1989 -0.2329
 1875TIP3    H127040   0.520   3.011  10.089  0.9537 -1.3454  0.0561
 1875TIP3    H227041   0.611   3.055  10.201 -1.0408  1.9093  0.4797
 1876TIP3   OH227042   0.305   5.153  10.604 -0.0451 -0.3904 -0.2558
 1876TIP3    H127043   0.325   5.096  10.678 -2.2180 -0.7713  0.0640
 1876TIP3    H227044   0.381   5.211  10.598  0.7902 -1.2690  1.3865
 1877TIP3   OH227045   0.664   3.288  10.285 -0.1609  0.1058 -0.1338
 1877TIP3    H127046   0.757   3.290  10.259  0.5856 -0.5778  2.3097
 1877TIP3    H227047   0.630   3.374  10.258  1.2371  0.4555 -0.8688
 1878TIP3   OH227048   0.145   2.497  14.013 -0.6326 -0.4939 -0.3813
 1878TIP3    H127049   0.130   2.529  14.102  0.3793 -2.1212  0.4039
 1878TIP3    H227050   0.186   2.571  13.968 -1.1472  0.3473  0.4979
 1879TIP3   OH227051   6.197   3.471  10.942  0.0854 -0.1608  0.0425
 1879TIP3    H127052   6.227   3.560  10.958 -0.2256 -0.1260  0.4591
 1879TIP3    H227053   6.125   3.481  10.879 -0.4237 -0.0491  0.6389
 1880TIP3   OH227054   5.224   3.705  11.787  0.2206  0.1279  0.0347
 1880TIP3    H127055   5.300   3.725  11.733  0.7959 -0.5970  0.5580
 1880TIP3    H227056   5.215   3.610  11.780  1.3229 -0.2041  2.5289
 1881TIP3   OH227057   6.157   4.642  10.363  0.3162 -0.0595 -0.1685
 1881TIP3    H127058   6.130   4.555  10.332  0.3359 -0.3963  0.7148
 1881TIP3    H227059   6.244   4.627  10.399 -0.5225 -0.1416  1.9180
 1882TIP3   OH227060   7.267   4.913   9.765  0.3345  0.2421  0.0931
 1882TIP3    H127061   7.353   4.951   9.783  0.5072  0.2205 -0.6471
 1882TIP3    H227062   7.245   4.944   9.676 -1.5215  2.2799  1.2017
 1883TIP3   OH227063   0.364   2.994  11.338  0.5220  0.3344 -0.0951
 1883TIP3    H127064   0.391   2.924  11.397 -0.8111 -2.3540 -2.5970
 1883TIP3    H227065   0.287   3.032  11.380 -1.2212 -2.4379 -0.6635
 1884TIP3   OH227066   7.116   1.286  11.701 -0.0701 -0.6744 -0.1196
 1884TIP3    H127067   7.136   1.335  11.622 -1.0285 -0.6949 -0.3763
 1884TIP3    H227068   7.052   1.220  11.674  0.8455 -1.7683  0.3239
 1885TIP3   OH227069   0.711   3.898  11.685  0.3012 -0.2037  0.3057
 1885TIP3    H127070   0.741   3.848  11.609  1.5558  0.4300  0.3632
 1885TIP3    H227071   0.618   3.910  11.671  0.8473  1.5685 -2.1317
 1886TIP3   OH227072   1.630   2.286  11.760 -0.2588  0.3889  0.4839
 1886TIP3    H127073   1.708   2.338  11.740 -0.7357  0.1126 -2.2263
 1886TIP3    H227074   1.587   2.273  11.676 -3.3746  0.6999  1.9525
 1887TIP3   OH227075   0.724   0.641  10.327 -0.1488  0.2150  0.0361
 1887TIP3    H127076   0.798   0.662  10.271  0.4028 -0.6306  0.4566
 1887TIP3    H227077   0.712   0.547  10.319  0.0162  0.0609  1.4475
 1888TIP3   OH227078   5.127   5.472  11.611 -0.3690  0.5197  0.2189
 1888TIP3    H127079   5.207   5.426  11.638 -0.5978  0.4597  0.7958
 1888TIP3    H227080   5.117   5.543  11.674 -0.2605  1.1107 -0.4119
 1889TIP3   OH227081   2.379   3.332  11.395  0.1476 -0.2805 -0.0516
 1889TIP3    H127082   2.316   3.282  11.343  1.2166 -1.2492 -0.4610
 1889TIP3    H227083   2.397   3.276  11.471 -1.7325  1.3214  1.6090
 1890TIP3   OH227084   0.765   2.538  11.635  0.0443  0.4310  0.5012
 1890TIP3    H127085   0.708   2.461  11.643 -1.3097  1.4020  0.4838
 1890TIP3    H227086   0.720   2.606  11.686  0.8218  1.4347 -0.1318
 1891TIP3   OH227087   0.652   2.726  11.380  0.0295 -0.2194  0.2506
 1891TIP3    H127088   0.642   2.632  11.364  0.3518 -0.1582 -0.3123
 1891TIP3    H227089   0.613   2.739  11.467 -4.2785 -0.0690 -1.5996
 1892TIP3   OH227090   7.082   2.389  12.359  0.4384 -0.2048  0.0768
 1892TIP3    H127091   7.158   2.414  12.307  0.5539 -2.2624 -0.8177
 1892TIP3    H227092   7.010   2.385  12.295 -0.2191  0.7872  0.7420
 1893TIP3   OH227093   1.418   5.783  10.204  0.5817 -0.2147 -0.5348
 1893TIP3    H127094   1.442   5.691  10.190 -0.1149 -0.6902  1.1745
 1893TIP3    H227095   1.349   5.800  10.139 -1.5240 -1.8919  1.1609
 1894TIP3   OH227096   0.233   4.208  11.330  0.2571  0.1910 -0.0265
 1894TIP3    H127097   0.183   4.281  11.366  1.6148  1.1484 -0.0369
 1894TIP3    H227098   0.321   4.220  11.365 -0.1219 -3.0577  2.2561
 1895TIP3   OH227099   0.634   5.164  10.194  0.0019 -0.2570 -0.4795
 1895TIP3    H127100   0.600   5.253  10.193 -0.4047 -0.4147 -1.2613
 1895TIP3    H227101   0.705   5.166  10.259  0.7573  0.9045 -1.3174
 1896TIP3   OH227102   6.787   3.575  10.247  0.3215  0.7835  0.1312
 1896TIP3    H127103   6.835   3.495  10.269 -0.5053  0.2923  0.2086
 1896TIP3    H227104   6.750   3.557  10.160  1.6794  1.8145 -0.6700
 1897TIP3   OH227105   6.053   4.182   9.725 -0.2172 -0.0393 -0.3191
 1897TIP3    H127106   5.964   4.217   9.728  0.2474  1.0792  0.5981
 1897TIP3    H227107   6.110   4.259   9.725  0.7680 -0.7524 -0.4575
 1898TIP3   OH227108   1.147   5.763  12.803  0.3665  0.0017 -0.3507
 1898TIP3    H127109   1.105   5.829  12.748 -1.3887  0.3926  1.3790
 1898TIP3    H227110   1.120   5.785  12.892 -0.1095 -2.9233  0.2997
 1899TIP3   OH227111   1.156   5.224  12.097  0.0982  0.5671  0.3143
 1899TIP3    H127112   1.196   5.300  12.055  1.8669 -0.0216  0.8897
 1899TIP3    H227113   1.192   5.222  12.185 -0.0314 -0.8551  0.3602
 1900TIP3   OH227114   1.910   3.143  10.617 -0.4515 -0.1933  0.3367
 1900TIP3    H127115   1.893   3.227  10.575 -0.8409 -0.9376 -1.0446
 1900TIP3    H227116   1.914   3.081  10.544  0.5572 -1.2542  1.2797
 1901TIP3   OH227117   1.227   5.544  11.178 -0.0421 -0.2049  0.0466
 1901TIP3    H127118   1.198   5.565  11.089  0.8522  1.3951  0.1080
 1901TIP3    H227119   1.301   5.485  11.166  1.6518  1.9569 -0.3731
 1902TIP3   OH227120   1.473   4.949  10.616 -0.4162  0.5825  0.5112
 1902TIP3    H127121   1.390   4.997  10.603  0.3720  2.0056  0.6179
 1902TIP3    H227122   1.508   4.985  10.697 -0.9032 -1.8248  1.8149
 1903TIP3   OH227123   0.172   3.792  13.148  0.2104  0.0440 -0.2967
 1903TIP3    H127124   0.192   3.757  13.062  1.0551  1.1616 -0.5654
 1903TIP3    H227125   0.154   3.885  13.133  0.2329  0.2178  0.7117
 1904TIP3   OH227126   1.118   4.606  10.097  0.0447  0.4243 -0.3090
 1904TIP3    H127127   1.204   4.637  10.070 -0.2755  1.5192 -0.1040
 1904TIP3    H227128   1.126   4.511  10.099  1.0890  0.4969 -0.8143
 1905TIP3   OH227129   0.014   3.858   9.974 -0.3643 -0.5438 -0.2272
 1905TIP3    H127130  -0.026   3.938   9.939  0.6394  0.0596  0.0069
 1905TIP3    H227131  -0.044   3.832  10.046 -0.9908 -0.3394 -0.6549
 1906TIP3   OH227132   1.770   3.927  10.842  0.0100 -0.4179  0.2113
 1906TIP3    H127133   1.857   3.945  10.878  0.0507 -1.1021  0.4705
 1906TIP3    H227134   1.727   4.012  10.837  0.9939  0.0366 -0.6832
 1907TIP3   OH227135   2.005   4.878  10.398 -0.1407  0.3028 -0.4067
 1907TIP3    H127136   1.947   4.864  10.323 -0.1336 -0.0021 -0.3570
 1907TIP3    H227137   2.082   4.824  10.378 -0.3837 -0.2329  0.0937
 1908TIP3   OH227138   1.832   5.500  11.017 -0.5451 -0.4425 -0.1417
 1908TIP3    H127139   1.864   5.421  11.061  0.9976  0.5395  0.5468
 1908TIP3    H227140   1.774   5.542  11.081  0.6948  0.3246  0.4914
 1909TIP3   OH227141   0.176   5.821  10.933 -0.1732 -0.1411  0.0800
 1909TIP3    H127142   0.090   5.783  10.917 -0.4460  0.9433 -1.0783
 1909TIP3    H227143   0.170   5.910  10.900  1.3848 -0.0423  0.0235
 1910TIP3   OH227144   0.721   4.688  12.789 -0.2698  0.4647  0.4352
 1910TIP3    H127145   0.676   4.727  12.864  0.8069 -1.0241  1.9020
 1910TIP3    H227146   0.814   4.704  12.806  0.2335 -2.9602  1.2677
 1911TIP3   OH227147   6.034   4.259  10.529  0.2977  0.1698  0.0026
 1911TIP3    H127148   6.120   4.244  10.490 -0.1438  0.4372 -1.0716
 1911TIP3    H227149   5.981   4.186  10.497 -0.1007  0.4602  0.0083
 1912TIP3   OH227150   1.655   4.117  10.538 -0.4979 -0.0488  0.2444
 1912TIP3    H127151   1.651   4.197  10.486  0.6204  0.0299  0.2612
 1912TIP3    H227152   1.598   4.055  10.492 -0.4694  0.4060 -0.4015
 1913TIP3   OH227153   1.269   4.187  10.476 -0.1105  0.1035  0.1859
 1913TIP3    H127154   1.307   4.192  10.389  0.5991 -0.6017  0.4590
 1913TIP3    H227155   1.296   4.268  10.519  1.6185 -0.6791  0.5939
 1914TIP3   OH227156   0.743   3.022  11.502 -0.2386 -0.1631 -0.0890
 1914TIP3    H127157   0.820   2.980  11.542 -0.7994 -2.7643 -1.6285
 1914TIP3    H227158   0.669   2.977  11.541 -0.8707 -0.2694 -1.3852
 1915TIP3   OH227159   2.491   4.267  12.741  0.4251  0.2550 -0.1365
 1915TIP3    H127160   2.514   4.352  12.778 -2.0518  0.6512  0.6187
 1915TIP3    H227161   2.511   4.204  12.810  0.9348  0.3826 -0.1684
 1916TIP3   OH227162   2.755   2.569  12.259  0.9129 -0.5650 -0.9457
 1916TIP3    H127163   2.834   2.621  12.270  0.4943 -0.2211  0.5341
 1916TIP3    H227164   2.734   2.538  12.347 -0.2399 -1.1817 -1.4223
 1917TIP3   OH227165   0.601   3.845  10.720  0.0085  0.2724 -0.4402
 1917TIP3    H127166   0.511   3.846  10.687  0.0888 -1.4592 -0.7604
 1917TIP3    H227167   0.656   3.849  10.642  0.1955 -0.7119 -0.3741
 1918TIP3   OH227168   1.219   4.630  12.444 -0.3747  0.2988 -0.5637
 1918TIP3    H127169   1.124   4.633  12.456 -0.3865 -0.6517 -0.3515
 1918TIP3    H227170   1.231   4.607  12.352 -0.3864 -1.4334 -0.1608
 1919TIP3   OH227171   6.196   3.716  10.147  0.1250  0.6285  0.1440
 1919TIP3    H127172   6.154   3.640  10.106 -2.4044  2.8493 -1.5942
 1919TIP3    H227173   6.235   3.764  10.074  0.2710  1.8286  1.0042
 1920TIP3   OH227174   6.584   1.754  10.978  0.4007  0.2423 -0.2573
 1920TIP3    H127175   6.543   1.756  10.892  0.8857  0.7296 -0.4842
 1920TIP3    H227176   6.549   1.831  11.023  0.7399  0.4252 -0.3023
 1921TIP3   OH227177   1.467   3.382  11.856  0.1615  0.0649  0.0148
 1921TIP3    H127178   1.381   3.382  11.897  1.4202 -1.1426  2.8371
 1921TIP3    H227179   1.509   3.462  11.887  0.3939  0.1792 -0.5825
 1922TIP3   OH227180   6.906   5.821  11.291 -0.4431  0.1346 -0.6240
 1922TIP3    H127181   6.960   5.847  11.216  0.5975 -2.2229 -0.7149
 1922TIP3    H227182   6.957   5.848  11.367  0.1603 -0.7117 -0.7286
 1923TIP3   OH227183   5.956   2.251  11.893 -0.0690  0.1407 -0.1591
 1923TIP3    H127184   5.928   2.318  11.956 -2.0023 -0.5943 -0.1904
 1923TIP3    H227185   5.945   2.168  11.940 -2.0998 -0.4635 -1.5983
 1924TIP3   OH227186   0.385   5.092  11.298 -0.3553  0.0243 -0.4032
 1924TIP3    H127187   0.304   5.122  11.338 -1.0818 -0.4068 -1.5154
 1924TIP3    H227188   0.384   4.997  11.307 -0.4453 -0.0647 -1.2667
 1925TIP3   OH227189   1.243   5.140  10.317 -0.5369 -0.0484  0.1523
 1925TIP3    H127190   1.318   5.199  10.307 -0.7872  0.6381  2.1333
 1925TIP3    H227191   1.223   5.112  10.228  1.5278  0.4439 -0.4923
 1926TIP3   OH227192   0.226   4.797  10.550 -0.4775 -0.3942  0.1958
 1926TIP3    H127193   0.273   4.851  10.486 -1.5247  0.0593 -0.2145
 1926TIP3    H227194   0.295   4.757  10.603  0.3559  0.4134 -0.2568
 1927TIP3   OH227195   0.284   6.630  12.757 -0.1955 -0.1104 -0.4873
 1927TIP3    H127196   0.204   6.679  12.778  0.6736  1.1472 -0.0600
 1927TIP3    H227197   0.267   6.541  12.787 -1.0492  0.3927  0.5369
 1928TIP3   OH227198   4.690   0.769  11.519 -0.0125 -0.3196  0.0364
 1928TIP3    H127199   4.759   0.796  11.580  1.0079 -1.2438 -0.6646
 1928TIP3    H227200   4.609   0.777  11.568  0.5915  0.8854  0.8548
 1929TIP3   OH227201   0.721   5.621   9.904  0.0482 -0.5424  0.0906
 1929TIP3    H127202   0.695   5.698   9.854 -0.1181 -1.4420 -1.2584
 1929TIP3    H227203   0.645   5.563   9.900  0.4228 -1.0673  0.4724
 1930TIP3   OH227204   1.831   5.673  10.161 -0.0714 -0.2092 -0.0275
 1930TIP3    H127205   1.793   5.663  10.074 -1.1390  0.2364  0.3789
 1930TIP3    H227206   1.918   5.708  10.145  0.5019 -2.0122 -1.0135
 1931TIP3   OH227207   7.083   4.471  10.535  0.4666 -0.1887 -0.2948
 1931TIP3    H127208   7.176   4.452  10.523  0.5691  0.5348 -0.6934
 1931TIP3    H227209   7.055   4.508  10.452  0.0093  0.3309  0.0826
 1932TIP3   OH227210   6.230   2.676  11.834  0.0172 -0.9072  0.6373
 1932TIP3    H127211   6.162   2.625  11.790  0.7709  0.8911 -2.8308
 1932TIP3    H227212   6.310   2.623  11.825  0.4472  0.0523 -1.4422
 1933TIP3   OH227213   0.494   1.647  11.009  0.2363  0.1360  0.4741
 1933TIP3    H127214   0.509   1.553  11.017  0.5222  0.1732  0.3786
 1933TIP3    H227215   0.572   1.680  10.965 -0.7992  0.0920 -1.4817
 1934TIP3   OH227216   0.623   4.885  10.647 -0.4029 -0.4930  0.0924
 1934TIP3    H127217   0.633   4.841  10.563 -1.0112 -0.6588  0.1040
 1934TIP3    H227218   0.651   4.975  10.631  0.6256 -0.8176  0.0076
 1935TIP3   OH227219   1.741   3.495  11.898 -0.1417 -0.3013 -1.0915
 1935TIP3    H127220   1.783   3.422  11.852  1.2538 -0.1149 -0.1372
 1935TIP3    H227221   1.742   3.470  11.990  3.4541  2.3526 -0.2954
 1936TIP3   OH227222   1.509   3.780  10.966 -0.0469  0.9501  0.2051
 1936TIP3    H127223   1.592   3.827  10.958  0.7402 -0.1877  1.4310
 1936TIP3    H227224   1.469   3.786  10.879  1.9935  0.2800 -0.8057
 1937TIP3   OH227225   1.346   4.407  10.646  0.0958 -0.5584  0.5317
 1937TIP3    H127226   1.278   4.397  10.713 -0.0362 -2.8090  0.0896
 1937TIP3    H227227   1.393   4.486  10.672 -2.0065  0.4388  1.4476
 1938TIP3   OH227228   6.936   5.082  11.924 -0.2867  0.4554 -0.0442
 1938TIP3    H127229   6.964   5.173  11.934  0.5173  0.2399 -0.3046
 1938TIP3    H227230   7.013   5.037  11.889 -0.2935 -0.5696  1.2166
 1939TIP3   OH227231   1.081   4.948  11.988  0.2349  0.0906  0.3959
 1939TIP3    H127232   1.106   4.910  12.073 -2.1672 -1.4186  0.4728
 1939TIP3    H227233   1.085   5.043  12.003  3.3018 -0.1001  1.1137
 1940TIP3   OH227234   2.804   6.392  10.899 -0.1957 -0.1568  0.2072
 1940TIP3    H127235   2.828   6.377  10.991  0.0233 -1.6894 -0.0839
 1940TIP3    H227236   2.722   6.343  10.888 -1.5030  1.9752  0.2019
 1941TIP3   OH227237   5.411   4.438  11.822  0.3116 -0.0980 -0.1800
 1941TIP3    H127238   5.337   4.421  11.763  0.5619  0.8543 -0.7701
 1941TIP3    H227239   5.440   4.526  11.800  1.0501 -0.1179  0.6833
 1942TIP3   OH227240   2.127   4.609  12.393 -0.6107 -0.3652 -0.6257
 1942TIP3    H127241   2.167   4.570  12.470 -0.6831 -1.9544 -1.3641
 1942TIP3    H227242   2.081   4.686  12.426  2.2263  0.9686  0.3803
 1943TIP3   OH227243   5.430   4.021  14.787 -0.2095 -0.7597  0.3501
 1943TIP3    H127244   5.446   3.959  14.859 -1.6012 -0.8028  0.6363
 1943TIP3    H227245   5.508   4.075  14.785  1.3498 -2.9719 -0.3682
 1944TIP3   OH227246   1.246   2.751  10.926 -0.3785  0.0334 -0.4140
 1944TIP3    H127247   1.195   2.706  10.993  0.6173 -2.0414 -1.0182
 1944TIP3    H227248   1.315   2.796  10.975 -0.5577 -0.2242  0.0777
 1945TIP3   OH227249   0.344   4.517  10.426 -0.3144 -0.3908 -0.7437
 1945TIP3    H127250   0.329   4.556  10.512 -1.1777 -0.3403 -0.9146
 1945TIP3    H227251   0.279   4.558  10.369  0.9814  0.4165 -1.6795
 1946TIP3   OH227252   7.285   4.854  11.327  0.0165 -0.0585  0.0297
 1946TIP3    H127253   7.328   4.831  11.245  0.2956 -2.8359  0.9162
 1946TIP3    H227254   7.356   4.854  11.392  0.0086  3.2004  0.1589
 1947TIP3   OH227255   0.537   3.288  10.510  1.5610  0.1532 -0.0736
 1947TIP3    H127256   0.486   3.366  10.491 -2.4921 -2.3278 -0.1081
 1947TIP3    H227257   0.574   3.262  10.425 -0.6495 -0.3076 -0.9155
 1948TIP3   OH227258   1.407   6.129  13.040 -0.4488  0.2758  0.0187
 1948TIP3    H127259   1.324   6.102  13.080 -0.6305 -0.3976 -0.7914
 1948TIP3    H227260   1.410   6.081  12.958  1.0030 -0.1088  0.2915
 1949TIP3   OH227261   0.828   5.009  12.793 -0.1139  0.3703  1.1238
 1949TIP3    H127262   0.884   5.024  12.869  0.2418  1.8420  0.5845
 1949TIP3    H227263   0.741   4.995  12.829  0.4419 -1.2098  1.9284
 1950TIP3   OH227264   0.322   4.709  10.136 -0.5253 -0.7759 -0.1157
 1950TIP3    H127265   0.389   4.679  10.075  1.7177  1.3243  1.2281
 1950TIP3    H227266   0.289   4.790  10.098  1.6523  1.1296  1.9019
 1951TIP3   OH227267   0.643   2.831  10.358  0.3914 -0.0929  0.0403
 1951TIP3    H127268   0.721   2.868  10.317  0.9406 -0.2735  0.9024
 1951TIP3    H227269   0.572   2.851  10.298  0.2636  4.3786  1.4931
 1952TIP3   OH227270   2.222   5.421  10.053 -0.1318  0.1290 -0.2144
 1952TIP3    H127271   2.151   5.365  10.022 -1.7813  1.9049  0.3392
 1952TIP3    H227272   2.279   5.431   9.976 -1.1500 -0.2246 -1.0310
 1953TIP3   OH227273   0.969   4.511  12.652  0.8139 -0.5877 -0.2699
 1953TIP3    H127274   0.909   4.503  12.726  0.2307 -0.8147 -0.7690
 1953TIP3    H227275   1.045   4.459  12.677  0.0774 -1.7270 -0.3810
 1954TIP3   OH227276   2.557   6.019  12.166 -0.0950 -0.4233  0.2322
 1954TIP3    H127277   2.513   6.019  12.081  1.3583  1.4237 -0.5590
 1954TIP3    H227278   2.620   5.948  12.161  0.1394 -0.1741 -0.3223
 1955TIP3   OH227279   1.296   3.607  11.062 -0.2374 -0.5275 -0.0726
 1955TIP3    H127280   1.361   3.671  11.036  0.1593 -0.1167  1.8622
 1955TIP3    H227281   1.324   3.577  11.148 -1.5490 -1.7821 -0.0520
 1956TIP3   OH227282   0.543   4.421  11.129  0.1903  0.4533 -0.9004
 1956TIP3    H127283   0.480   4.435  11.059  0.9417  2.0441 -1.2835
 1956TIP3    H227284   0.490   4.403  11.207 -0.7335  1.9418 -1.1806
 1957TIP3   OH227285   0.297   6.325  11.619  0.4182 -0.0383  0.5557
 1957TIP3    H127286   0.232   6.267  11.581 -0.0745  0.2030  1.0196
 1957TIP3    H227287   0.350   6.268  11.675  1.2157 -0.4136 -0.5684
 1958TIP3   OH227288   2.128   4.785  10.889  0.2841  0.0238  0.0205
 1958TIP3    H127289   2.080   4.756  10.966 -1.3761  2.3821 -0.0689
 1958TIP3    H227290   2.219   4.788  10.917 -0.2308  0.2758  1.7170
 1959TIP3   OH227291   6.529   5.081  11.186  0.3905 -0.0944 -0.6817
 1959TIP3    H127292   6.611   5.120  11.217  0.4078  1.6986 -2.8899
 1959TIP3    H227293   6.548   4.988  11.179  1.7041  0.0702  0.4302
 1960TIP3   OH227294   1.106   2.803  10.495  0.1167 -0.5923 -0.5782
 1960TIP3    H127295   1.122   2.892  10.526  1.0283 -0.8378 -0.3168
 1960TIP3    H227296   1.015   2.804  10.465 -0.2672  0.0948  0.5758
 1961TIP3   OH227297   2.445   4.370  11.603  0.0460  0.1845 -0.0791
 1961TIP3    H127298   2.446   4.453  11.554 -0.5511 -0.3778 -1.0560
 1961TIP3    H227299   2.353   4.356  11.624 -0.2272 -1.6265 -2.3340
 1962TIP3   OH227300   1.331   2.770  10.662 -0.2954 -0.1554  0.0164
 1962TIP3    H127301   1.317   2.761  10.757 -2.0730 -0.7303 -0.2859
 1962TIP3    H227302   1.247   2.748  10.623  0.4771 -0.1045 -1.7266
 1963TIP3   OH227303   1.902   4.666  11.448 -0.0233  0.3843  0.5013
 1963TIP3    H127304   1.814   4.663  11.486  0.0071 -0.4546  0.5060
 1963TIP3    H227305   1.892   4.719  11.369 -0.5726  0.1050  0.3850
 1964TIP3   OH227306   2.069   3.501  10.445 -0.2682 -0.3226 -0.2307
 1964TIP3    H127307   2.151   3.544  10.424 -0.4357  0.4107  0.5931
 1964TIP3    H227308   2.094   3.419  10.489  0.0209  0.3082  0.8023
 1965TIP3   OH227309   6.392   5.825  10.611 -0.9204  0.0703 -0.0577
 1965TIP3    H127310   6.348   5.874  10.681 -2.4251 -0.9301 -0.2834
 1965TIP3    H227311   6.384   5.733  10.638  0.0244 -0.2062 -0.6880
 1966TIP3   OH227312   1.229   2.599  11.760 -0.7344  0.1002  0.0617
 1966TIP3    H127313   1.291   2.659  11.802  0.4957 -0.7962 -0.4617
 1966TIP3    H227314   1.163   2.583  11.828 -1.0225  1.9369  0.2470
 1967TIP3   OH227315   5.590   3.333  10.426 -0.2882 -0.2237  0.0757
 1967TIP3    H127316   5.541   3.350  10.506 -0.6532 -1.3272  0.1016
 1967TIP3    H227317   5.533   3.276  10.374 -0.4581  1.2332 -1.3947
 1968TIP3   OH227318   5.336   5.460  10.670  0.3399  0.5770 -0.4049
 1968TIP3    H127319   5.307   5.542  10.629  0.3876 -0.4131 -2.4501
 1968TIP3    H227320   5.323   5.394  10.603  1.3620 -0.9329  0.8670
 1969TIP3   OH227321   0.075   5.225  10.486 -0.1836  0.5886 -0.5680
 1969TIP3    H127322   0.159   5.193  10.518  0.7300  1.5043 -1.9662
 1969TIP3    H227323   0.022   5.236  10.564  0.3320 -1.8641  0.1598
 1970TIP3   OH227324   1.513   2.219  11.450  0.3398  0.3310  0.4591
 1970TIP3    H127325   1.507   2.274  11.372 -0.1929  1.4721  1.2835
 1970TIP3    H227326   1.587   2.161  11.433 -0.4814 -0.2244 -1.3760
 1971TIP3   OH227327   1.966   0.170  12.073  0.5013 -0.0883  0.3228
 1971TIP3    H127328   2.049   0.127  12.051  1.4997  1.9400 -0.0133
 1971TIP3    H227329   1.915   0.167  11.992  1.7646  1.9874 -0.5825
 1972TIP3   OH227330   0.990   2.588  10.804 -0.5592  0.2080 -0.0747
 1972TIP3    H127331   0.923   2.652  10.782  0.4519  1.5339  0.6462
 1972TIP3    H227332   1.029   2.620  10.885 -0.3430 -1.5653  0.5533
 1973TIP3   OH227333   0.156   3.687  11.333 -0.2752  0.0516 -0.4964
 1973TIP3    H127334   0.232   3.742  11.317 -0.6848  0.3362 -1.5147
 1973TIP3    H227335   0.116   3.723  11.412  2.2897 -1.9225  1.8088
 1974TIP3   OH227336   7.076   4.691  10.693 -0.1269 -0.1310  0.1531
 1974TIP3    H127337   7.067   4.610  10.644 -0.1191  0.0996 -0.2281
 1974TIP3    H227338   7.003   4.745  10.664  1.3156  0.9756 -1.4815
 1975TIP3   OH227339   0.193   6.978  11.474  0.6886  0.0960 -0.0523
 1975TIP3    H127340   0.106   6.971  11.514  0.5363  1.7212 -0.0518
 1975TIP3    H227341   0.252   6.997  11.547  0.9144 -0.1423 -0.1711
 1976TIP3   OH227342   0.807   4.633  10.881  0.1907  0.1522 -0.3177
 1976TIP3    H127343   0.859   4.625  10.961  0.6492  1.4608 -0.4719
 1976TIP3    H227344   0.734   4.690  10.905 -0.1984 -0.2314 -0.5819
 1977TIP3   OH227345   2.137   4.042  11.021  0.4611  0.2706  0.5993
 1977TIP3    H127346   2.100   3.958  11.048  1.3777 -0.2020  0.4155
 1977TIP3    H227347   2.113   4.051  10.929  1.9731 -0.6996  0.0889
 1978TIP3   OH227348   6.968   6.456  10.356 -0.0144 -0.0296  0.2377
 1978TIP3    H127349   6.885   6.416  10.382  0.9040 -1.1631  1.5175
 1978TIP3    H227350   6.964   6.462  10.261 -1.1593 -0.9764  0.2238
 1979TIP3   OH227351   0.471   6.067  12.113  0.1130 -0.4576  0.0431
 1979TIP3    H127352   0.419   6.002  12.160  0.3617 -0.2583  0.5978
 1979TIP3    H227353   0.410   6.140  12.099  0.4209  0.0764  1.3348
 1980TIP3   OH227354   1.812   5.975  10.758  0.3885  0.1837  0.4390
 1980TIP3    H127355   1.732   5.974  10.810  1.2196  0.9461  1.7427
 1980TIP3    H227356   1.788   6.025  10.679 -1.4398 -2.6457 -0.9004
 1981TIP3   OH227357   2.093   3.656  11.992 -0.6145 -0.2251 -0.2189
 1981TIP3    H127358   2.150   3.579  12.005 -0.0253  0.3253  0.5045
 1981TIP3    H227359   2.071   3.654  11.899  0.3700 -0.6112 -0.4530
 1982TIP3   OH227360   0.466   5.224  11.051  0.1003  0.3107 -0.0908
 1982TIP3    H127361   0.560   5.207  11.041 -0.1045  0.2991 -2.1246
 1982TIP3    H227362   0.445   5.189  11.138  1.4476 -2.0649 -0.6799
 1983TIP3   OH227363   1.776   6.293  10.206 -0.4895 -0.8492 -0.2212
 1983TIP3    H127364   1.814   6.358  10.147  0.0588 -0.9337  0.0337
 1983TIP3    H227365   1.829   6.215  10.193 -0.4217 -0.8941  0.3174
 1984TIP3   OH227366   0.490   5.331  10.478  0.3800  0.6323 -0.2666
 1984TIP3    H127367   0.430   5.405  10.488  0.8318  0.9439  0.1061
 1984TIP3    H227368   0.530   5.345  10.392 -0.9815 -0.2337 -1.0714
 1985TIP3   OH227369   1.989   4.916  10.660 -0.6522  0.0021 -0.2498
 1985TIP3    H127370   2.018   4.827  10.681 -2.0388 -0.8799 -1.9136
 1985TIP3    H227371   1.976   4.915  10.565  0.3066  2.2998 -0.4376
 1986TIP3   OH227372   0.747   1.843  11.996  0.2086 -0.3545  0.0907
 1986TIP3    H127373   0.808   1.899  11.949 -0.9296 -1.1197 -2.4297
 1986TIP3    H227374   0.769   1.854  12.088  1.5471  2.3822 -0.5093
 1987TIP3   OH227375   2.879   2.552  11.475  0.7836  0.0478 -0.0401
 1987TIP3    H127376   2.972   2.574  11.483  0.1793  3.4246 -1.6202
 1987TIP3    H227377   2.833   2.629  11.506 -1.5363 -1.4170  0.2679
 1988TIP3   OH227378   0.046   3.060  10.747  1.0337  0.0221  0.2695
 1988TIP3    H127379   0.026   3.078  10.656  2.3166  1.5189  0.2636
 1988TIP3    H227380  -0.040   3.054  10.790  0.4747  1.7603 -0.5735
 1989TIP3   OH227381   0.621   2.954  10.625 -0.0946  0.2522 -0.0547
 1989TIP3    H127382   0.545   3.009  10.642  0.6029  1.3265 -0.4064
 1989TIP3    H227383   0.604   2.917  10.538 -0.0869  0.6827 -0.2357
 1990TIP3   OH227384   5.427   4.539  10.393  0.9074 -0.2362 -0.0132
 1990TIP3    H127385   5.511   4.521  10.352  0.9041  0.3397 -0.2771
 1990TIP3    H227386   5.438   4.624  10.435  0.2323  0.1879 -0.6807
 1991TIP3   OH227387   1.239   1.505  11.501  0.5519  0.3361 -0.3387
 1991TIP3    H127388   1.262   1.593  11.532  0.4987  0.6200 -1.0891
 1991TIP3    H227389   1.158   1.483  11.547  1.6124 -0.1438  1.3554
 1992TIP3   OH227390   1.707   2.450  12.574 -0.1901  0.0448 -0.0367
 1992TIP3    H127391   1.639   2.385  12.589  0.3250 -0.1294  1.6688
 1992TIP3    H227392   1.679   2.527  12.624 -0.2259  0.7470 -1.1177
 1993TIP3   OH227393   6.124   4.132  10.136 -0.0475 -0.4700 -0.6551
 1993TIP3    H127394   6.086   4.065  10.079 -0.2807 -0.6367 -0.3007
 1993TIP3    H227395   6.073   4.128  10.216  0.4640 -0.4166 -0.3257
 1994TIP3   OH227396   2.294   2.588  11.480  0.1765 -0.1657 -0.2885
 1994TIP3    H127397   2.345   2.669  11.491 -1.8495  1.0464  0.5634
 1994TIP3    H227398   2.356   2.518  11.498  1.3512  1.3022  1.5868
 1995TIP3   OH227399   1.818   5.444   9.804 -0.5231 -0.3668  0.3863
 1995TIP3    H127400   1.888   5.387   9.835 -2.2145 -2.8491 -0.2582
 1995TIP3    H227401   1.793   5.495   9.882  0.2206 -1.3022  1.2476
 1996TIP3   OH227402   0.202   0.899  12.388 -0.0394  0.2402 -0.4305
 1996TIP3    H127403   0.190   0.807  12.364 -1.5157 -0.5892  3.0971
 1996TIP3    H227404   0.282   0.900  12.440 -1.0981  0.5429  1.2359
 1997TIP3   OH227405   1.083   2.310  15.137  0.2198 -0.0901 -0.0447
 1997TIP3    H127406   1.141   2.305  15.213  0.8340  0.7340 -0.4522
 1997TIP3    H227407   1.134   2.356  15.071 -0.7092  0.1788 -0.5881
 1998TIP3   OH227408   3.097   2.874  10.705  0.1801 -0.2395 -0.1306
 1998TIP3    H127409   3.037   2.890  10.633  0.6123  0.7790 -0.2814
 1998TIP3    H227410   3.181   2.910  10.674  0.7353 -1.1915  0.2691
 1999TIP3   OH227411   2.469   5.509  11.296  0.5033 -0.9188 -0.0846
 1999TIP3    H127412   2.468   5.500  11.201 -0.6083 -0.8685 -0.0794
 1999TIP3    H227413   2.431   5.428  11.329 -0.6576 -0.2535  0.2573
 2000TIP3   OH227414   4.189   5.529  10.106 -0.6972  0.4633 -0.1854
 2000TIP3    H127415   4.148   5.613  10.087  0.0570  0.6594 -0.9482
 2000TIP3    H227416   4.281   5.541  10.082 -0.0143  0.2634  2.2246
 2001TIP3   OH227417   2.127   5.565  10.411 -0.0426  0.2290 -0.4059
 2001TIP3    H127418   2.103   5.590  10.322 -0.5346  0.2401 -0.2747
 2001TIP3    H227419   2.178   5.639  10.444  0.3831  0.1031 -0.7753
 2002TIP3   OH227420   2.639   2.892  11.153 -0.0880 -0.0854  0.5700
 2002TIP3    H127421   2.724   2.858  11.127 -0.1649 -1.0123  1.5175
 2002TIP3    H227422   2.656   2.939  11.236  0.0593  2.3857 -0.7998
 2003TIP3   OH227423   3.735   4.814  11.097  0.3959  0.0443 -0.9060
 2003TIP3    H127424   3.669   4.812  11.028  0.2075  0.2802 -0.7321
 2003TIP3    H227425   3.770   4.903  11.095 -2.1018  1.1649  1.6271
 2004TIP3   OH227426   2.650   5.196  11.079 -0.1817  0.3952  0.3538
 2004TIP3    H127427   2.743   5.174  11.068 -0.1527  0.7640 -0.1599
 2004TIP3    H227428   2.610   5.167  10.997 -0.7009 -0.7388  1.0016
 2005TIP3   OH227429   2.596   3.129  10.969  0.1761 -0.0819 -0.2865
 2005TIP3    H127430   2.606   3.075  11.047 -0.0809  0.4404  0.1106
 2005TIP3    H227431   2.597   3.067  10.896  1.5474 -0.4781  0.0460
 2006TIP3   OH227432   2.153   1.289  10.960  0.5020  0.4963  0.2297
 2006TIP3    H127433   2.113   1.349  11.023  1.0033 -0.3663  1.3758
 2006TIP3    H227434   2.191   1.346  10.894 -0.2303  1.3998  0.5741
 2007TIP3   OH227435   2.352   5.618  10.885  0.5403 -0.1953 -0.1500
 2007TIP3    H127436   2.371   5.589  10.795 -0.4051 -0.6797 -0.1932
 2007TIP3    H227437   2.400   5.557  10.941  1.7507  0.5687 -0.3387
 2008TIP3   OH227438   4.222   4.375  10.232 -0.0211 -0.2110  0.3285
 2008TIP3    H127439   4.159   4.310  10.262 -1.2562  0.2782 -1.1104
 2008TIP3    H227440   4.248   4.345  10.145  0.6129  0.3803  0.3082
 2009TIP3   OH227441   2.896   3.192  10.553 -0.0688 -0.7990  0.1087
 2009TIP3    H127442   2.967   3.239  10.509 -0.6907  0.7375  0.7132
 2009TIP3    H227443   2.880   3.116  10.497  0.1686  0.3201 -1.5114
 2010TIP3   OH227444   2.754   4.696  10.892 -0.6772  0.8149  0.3955
 2010TIP3    H127445   2.730   4.787  10.909 -0.7778  0.9160 -0.2673
 2010TIP3    H227446   2.674   4.646  10.904 -1.2492  1.1439 -1.7498
 2011TIP3   OH227447   4.383   4.978  10.503  0.0161 -0.0817  0.4676
 2011TIP3    H127448   4.443   5.035  10.550  0.8969  0.1959 -0.9486
 2011TIP3    H227449   4.435   4.941  10.432 -1.4233  0.0261 -0.6814
 2012TIP3   OH227450   1.891   4.880  11.212 -0.4832  0.3783  0.5233
 2012TIP3    H127451   1.967   4.834  11.177  0.5962  1.4429  1.4320
 2012TIP3    H227452   1.924   4.967  11.235 -2.1237  1.0767  0.3030
 2013TIP3   OH227453   1.986   4.877  12.027  0.4362  0.6442  0.0819
 2013TIP3    H127454   2.078   4.903  12.023  0.6925 -0.3604 -0.9627
 2013TIP3    H227455   1.986   4.785  11.998 -0.8515  0.5409  0.3754
 2014TIP3   OH227456   4.187   5.296  11.558 -0.3818 -0.2020 -0.1358
 2014TIP3    H127457   4.121   5.234  11.526  0.8813 -1.3897 -0.5219
 2014TIP3    H227458   4.269   5.263  11.521  0.6172  0.4581  1.4658
 2015TIP3   OH227459   3.015   2.907  10.457 -0.8105  0.1135  0.3443
 2015TIP3    H127460   3.105   2.917  10.425 -0.9573  0.0293 -0.0983
 2015TIP3    H227461   2.968   2.868  10.383 -0.9804 -0.7862  0.9237
 2016TIP3   OH227462   1.851   5.868   9.915 -0.3084  0.3091  0.2820
 2016TIP3    H127463   1.787   5.799   9.899 -1.3903  1.0550  1.2926
 2016TIP3    H227464   1.798   5.946   9.933  0.8877  0.9011  1.2897
 2017TIP3   OH227465   2.348   2.253  11.458  0.1068 -0.3768  0.0801
 2017TIP3    H127466   2.382   2.170  11.491 -1.7406 -1.9762 -1.9490
 2017TIP3    H227467   2.411   2.279  11.391  0.1620 -0.6180  0.0381
 2018TIP3   OH227468   3.440   4.263  12.815  0.1788 -0.4927 -0.2529
 2018TIP3    H127469   3.453   4.288  12.723 -0.3421  0.6439 -0.0333
 2018TIP3    H227470   3.402   4.341  12.855  1.1193 -0.7135  1.1049
 2019TIP3   OH227471   3.184   5.922  10.345 -0.2865  0.1033  0.3338
 2019TIP3    H127472   3.143   5.839  10.370  1.4733 -0.0973  2.6861
 2019TIP3    H227473   3.276   5.910  10.366 -0.0857  2.8162  1.1044
 2020TIP3   OH227474   3.735   6.487  11.466 -0.2341  0.2951 -0.3255
 2020TIP3    H127475   3.774   6.423  11.406  0.7393  1.1078 -0.5860
 2020TIP3    H227476   3.731   6.568  11.414 -0.0120  0.8265  0.4815
 2021TIP3   OH227477   4.128   6.342  11.716  0.0582  0.1854 -0.2622
 2021TIP3    H127478   4.204   6.328  11.773 -0.0846 -0.6921 -0.2866
 2021TIP3    H227479   4.101   6.432  11.734  0.6706  0.2660  0.2695
 2022TIP3   OH227480   3.617   4.205  10.972  0.1676  0.3284 -0.6619
 2022TIP3    H127481   3.614   4.289  11.018  0.7640  0.4444 -0.8198
 2022TIP3    H227482   3.711   4.184  10.969  0.0523 -0.1331 -0.9984
 2023TIP3   OH227483   2.406   3.392  10.632  0.1683 -0.1502 -0.1176
 2023TIP3    H127484   2.380   3.468  10.581  2.6810  0.1194 -1.0754
 2023TIP3    H227485   2.474   3.424  10.691  0.1730 -1.3471  0.5536
 2024TIP3   OH227486   2.026   6.246  11.068 -0.3129  0.1550  0.8524
 2024TIP3    H127487   2.099   6.304  11.091 -1.2925  0.8120  2.4012
 2024TIP3    H227488   2.023   6.182  11.139  0.4659 -1.5271 -0.6148
 2025TIP3   OH227489   3.248   6.469  10.925 -0.1897 -0.0914 -0.2282
 2025TIP3    H127490   3.251   6.391  10.980 -1.1036  0.7110  0.9549
 2025TIP3    H227491   3.253   6.435  10.835  0.5034 -1.4354  0.3066
 2026TIP3   OH227492   4.445   3.992  11.605  0.3189 -0.4371  0.1183
 2026TIP3    H127493   4.461   3.950  11.521 -0.9640 -0.1230 -0.2874
 2026TIP3    H227494   4.532   4.005  11.642  0.8980 -0.4171 -1.2308
 2027TIP3   OH227495   2.455   3.955  12.809 -0.2586  0.0078  0.2454
 2027TIP3    H127496   2.504   3.896  12.867  0.1848 -0.4464 -0.5898
 2027TIP3    H227497   2.366   3.920  12.809 -0.3534  0.2352  0.9577
 2028TIP3   OH227498   3.140   6.306  11.934 -0.0154 -0.1093  0.1985
 2028TIP3    H127499   3.212   6.362  11.903  0.0144  1.1555  2.3974
 2028TIP3    H227500   3.125   6.244  11.863  2.9890 -0.1427 -0.4718
 2029TIP3   OH227501   3.409   3.615  10.151  0.0392  0.1678  0.5586
 2029TIP3    H127502   3.432   3.706  10.131  0.0065 -0.1334 -0.8764
 2029TIP3    H227503   3.466   3.563  10.094 -2.5552 -0.6434 -1.3485
 2030TIP3   OH227504   2.688   3.328  11.273 -0.4293  0.2784  0.0668
 2030TIP3    H127505   2.605   3.344  11.228 -0.8875 -1.5420  0.2298
 2030TIP3    H227506   2.755   3.342  11.206 -0.7171  3.3478  0.3246
 2031TIP3   OH227507   2.738   4.818  11.647  0.4507  0.0374  0.2795
 2031TIP3    H127508   2.817   4.805  11.595  0.1914 -1.7128  0.2824
 2031TIP3    H227509   2.761   4.788  11.735  0.2025  0.8411  0.6233
 2032TIP3   OH227510   3.344   4.350  10.084  0.2468  0.3871 -0.1419
 2032TIP3    H127511   3.424   4.390  10.051  0.8129  0.3013  1.0959
 2032TIP3    H227512   3.374   4.286  10.148 -0.8337  0.8568  0.8484
 2033TIP3   OH227513   0.938   5.879  11.650  0.1406  0.6500  0.4070
 2033TIP3    H127514   0.957   5.941  11.720 -0.0215 -0.0168  1.0396
 2033TIP3    H227515   0.923   5.796  11.694  1.7942 -0.1736 -0.5534
 2034TIP3   OH227516   0.127   5.038  12.323 -0.1299  0.2081  0.0940
 2034TIP3    H127517   0.084   4.964  12.367 -0.4570  1.2410  1.5710
 2034TIP3    H227518   0.182   5.078  12.391 -0.3913  1.6517 -0.5122
 2035TIP3   OH227519   2.573   4.691   9.628  0.3451  0.1501 -0.1423
 2035TIP3    H127520   2.623   4.613   9.650  1.0299  0.0209 -2.0379
 2035TIP3    H227521   2.577   4.746   9.706  2.9443 -0.1356 -0.0268
 2036TIP3   OH227522   1.264   3.122  11.693 -0.4065 -0.2343 -0.6461
 2036TIP3    H127523   1.185   3.071  11.711 -0.8413 -0.0577 -2.0120
 2036TIP3    H227524   1.240   3.211  11.717 -0.4409 -0.2750 -0.5268
 2037TIP3   OH227525   4.333   5.333  11.095  0.6448 -0.6376 -0.5715
 2037TIP3    H127526   4.356   5.252  11.049  0.0450 -1.1886  0.0884
 2037TIP3    H227527   4.254   5.311  11.144  0.4338  0.3728 -0.4434
 2038TIP3   OH227528   2.271   3.672  10.069  0.0586  0.7160 -0.4051
 2038TIP3    H127529   2.355   3.653  10.027  0.0976 -1.9506  0.8181
 2038TIP3    H227530   2.210   3.682   9.996  1.1133  1.0563 -1.2493
 2039TIP3   OH227531   2.590   3.650  10.505  0.1986 -0.2220 -0.4880
 2039TIP3    H127532   2.579   3.663  10.411 -1.0865 -1.3459 -0.5104
 2039TIP3    H227533   2.645   3.572  10.512 -0.2933 -0.5567 -0.3117
 2040TIP3   OH227534   3.169   5.574  10.845  0.4921  0.4118  0.3035
 2040TIP3    H127535   3.188   5.574  10.938  1.1603 -1.1414  0.1788
 2040TIP3    H227536   3.254   5.590  10.803  0.5245 -0.7195 -0.0840
 2041TIP3   OH227537   1.663   5.487   9.580 -0.3658 -0.0902 -0.2033
 2041TIP3    H127538   1.727   5.471   9.649  0.9340  0.8187 -1.1756
 2041TIP3    H227539   1.618   5.567   9.607  1.3061  1.2337 -1.2042
 2042TIP3   OH227540   3.937   0.294  14.633  0.2734  0.0025  0.5606
 2042TIP3    H127541   4.032   0.291  14.628  0.2530 -0.8023  0.7002
 2042TIP3    H227542   3.908   0.287  14.541  0.4141  3.2625  0.1822
 2043TIP3   OH227543   1.207   5.111  12.929 -0.9511  0.1981 -0.1047
 2043TIP3    H127544   1.273   5.045  12.953 -0.6881  0.2804 -0.6021
 2043TIP3    H227545   1.126   5.080  12.970 -0.3676  0.6713  1.4590
 2044TIP3   OH227546   2.817   6.232  10.214 -0.1729 -0.4107  1.1504
 2044TIP3    H127547   2.898   6.196  10.250 -0.6405 -0.0197  2.5882
 2044TIP3    H227548   2.752   6.219  10.282 -1.3318 -0.6843  0.0175
 2045TIP3   OH227549   3.201   5.699  10.038 -0.1405 -0.3994  0.3707
 2045TIP3    H127550   3.132   5.744   9.989  0.2820  0.5807  0.6473
 2045TIP3    H227551   3.245   5.645   9.974 -0.5996 -0.3399  0.0005
 2046TIP3   OH227552   3.086   5.360   9.749 -0.0931 -0.3075  0.2543
 2046TIP3    H127553   3.046   5.443   9.775 -0.7110  0.4361 -2.8365
 2046TIP3    H227554   3.011   5.301   9.736  0.2292 -0.8078  0.6881
 2047TIP3   OH227555   4.637   2.151  11.520  0.0029 -0.4352 -0.3608
 2047TIP3    H127556   4.653   2.137  11.613 -1.9557  1.4539  0.2946
 2047TIP3    H227557   4.698   2.219  11.494  0.3346 -0.7442 -0.3966
 2048TIP3   OH227558   1.160   4.662  11.597  0.4010 -0.6091 -0.6382
 2048TIP3    H127559   1.214   4.679  11.674 -0.1388  1.1377 -0.6168
 2048TIP3    H227560   1.083   4.717  11.609 -0.5186 -1.6736 -1.5709
 2049TIP3   OH227561   3.451   5.344  12.601 -0.0133 -0.0074  0.1312
 2049TIP3    H127562   3.536   5.303  12.589 -0.6677 -0.7746 -2.1100
 2049TIP3    H227563   3.404   5.284  12.659  0.6851  0.0026  0.7098
 2050TIP3   OH227564   2.352   1.334  13.952 -0.3992 -0.3083 -0.4647
 2050TIP3    H127565   2.435   1.330  13.905 -0.3339  0.2350 -0.3969
 2050TIP3    H227566   2.374   1.372  14.037 -0.5020 -1.3764  0.0496
 2051TIP3   OH227567   2.379   3.925  10.300  0.8354  0.3669  0.8739
 2051TIP3    H127568   2.402   3.837  10.273 -0.9875  0.5022 -1.2605
 2051TIP3    H227569   2.462   3.973  10.301  1.5500 -0.8394  0.0074
 2052TIP3   OH227570   3.501   4.958   9.920  0.7444  0.0752 -0.2826
 2052TIP3    H127571   3.461   5.041   9.948 -0.3429 -0.1085 -1.2362
 2052TIP3    H227572   3.594   4.978   9.910  0.6712  0.8990  0.5442
 2053TIP3   OH227573   3.716   3.321  12.184  0.0166 -1.0231  0.2341
 2053TIP3    H127574   3.651   3.254  12.159 -0.4950 -0.6130  0.4509
 2053TIP3    H227575   3.762   3.283  12.259  1.4528 -2.1973 -1.2035
 2054TIP3   OH227576   2.355   4.823   9.524 -0.4650 -1.0143 -0.3516
 2054TIP3    H127577   2.382   4.915   9.512 -0.2893 -1.0299 -0.0729
 2054TIP3    H227578   2.434   4.779   9.554 -0.9787 -0.9166  1.1856
 2055TIP3   OH227579   2.894   2.295  11.127 -0.0883 -0.2354 -0.0099
 2055TIP3    H127580   2.849   2.211  11.134  0.6383 -0.7139 -0.9018
 2055TIP3    H227581   2.830   2.352  11.084 -0.3038 -0.5478 -0.1085
 2056TIP3   OH227582   5.219   2.882  11.566 -0.1391  0.5634 -0.1596
 2056TIP3    H127583   5.239   2.847  11.653  0.4693 -1.1419 -0.9736
 2056TIP3    H227584   5.153   2.949  11.583 -0.0778  0.2226  1.6110
 2057TIP3   OH227585   2.853   4.222  10.860 -0.7737 -0.3331  0.6155
 2057TIP3    H127586   2.865   4.127  10.860  2.4780  0.0400  0.7482
 2057TIP3    H227587   2.903   4.253  10.785 -1.0844  1.3659  1.0877
 2058TIP3   OH227588   3.129   5.369  11.545  0.9121  0.0472  0.6611
 2058TIP3    H127589   3.087   5.385  11.461  1.7845 -0.7427  0.0577
 2058TIP3    H227590   3.083   5.426  11.607 -1.3014 -1.1382  0.1181
 2059TIP3   OH227591   2.503   4.634  11.346  0.3846 -0.5570 -0.0560
 2059TIP3    H127592   2.562   4.701  11.312  0.3010 -0.5013 -0.0893
 2059TIP3    H227593   2.532   4.619  11.436  0.2775 -0.3342  0.0158
 2060TIP3   OH227594   4.738   3.145  10.933  0.2631 -0.0045 -0.2915
 2060TIP3    H127595   4.769   3.082  10.998 -1.2832 -1.9223 -1.3903
 2060TIP3    H227596   4.770   3.111  10.849 -0.2259  0.9071 -0.8573
 2061TIP3   OH227597   4.252   2.583  10.833 -0.7588  0.4229  0.3865
 2061TIP3    H127598   4.181   2.601  10.771 -0.2027 -1.6671 -0.9427
 2061TIP3    H227599   4.300   2.666  10.839 -1.5536  1.0122 -1.0340
 2062TIP3   OH227600   0.815   2.915  12.499 -0.1663 -0.2400 -0.4489
 2062TIP3    H127601   0.902   2.897  12.464  0.1571  1.8864 -0.7903
 2062TIP3    H227602   0.831   2.967  12.578 -1.1472  0.4978 -0.7317
 2063TIP3   OH227603   2.236   4.580  10.097  0.3522 -0.1853 -0.0637
 2063TIP3    H127604   2.316   4.549  10.054 -0.7884 -1.5084 -1.2786
 2063TIP3    H227605   2.167   4.523  10.064 -0.8207 -0.2231  2.3498
 2064TIP3   OH227606   4.727   4.823  11.004 -0.0687  0.2653 -0.9011
 2064TIP3    H127607   4.739   4.762  11.076 -0.1929  1.3605  0.0621
 2064TIP3    H227608   4.810   4.821  10.957 -0.0360 -0.5534 -0.8133
 2065TIP3   OH227609   3.858   5.528  12.463 -0.4534  0.1597 -0.4504
 2065TIP3    H127610   3.812   5.496  12.385 -0.4673  0.1275 -0.4294
 2065TIP3    H227611   3.789   5.537  12.529 -0.2285 -1.0844 -0.0393
 2066TIP3   OH227612   3.499   0.268  11.646  0.4226  0.4709 -0.5816
 2066TIP3    H127613   3.586   0.303  11.628  1.2518 -0.9409  0.6077
 2066TIP3    H227614   3.500   0.179  11.610 -0.5319  0.4463 -0.5819
 2067TIP3   OH227615   2.610   1.552  11.882 -0.0760 -0.1821  0.5068
 2067TIP3    H127616   2.648   1.479  11.833 -1.7854 -0.3044 -0.6716
 2067TIP3    H227617   2.675   1.622  11.874  0.0212 -0.4462 -1.3163
 2068TIP3   OH227618   2.191   4.166  10.231  0.4192 -0.0247 -0.1301
 2068TIP3    H127619   2.231   4.127  10.309 -1.3407 -0.1655  0.7219
 2068TIP3    H227620   2.147   4.244  10.264 -0.1177  0.0496 -1.0338
 2069TIP3   OH227621   1.012   4.098  10.431  0.0481  0.3508 -0.1526
 2069TIP3    H127622   1.107   4.103  10.443  0.1654 -0.4521 -0.6256
 2069TIP3    H227623   0.994   4.155  10.356  0.0846  0.9266  0.2784
 2070TIP3   OH227624   4.029   5.794  10.319 -0.2018  0.4609 -0.0524
 2070TIP3    H127625   4.011   5.886  10.336 -0.4897  0.3936  0.0158
 2070TIP3    H227626   3.962   5.767  10.256  1.0274  0.7694 -1.5143
 2071TIP3   OH227627   2.769   3.835   9.709 -0.0262 -0.0237  0.4700
 2071TIP3    H127628   2.849   3.850   9.657  0.0613 -0.8326  0.3672
 2071TIP3    H227629   2.748   3.921   9.746  1.4485 -0.0103  1.2993
 2072TIP3   OH227630   3.731   4.256  11.829  0.2636  0.5258 -0.0589
 2072TIP3    H127631   3.781   4.185  11.789 -0.7640  0.1988 -0.7853
 2072TIP3    H227632   3.753   4.333  11.777  1.6309  0.8262  0.9316
 2073TIP3   OH227633   2.647   4.778  10.317 -0.7791  0.5324  0.2696
 2073TIP3    H127634   2.692   4.789  10.233  0.9935  2.1720  1.3791
 2073TIP3    H227635   2.642   4.683  10.330  0.2365  0.2944 -1.0259
 2074TIP3   OH227636   0.490   4.747  12.069  0.2698 -0.2312 -0.0458
 2074TIP3    H127637   0.435   4.770  12.144 -0.1226  0.3325 -0.5066
 2074TIP3    H227638   0.546   4.676  12.102  0.7969  0.6875  1.0839
 2075TIP3   OH227639   1.913   2.648  11.002 -0.2748  0.2190  0.2878
 2075TIP3    H127640   1.880   2.692  10.924  0.2507 -2.3564 -1.4395
 2075TIP3    H227641   1.974   2.710  11.041  0.5623  0.9612 -2.1674
 2076TIP3   OH227642   2.503   6.566  10.572 -0.4574  0.6313 -0.0818
 2076TIP3    H127643   2.497   6.513  10.493  1.6872 -0.6995  0.6054
 2076TIP3    H227644   2.596   6.566  10.595 -1.1173  0.2733  2.8793
 2077TIP3   OH227645   4.053   6.735  10.835 -0.2729 -0.4992 -0.1146
 2077TIP3    H127646   4.101   6.653  10.834 -1.9768 -1.5377 -3.3595
 2077TIP3    H227647   3.973   6.716  10.885  1.1113  0.3382  2.5090
 2078TIP3   OH227648   1.884   1.928  12.613 -0.0327 -1.1886 -0.3619
 2078TIP3    H127649   1.856   2.013  12.581 -2.7752 -2.0280 -0.3080
 2078TIP3    H227650   1.926   1.887  12.537  0.2014 -0.2695 -0.7340
 2079TIP3   OH227651   3.124   4.492  11.065  0.6510  0.7730 -0.5276
 2079TIP3    H127652   3.107   4.399  11.054  0.2312  0.8942 -0.9509
 2079TIP3    H227653   3.093   4.532  10.983  0.5276  1.3159 -0.2204
 2080TIP3   OH227654   2.019   6.640  11.380  0.1435  0.7103  0.1341
 2080TIP3    H127655   2.038   6.610  11.291  1.5206  0.2134  0.5788
 2080TIP3    H227656   2.087   6.600  11.434 -0.2228  1.6189  1.3012
 2081TIP3   OH227657   2.675   4.235  10.089 -0.1352  0.2109 -0.5695
 2081TIP3    H127658   2.669   4.269   9.999 -0.9106  1.7316  0.0275
 2081TIP3    H227659   2.586   4.246  10.124  0.7588  2.0343  1.2102
 2082TIP3   OH227660   2.894   5.868  10.831  0.3893  0.1049  0.2941
 2082TIP3    H127661   2.801   5.879  10.853  0.9281  0.5512  2.4860
 2082TIP3    H227662   2.902   5.776  10.806 -0.6121  0.0255  0.2400
 2083TIP3   OH227663   5.039   7.074  11.612 -0.3091  0.3461 -0.7975
 2083TIP3    H127664   5.084   7.027  11.542  0.7321 -1.0449  0.7472
 2083TIP3    H227665   5.109   7.101  11.671 -1.2976 -0.0928  0.6205
 2084TIP3   OH227666   4.205   4.822  11.766 -0.5314  0.1382 -0.4125
 2084TIP3    H127667   4.257   4.756  11.721  1.7172  0.1657  2.0035
 2084TIP3    H227668   4.202   4.791  11.857 -2.5452  1.5099  0.0212
 2085TIP3   OH227669   2.066   4.128  12.121 -0.2352 -0.0761  0.4967
 2085TIP3    H127670   2.065   4.201  12.183  0.1158 -0.3209  0.7920
 2085TIP3    H227671   2.049   4.051  12.175 -0.0051 -0.2835  0.2737
 2086TIP3   OH227672   1.869   6.628  10.834 -0.7189  0.0966 -0.0485
 2086TIP3    H127673   1.953   6.648  10.876  1.1405 -2.0549 -2.6176
 2086TIP3    H227674   1.808   6.617  10.908  1.5306  0.3975  1.9144
 2087TIP3   OH227675   2.706   3.978  10.329 -0.5331 -0.1154 -0.3515
 2087TIP3    H127676   2.717   4.019  10.243  1.0980 -1.0627 -0.6059
 2087TIP3    H227677   2.674   3.890  10.310  0.5404 -0.5767 -0.0174
 2088TIP3   OH227678   2.465   4.296  11.975  0.0477 -0.0755  0.7057
 2088TIP3    H127679   2.394   4.273  12.036  0.1899 -0.6205  0.6727
 2088TIP3    H227680   2.429   4.366  11.921 -0.5586 -0.5211  0.5233
 2089TIP3   OH227681   0.693   6.853  10.310  0.4527  0.4590 -0.1367
 2089TIP3    H127682   0.613   6.800  10.300  1.0189 -0.2915 -0.8045
 2089TIP3    H227683   0.690   6.884  10.401 -1.4850  1.9114 -0.6739
 2090TIP3   OH227684   3.003   3.988  10.908 -0.5939  0.2790 -0.8399
 2090TIP3    H127685   3.030   3.989  10.817 -1.8637  1.7755 -1.2337
 2090TIP3    H227686   2.913   3.954  10.906 -0.2167 -0.7656 -0.0336
 2091TIP3   OH227687   3.145   4.074  10.351  0.4453 -0.0263 -0.0424
 2091TIP3    H127688   3.185   4.075  10.264  2.0631  1.4486  0.6840
 2091TIP3    H227689   3.195   4.010  10.400  0.1232 -0.1903  0.0725
 2092TIP3   OH227690   2.810   4.520  10.374  0.3340  0.4526  0.6206
 2092TIP3    H127691   2.848   4.477  10.297  3.1093  1.1831  1.5244
 2092TIP3    H227692   2.831   4.462  10.447  0.8769  1.4860  1.3105
 2093TIP3   OH227693   2.371   4.529  11.834  0.1867 -0.2539  0.4302
 2093TIP3    H127694   2.343   4.621  11.831  1.4727  0.1378  0.2711
 2093TIP3    H227695   2.415   4.515  11.750 -0.8653 -1.2974  0.0416
 2094TIP3   OH227696   1.299   2.114  11.565 -0.3136 -0.3340  0.0802
 2094TIP3    H127697   1.384   2.139  11.529  0.9617 -1.3228  2.3133
 2094TIP3    H227698   1.285   2.025  11.533  0.1637 -0.6899  0.8404
 2095TIP3   OH227699   6.722   3.471  12.151 -0.1218  0.4499 -0.5272
 2095TIP3    H127700   6.689   3.543  12.098  0.0990  1.2624  0.4326
 2095TIP3    H227701   6.662   3.398  12.132 -1.9742  1.6517  0.5396
 2096TIP3   OH227702   2.071   5.775  10.096 -0.5274  0.8869 -0.0358
 2096TIP3    H127703   2.038   5.786  10.007 -0.2332 -0.1214 -0.2699
 2096TIP3    H227704   2.161   5.807  10.092 -0.6452  1.2259 -0.0020
 2097TIP3   OH227705   1.788   3.604  11.523  0.4424  0.0233 -0.1047
 2097TIP3    H127706   1.757   3.691  11.547 -2.3754 -1.1076  0.4930
 2097TIP3    H227707   1.817   3.566  11.606 -1.0157 -0.6443  0.1054
 2098TIP3   OH227708   3.219   4.742  10.240  0.2231  0.0433  0.1504
 2098TIP3    H127709   3.136   4.770  10.279 -0.4570 -1.8095  0.0985
 2098TIP3    H227710   3.209   4.647  10.227  1.8734 -0.0036 -1.0130
 2099TIP3   OH227711   2.114   4.657  12.965 -0.1883  0.1158  0.1277
 2099TIP3    H127712   2.044   4.614  13.014  0.7488 -1.3743  0.1758
 2099TIP3    H227713   2.179   4.588  12.949  0.7554  1.2115 -0.8852
 2100TIP3   OH227714   2.386   5.918  10.965 -0.1153  0.2442 -0.0907
 2100TIP3    H127715   2.397   6.000  11.013  1.3185 -0.1995  0.3879
 2100TIP3    H227716   2.298   5.888  10.986 -0.2202  1.0775  0.6601
 2101TIP3   OH227717   2.399   3.983  10.985  0.1071  0.1675  0.4847
 2101TIP3    H127718   2.392   3.889  10.970 -1.3824  0.5876 -1.7257
 2101TIP3    H227719   2.309   4.013  10.993  0.6214  1.2086  2.7700
 2102TIP3   OH227720   1.615   5.853  11.448  0.1178  0.1861  0.2187
 2102TIP3    H127721   1.589   5.942  11.470  0.1518  0.9240 -2.5449
 2102TIP3    H227722   1.707   5.860  11.425  0.5033 -0.8376  1.4121
 2103TIP3   OH227723   5.087   6.131  12.563 -0.1929 -0.4211  0.1056
 2103TIP3    H127724   5.099   6.149  12.470 -0.9696  0.1782  0.1147
 2103TIP3    H227725   5.037   6.205  12.596  1.1566 -0.0161  1.2807
 2104TIP3   OH227726   1.230   4.235  11.838 -0.6227 -0.2247  0.1253
 2104TIP3    H127727   1.290   4.252  11.910  1.2393  0.8392 -1.6245
 2104TIP3    H227728   1.244   4.307  11.777 -1.0904 -1.8478 -1.9775
 2105TIP3   OH227729   4.295   4.221  11.526  0.0687  0.6600  0.4145
 2105TIP3    H127730   4.266   4.180  11.445 -1.9488 -0.0727  1.4883
 2105TIP3    H227731   4.325   4.148  11.580  1.0826  1.1173  0.4904
 2106TIP3   OH227732   2.175   4.267  11.587  0.4668 -0.0359 -0.0180
 2106TIP3    H127733   2.135   4.208  11.651  0.5301  0.2849  0.3156
 2106TIP3    H227734   2.104   4.328  11.564  0.5336  0.0407 -0.0203
 2107TIP3   OH227735   4.697   6.152  12.315 -0.0906  0.2909  0.2871
 2107TIP3    H127736   4.695   6.125  12.407 -0.1767  0.4017  0.3177
 2107TIP3    H227737   4.731   6.075  12.269  1.8541  0.9132  0.6461
 2108TIP3   OH227738   2.813   5.440  11.214 -0.5805  0.2812  0.3565
 2108TIP3    H127739   2.863   5.405  11.140  0.9951  1.5219  0.8156
 2108TIP3    H227740   2.877   5.487  11.267 -1.9532  0.6022  1.7854
 2109TIP3   OH227741   2.643   5.294  11.768 -0.1156  0.1774  0.0643
 2109TIP3    H127742   2.659   5.215  11.717 -1.8907  0.6262 -1.2636
 2109TIP3    H227743   2.549   5.291  11.787  0.1282  1.1087  1.4743
 2110TIP3   OH227744   1.575   5.916  10.362 -0.2769  0.4112  0.4813
 2110TIP3    H127745   1.557   5.845  10.423 -0.2092 -0.8811 -0.9734
 2110TIP3    H227746   1.536   5.887  10.279  0.6686  1.5967 -0.3968
 2111TIP3   OH227747   2.452   3.832  11.715 -0.2109 -0.3240 -0.3177
 2111TIP3    H127748   2.392   3.904  11.732 -1.9235 -2.0196  1.0718
 2111TIP3    H227749   2.523   3.844  11.778  0.0819  0.7496 -0.8424
 2112TIP3   OH227750   3.649   2.446  11.056  0.8896  0.9446 -0.5832
 2112TIP3    H127751   3.580   2.506  11.028  0.3351  0.1259 -0.9840
 2112TIP3    H227752   3.640   2.370  10.998  2.0541  0.7844 -0.5684
 2113TIP3   OH227753   4.047   2.579  12.313 -0.4416 -0.1423  0.3075
 2113TIP3    H127754   4.046   2.558  12.219  0.4298  0.5457  0.1434
 2113TIP3    H227755   4.044   2.494  12.356 -0.2669 -0.4849 -0.3485
 2114TIP3   OH227756   2.666   7.034  12.248 -0.0811 -0.0482  0.3517
 2114TIP3    H127757   2.735   7.098  12.227  1.3281 -1.0023  1.9040
 2114TIP3    H227758   2.669   6.971  12.176 -0.4027  0.7925 -0.3934
 2115TIP3   OH227759   5.041   3.074  11.653 -0.1251 -0.7212 -0.0432
 2115TIP3    H127760   4.950   3.077  11.685 -0.0503 -1.8172  0.2927
 2115TIP3    H227761   5.062   3.165  11.634 -1.5690 -0.5364 -0.8817
 2116TIP3   OH227762   2.143   3.336  10.648 -0.0742  0.9914 -0.2577
 2116TIP3    H127763   2.237   3.325  10.653 -0.2414  0.1274  1.3870
 2116TIP3    H227764   2.109   3.250  10.626 -0.4938  1.2481 -0.6268
 2117TIP3   OH227765   1.871   2.631  11.307  0.1411 -0.8119  0.0935
 2117TIP3    H127766   1.936   2.649  11.239 -1.2010  0.1983 -0.9657
 2117TIP3    H227767   1.821   2.556  11.273 -1.2084  0.3556 -0.5661
 2118TIP3   OH227768   3.016   2.966  12.655 -0.6221  0.0300  0.3546
 2118TIP3    H127769   2.960   2.962  12.577 -0.6042 -1.7764  0.3973
 2118TIP3    H227770   3.105   2.966  12.621 -0.5993 -1.6823  0.3752
 2119TIP3   OH227771   3.302   2.433  10.362  0.6141  0.3663  0.1065
 2119TIP3    H127772   3.358   2.511  10.368  0.2986  0.5552  0.6255
 2119TIP3    H227773   3.224   2.456  10.412  0.2970 -0.0947 -0.1761
 2120TIP3   OH227774   3.429   3.675  12.589  0.1558  0.1781  0.5403
 2120TIP3    H127775   3.494   3.675  12.518 -0.4373  0.2141 -0.0109
 2120TIP3    H227776   3.464   3.737  12.653  0.5197  0.4252  0.1115
 2121TIP3   OH227777   2.470   3.658  12.622  0.0766 -0.0976  0.2154
 2121TIP3    H127778   2.478   3.602  12.545  2.9401 -0.3536  0.6444
 2121TIP3    H227779   2.556   3.699  12.631 -0.8003  1.4005  2.1684
 2122TIP3   OH227780   2.806   3.651  11.670 -0.5047 -0.5406  0.4544
 2122TIP3    H127781   2.818   3.725  11.730  0.0215 -1.2731  1.2718
 2122TIP3    H227782   2.732   3.676  11.615 -0.3664  0.5670  0.7646
 2123TIP3   OH227783   1.360   3.964  11.109 -0.9832  0.1489  0.0117
 2123TIP3    H127784   1.423   3.898  11.082 -1.9067 -0.4619 -0.6861
 2123TIP3    H227785   1.280   3.942  11.061 -2.2647 -0.1427  2.1912
 2124TIP3   OH227786   1.119   3.416  10.963  0.4608  0.2472 -0.0577
 2124TIP3    H127787   1.032   3.458  10.966 -0.1673 -1.0638  0.4200
 2124TIP3    H227788   1.180   3.488  10.978 -0.6264  0.9125  1.3358
 2125TIP3   OH227789   2.775   6.566  10.649  0.0238 -0.3950 -0.5811
 2125TIP3    H127790   2.800   6.519  10.729 -0.2560 -3.6071 -2.2920
 2125TIP3    H227791   2.857   6.603  10.616  0.3880 -0.3406  0.3705
 2126TIP3   OH227792   2.516   4.927  10.601 -0.0836  0.1752 -0.3290
 2126TIP3    H127793   2.591   4.885  10.558  0.8892  1.3160  0.1932
 2126TIP3    H227794   2.473   4.857  10.649  2.0011 -0.1106  1.2179
 2127TIP3   OH227795   2.580   2.661  12.083  0.3322  0.1214 -0.4240
 2127TIP3    H127796   2.651   2.609  12.118  0.9594  0.5203 -1.0916
 2127TIP3    H227797   2.561   2.622  11.997 -1.9429 -1.5593  0.7933
 2128TIP3   OH227798   4.158   6.480  10.830 -0.6051  0.1010 -0.6235
 2128TIP3    H127799   4.165   6.447  10.919 -0.0830  0.5296 -0.5020
 2128TIP3    H227800   4.092   6.424  10.788 -0.5111 -0.3949 -0.1071
 2129TIP3   OH227801   3.976   6.089  12.752  0.1185 -0.0632  0.2381
 2129TIP3    H127802   3.883   6.070  12.743 -0.2078  1.8746 -0.7669
 2129TIP3    H227803   3.996   6.144  12.676  2.1762 -0.7601  0.2372
 2130TIP3   OH227804   6.074   5.714  11.348  0.3174 -0.0284 -0.0339
 2130TIP3    H127805   6.009   5.657  11.307  0.5915 -0.6461  0.3661
 2130TIP3    H227806   6.059   5.800  11.310 -0.3724 -0.2855 -0.3488
 2131TIP3   OH227807   2.177   3.009  10.830  0.0999 -0.1226 -0.1055
 2131TIP3    H127808   2.154   2.961  10.751 -0.4166 -1.2797  0.7331
 2131TIP3    H227809   2.097   3.057  10.853  0.5938  1.1063 -0.9026
 2132TIP3   OH227810   5.939   5.382  11.557 -0.0633  0.1489  0.4606
 2132TIP3    H127811   5.885   5.367  11.634 -0.1220  0.4874  0.4834
 2132TIP3    H227812   5.996   5.455  11.581  0.2670 -0.0749  0.3645
 2133TIP3   OH227813   2.554   1.508  13.234  0.1953  0.1614  0.0748
 2133TIP3    H127814   2.488   1.535  13.298 -0.4120  0.1684 -0.5527
 2133TIP3    H227815   2.516   1.532  13.149  0.9373  0.0277 -0.2980
 2134TIP3   OH227816   3.019   4.082   9.898  0.1367  0.6777  0.0862
 2134TIP3    H127817   3.003   4.176   9.906  0.5762  0.7383  0.2978
 2134TIP3    H227818   2.937   4.046   9.867  0.2041  1.2335 -0.7500
 2135TIP3   OH227819   0.438   6.612  14.473 -0.1188 -0.1914  0.0267
 2135TIP3    H127820   0.506   6.598  14.538  0.7730  0.8928 -0.6444
 2135TIP3    H227821   0.466   6.691  14.426 -1.5238 -0.0847 -0.6603
 2136TIP3   OH227822   2.649   5.157  10.698  0.2172 -0.2043 -0.2518
 2136TIP3    H127823   2.719   5.140  10.636 -1.3615  0.9252 -2.4285
 2136TIP3    H227824   2.611   5.071  10.716 -0.0147 -0.4272 -1.7367
 2137TIP3   OH227825   2.292   4.451  12.964 -0.3220 -0.2041  0.3255
 2137TIP3    H127826   2.292   4.369  12.914  0.8141  0.1608 -0.3071
 2137TIP3    H227827   2.384   4.476  12.968 -0.6577  1.0401  0.5186
 2138TIP3   OH227828   4.505   5.297  12.852 -0.0528 -0.5348 -0.3504
 2138TIP3    H127829   4.464   5.380  12.875  0.7047 -0.5520  1.1473
 2138TIP3    H227830   4.497   5.292  12.757  1.7279  2.2332 -0.7119
 2139TIP3   OH227831   3.669   2.724  10.592 -0.6498 -0.2693  0.0683
 2139TIP3    H127832   3.698   2.743  10.681 -1.1547  1.0398 -0.0260
 2139TIP3    H227833   3.644   2.632  10.593  1.3724 -0.8150  0.7152
 2140TIP3   OH227834   2.907   4.906  10.801  0.4026 -0.5484 -0.0760
 2140TIP3    H127835   2.858   4.946  10.729 -1.3106 -1.5162  0.5209
 2140TIP3    H227836   2.862   4.823  10.818  3.0393 -2.0775 -0.3481
 2141TIP3   OH227837   1.749   4.715  10.826  0.0066  0.3076 -0.1670
 2141TIP3    H127838   1.762   4.717  10.921 -1.4679 -0.8323  0.0819
 2141TIP3    H227839   1.672   4.659  10.813 -1.1332  2.2126 -1.9028
 2142TIP3   OH227840   2.478   5.528  10.645 -0.2561 -0.4153 -0.4778
 2142TIP3    H127841   2.467   5.547  10.552 -0.8934 -0.8956 -0.5004
 2142TIP3    H227842   2.462   5.434  10.653  1.0913 -0.6223 -0.0808
 2143TIP3   OH227843   2.555   3.687  13.363 -0.3225  0.5471 -0.0626
 2143TIP3    H127844   2.611   3.753  13.322 -1.5715  1.0829 -0.9466
 2143TIP3    H227845   2.518   3.731  13.440  1.8351 -0.3816  1.5372
 2144TIP3   OH227846   1.687   5.038  11.074 -0.6171 -0.0817  0.8625
 2144TIP3    H127847   1.729   4.979  11.138 -0.2014 -0.6308  0.0918
 2144TIP3    H227848   1.609   4.990  11.045  1.3292 -1.6461 -2.0432
 2145TIP3   OH227849   3.013   3.688  12.324  0.1054  0.1132 -0.3216
 2145TIP3    H127850   3.057   3.731  12.397  1.0958 -0.0111 -0.8410
 2145TIP3    H227851   2.923   3.722  12.327 -0.1406 -0.6622  1.5538
 2146TIP3   OH227852   1.490   4.608  10.907 -0.5291  0.0496  0.4391
 2146TIP3    H127853   1.440   4.543  10.955 -0.0051 -0.4552  0.3027
 2146TIP3    H227854   1.427   4.679  10.891 -0.5214  0.5711  2.5177
 2147TIP3   OH227855   3.145   4.849  10.964  0.0137 -0.3239  0.4923
 2147TIP3    H127856   3.058   4.856  10.923 -0.1864 -0.0092  0.9739
 2147TIP3    H227857   3.187   4.776  10.918  0.0077  0.4079 -0.6858
 2148TIP3   OH227858   2.923   4.004  10.512  0.2783  0.1891  0.6415
 2148TIP3    H127859   2.997   4.022  10.454  0.3814  0.1949  0.7732
 2148TIP3    H227860   2.847   3.997  10.454  0.5019 -0.5461  0.4353
 2149TIP3   OH227861   3.317   5.474   9.937  0.3439 -0.1069 -0.1360
 2149TIP3    H127862   3.368   5.399   9.968  0.7009  0.3201  0.3289
 2149TIP3    H227863   3.232   5.438   9.914  0.1746 -0.4841  1.0523
 2150TIP3   OH227864   6.591   3.755  10.324 -0.2615  0.3014 -0.2001
 2150TIP3    H127865   6.666   3.700  10.302 -0.2906  0.3069 -0.3134
 2150TIP3    H227866   6.552   3.713  10.401  0.2680  0.6970  0.2811
 2151TIP3   OH227867   1.888   6.795  11.599 -0.0082 -0.3397  0.1078
 2151TIP3    H127868   1.911   6.714  11.644  1.5219  1.3067  2.3541
 2151TIP3    H227869   1.969   6.824  11.557 -0.8744 -0.6354 -1.8674
 2152TIP3   OH227870   3.710   5.426  11.365  0.4024 -0.3032  0.7311
 2152TIP3    H127871   3.741   5.339  11.343  0.0233 -0.9414  2.6718
 2152TIP3    H227872   3.769   5.485  11.319  1.2206 -1.5641  0.1442
 2153TIP3   OH227873   5.628   6.965  12.539 -0.4704 -0.3504  0.1536
 2153TIP3    H127874   5.568   6.944  12.468 -0.6416  0.5228  0.0391
 2153TIP3    H227875   5.626   7.060  12.546 -0.7184 -0.4417  1.5566
 2154TIP3   OH227876   3.319   3.478  11.465  0.0799 -0.0203 -0.2233
 2154TIP3    H127877   3.277   3.560  11.438 -3.2204 -0.4181  3.2300
 2154TIP3    H227878   3.352   3.495  11.553  2.4006 -1.4470 -0.7622
 2155TIP3   OH227879   4.404   3.042  11.661  0.2525 -0.5504 -0.2185
 2155TIP3    H127880   4.436   2.992  11.736  0.3344 -0.7628 -0.3951
 2155TIP3    H227881   4.317   3.006  11.644  0.4406 -0.8545 -0.5475
 2156TIP3   OH227882   3.974   4.648  10.703  0.8128  0.4631  0.1860
 2156TIP3    H127883   4.039   4.578  10.705  0.5315  0.0522 -3.2779
 2156TIP3    H227884   4.026   4.728  10.701  1.1588  0.2420  0.2226
 2157TIP3   OH227885   3.326   5.847  11.118  0.0233  0.0427  0.0615
 2157TIP3    H127886   3.367   5.900  11.050 -1.8368 -0.1054 -1.2136
 2157TIP3    H227887   3.232   5.855  11.101 -0.3343 -2.9824  0.3426
 2158TIP3   OH227888   1.542   0.379  11.099 -0.2046 -0.5404  0.0798
 2158TIP3    H127889   1.546   0.302  11.043  0.2411 -0.2508 -0.2942
 2158TIP3    H227890   1.458   0.420  11.076 -1.4280 -2.0533  1.8144
 2159TIP3   OH227891   0.684   5.240  11.556 -0.2296 -0.1384 -0.0195
 2159TIP3    H127892   0.651   5.283  11.477 -2.2621  1.0276  1.4115
 2159TIP3    H227893   0.672   5.147  11.540  0.1668  0.0370 -1.4146
 2160TIP3   OH227894   2.441   5.933  10.695  0.1146  0.4618  0.4085
 2160TIP3    H127895   2.470   5.842  10.684 -1.2695  0.2690 -2.1317
 2160TIP3    H227896   2.393   5.933  10.777 -0.2201 -1.1988  0.2290
 2161TIP3   OH227897   1.594   6.411  11.367 -0.7076 -0.8236  0.0456
 2161TIP3    H127898   1.548   6.395  11.450  0.0036  0.4178  0.6915
 2161TIP3    H227899   1.638   6.494  11.380  0.1346 -1.0546 -1.2785
 2162TIP3   OH227900   1.819   6.168   9.949  0.3131  0.5865 -0.0924
 2162TIP3    H127901   1.873   6.236   9.910 -0.5974  0.0936 -2.2474
 2162TIP3    H227902   1.730   6.202   9.944 -0.0051 -0.2227 -0.0146
 2163TIP3   OH227903   1.171   4.124  11.312 -0.4569  0.5465 -0.1311
 2163TIP3    H127904   1.256   4.158  11.341  0.3475 -1.8005  0.4033
 2163TIP3    H227905   1.193   4.042  11.267 -2.5243 -0.4853  0.6926
 2164TIP3   OH227906   2.800   2.081  11.658  0.1752  0.3610  0.1706
 2164TIP3    H127907   2.837   2.141  11.723  0.4806 -0.1785  0.4931
 2164TIP3    H227908   2.823   2.120  11.573 -0.4717  1.2172  0.3818
 2165TIP3   OH227909   3.552   1.173  11.414 -0.0352 -0.1639  0.6309
 2165TIP3    H127910   3.534   1.143  11.324  1.1266 -0.7179  0.5690
 2165TIP3    H227911   3.515   1.261  11.418 -0.2271 -0.1934 -0.3559
 2166TIP3   OH227912   1.903   3.690  11.786  0.0693  0.6254  0.5124
 2166TIP3    H127913   1.845   3.632  11.835 -0.2839  0.1825 -0.4219
 2166TIP3    H227914   1.885   3.777  11.822  1.8585 -0.0311  3.1361
 2167TIP3   OH227915   3.786   4.217  11.495  0.2773 -0.5795  0.4472
 2167TIP3    H127916   3.813   4.202  11.404  0.4493 -1.7548  0.6815
 2167TIP3    H227917   3.850   4.280  11.529  0.4020 -0.3818 -0.1441
 2168TIP3   OH227918   2.367   4.276   9.842 -0.3642  0.1298 -0.0623
 2168TIP3    H127919   2.458   4.301   9.829 -0.5510  0.2959 -1.0416
 2168TIP3    H227920   2.317   4.331   9.781 -1.1503  0.2780  0.6962
 2169TIP3   OH227921   3.138   2.632  10.803 -0.3773 -0.4431 -0.0449
 2169TIP3    H127922   3.049   2.600  10.819 -1.0505  1.2888 -0.2957
 2169TIP3    H227923   3.127   2.720  10.768  1.4765  0.2994  1.1473
 2170TIP3   OH227924   4.933   3.827  12.478 -0.3704 -0.2782  0.2635
 2170TIP3    H127925   4.981   3.832  12.561  0.5247 -0.4048 -0.2462
 2170TIP3    H227926   4.978   3.759  12.428 -0.3953  0.3935 -0.6693
 2171TIP3   OH227927   3.400   6.731  10.520  0.4741  0.1406  0.4417
 2171TIP3    H127928   3.463   6.728  10.448  0.6511  1.6280  0.5294
 2171TIP3    H227929   3.322   6.772  10.483  0.8900  1.7496  1.3402
 2172TIP3   OH227930   2.344   3.977  12.265  0.3171  0.0723 -0.2447
 2172TIP3    H127931   2.424   4.027  12.279 -0.1524 -0.0559  3.1698
 2172TIP3    H227932   2.305   3.967  12.352 -2.7351 -1.0206 -1.6432
 2173TIP3   OH227933   2.659   2.429  11.040 -0.0599  0.4604  0.6594
 2173TIP3    H127934   2.640   2.379  10.960  0.7916  2.1909 -0.6638
 2173TIP3    H227935   2.655   2.521  11.012 -0.3848  1.1089  2.7648
 2174TIP3   OH227936   6.168   3.159  11.680  0.1993  0.2844  0.1982
 2174TIP3    H127937   6.083   3.134  11.643  0.3765  0.3658 -0.2718
 2174TIP3    H227938   6.152   3.164  11.774 -0.5315  1.1280  0.0379
 2175TIP3   OH227939   2.502   3.830  10.729  0.2213  0.1252  0.2792
 2175TIP3    H127940   2.514   3.756  10.668  2.9418  0.1731  0.7214
 2175TIP3    H227941   2.494   3.788  10.815  0.6578  0.2747  0.3944
 2176TIP3   OH227942   6.510   5.852  11.459 -0.0410 -0.5272 -0.4144
 2176TIP3    H127943   6.472   5.935  11.430  0.0917 -0.3013  0.0626
 2176TIP3    H227944   6.473   5.787  11.399  0.6804  0.0140 -1.4625
 2177TIP3   OH227945   3.789   2.214  11.882  0.1356  0.0300 -0.3688
 2177TIP3    H127946   3.806   2.204  11.789  1.6193 -1.0166 -0.0011
 2177TIP3    H227947   3.709   2.165  11.898 -0.5706  0.8957 -1.2376
 2178TIP3   OH227948   4.158   5.082  10.281 -0.4525 -0.0551  0.4980
 2178TIP3    H127949   4.190   5.009  10.228  0.2680 -0.0039  0.8498
 2178TIP3    H227950   4.112   5.042  10.354 -0.3008 -0.1531  0.5394
 2179TIP3   OH227951   4.758   3.709  11.124 -0.0045  0.3439  0.0591
 2179TIP3    H127952   4.852   3.715  11.141  0.0759 -2.0070  0.7143
 2179TIP3    H227953   4.752   3.689  11.031  0.2380 -0.9577  0.3090
 2180TIP3   OH227954   3.522   6.836  10.742 -0.1523  0.5479  0.7303
 2180TIP3    H127955   3.467   6.819  10.666  0.5229 -1.5479  0.6714
 2180TIP3    H227956   3.566   6.918  10.722 -1.6230  1.1266 -0.1773
 2181TIP3   OH227957   3.238   5.131   9.793 -0.1981 -1.0418  0.0968
 2181TIP3    H127958   3.296   5.164   9.862 -1.1111 -1.3538  1.0209
 2181TIP3    H227959   3.216   5.209   9.742  1.0176 -0.9157 -0.2586
 2182TIP3   OH227960   3.687   3.919  12.082  0.1656 -0.6967  0.3877
 2182TIP3    H127961   3.670   3.843  12.026  0.0055 -0.3484 -0.0343
 2182TIP3    H227962   3.769   3.956  12.049  0.1455 -0.5741  0.4746
 2183TIP3   OH227963   4.699   5.663  10.242  0.4508  0.4588 -0.5601
 2183TIP3    H127964   4.709   5.627  10.154  1.1806  2.0960 -1.1676
 2183TIP3    H227965   4.622   5.618  10.278 -0.0085 -0.0286 -2.1222
 2184TIP3   OH227966   6.324   6.926  11.581 -0.6717 -0.2833  0.1644
 2184TIP3    H127967   6.416   6.952  11.585 -0.4886 -1.0634  1.1393
 2184TIP3    H227968   6.286   6.959  11.662 -1.6360  1.4079 -0.9353
 2185TIP3   OH227969   0.790   3.835  14.218  0.0325 -0.6105 -0.2722
 2185TIP3    H127970   0.821   3.747  14.238  2.2925  0.2313  0.0038
 2185TIP3    H227971   0.700   3.837  14.251  0.5227 -2.2920  1.2056
 2186TIP3   OH227972   4.529   3.056  10.031 -0.1387  0.3206 -0.0847
 2186TIP3    H127973   4.596   3.009   9.981  0.6445 -0.1890  1.4099
 2186TIP3    H227974   4.468   3.089   9.964  1.5330  0.7073 -1.4723
 2187TIP3   OH227975   3.614   4.629  11.865 -0.4571  0.5495  0.4892
 2187TIP3    H127976   3.540   4.570  11.852 -0.5320  0.6963  0.2441
 2187TIP3    H227977   3.613   4.686  11.788  0.5691 -0.1442 -0.0450
 2188TIP3   OH227978   4.643   6.806  11.006  0.0081  0.5008 -0.2966
 2188TIP3    H127979   4.696   6.821  10.928 -0.2375  0.8959 -0.3853
 2188TIP3    H227980   4.559   6.775  10.973  0.8396 -2.0946 -0.0781
 2189TIP3   OH227981   2.311   2.238  12.293 -0.6454 -0.3570  0.1479
 2189TIP3    H127982   2.378   2.196  12.240 -0.7774 -1.3647  0.7724
 2189TIP3    H227983   2.229   2.221  12.247 -0.2635  2.8606 -1.8741
 2190TIP3   OH227984   3.120   4.224  11.035  0.5223 -0.6519 -0.4371
 2190TIP3    H127985   3.055   4.157  11.011  0.5859 -1.3477  1.2723
 2190TIP3    H227986   3.203   4.175  11.040  0.7966 -0.1842 -0.4343
 2191TIP3   OH227987   6.987   4.599  12.811 -0.1738 -0.1020  0.4663
 2191TIP3    H127988   6.908   4.626  12.766  0.1883  0.4312  0.1424
 2191TIP3    H227989   7.014   4.676  12.860 -0.4739 -0.6281  1.4694
 2192TIP3   OH227990   2.497   5.853  11.282 -0.1956  0.1177  0.1713
 2192TIP3    H127991   2.534   5.783  11.228 -1.7072 -0.6762  0.1402
 2192TIP3    H227992   2.419   5.813  11.322 -0.3488  1.3918  1.1607
 2193TIP3   OH227993   4.254   6.344  12.476 -0.0585  0.1221  0.2696
 2193TIP3    H127994   4.237   6.400  12.400  1.7737  1.2365  0.6666
 2193TIP3    H227995   4.168   6.309  12.499 -0.9467  1.3483 -1.0953
 2194TIP3   OH227996   4.609   3.513  10.481  0.0054 -0.0397 -0.3241
 2194TIP3    H127997   4.554   3.466  10.419 -1.4698  1.6365 -0.3481
 2194TIP3    H227998   4.650   3.582  10.429  0.4395  0.0445  0.1272
 2195TIP3   OH227999   3.512   6.539  12.775  0.0545 -0.2445  0.0436
 2195TIP3    H128000   3.484   6.580  12.857 -1.7123 -0.4646 -0.4303
 2195TIP3    H228001   3.459   6.459  12.768  0.9995 -0.8229 -0.7558
 2196TIP3   OH228002   2.807   5.037  11.927 -0.0765 -0.0378 -0.2097
 2196TIP3    H128003   2.792   5.058  11.835 -1.8646  1.3284  0.3578
 2196TIP3    H228004   2.800   4.942  11.932 -0.3093 -0.0886 -1.4271
 2197TIP3   OH228005   5.278   6.977  11.980  0.1907  0.6196  0.7428
 2197TIP3    H128006   5.297   6.894  12.023  0.0627  1.6442  2.8316
 2197TIP3    H228007   5.209   7.017  12.033  1.1640  2.6422  0.5401
 2198TIP3   OH228008   5.515   3.394  12.037  0.2837  0.1450 -0.1917
 2198TIP3    H128009   5.604   3.418  12.011  0.3223 -0.2952 -0.4604
 2198TIP3    H228010   5.509   3.300  12.019 -0.7105  0.4591 -1.5262
 2199TIP3   OH228011   6.213   1.468  10.772 -0.2187  0.2666  0.2118
 2199TIP3    H128012   6.221   1.563  10.757 -0.5399  0.2653  0.0144
 2199TIP3    H228013   6.232   1.429  10.687 -2.2829  0.2703 -0.2932
 2200TIP3   OH228014   0.981   3.823  11.812  0.6448 -0.3879  0.1352
 2200TIP3    H128015   1.040   3.899  11.816 -0.3981  0.5285 -1.4222
 2200TIP3    H228016   0.899   3.857  11.778  0.0223 -2.1532 -0.2115
 2201TIP3   OH228017   6.434   3.581  12.276 -0.3507 -0.0899 -0.3181
 2201TIP3    H128018   6.420   3.639  12.352 -1.7545 -0.5549 -0.2138
 2201TIP3    H228019   6.507   3.525  12.303 -0.3019  0.2880  0.3680
 2202TIP3   OH228020   4.008   4.143  10.144  0.0765  0.3303  0.1683
 2202TIP3    H128021   3.978   4.147  10.054  0.4131  1.5298  0.0993
 2202TIP3    H228022   4.010   4.050  10.165 -0.1583  0.0592 -1.0075
 2203TIP3   OH228023   6.539   5.743  12.225 -0.0628 -0.0026  0.1365
 2203TIP3    H128024   6.614   5.705  12.178  0.4743  1.1527  0.0469
 2203TIP3    H228025   6.561   5.836  12.234 -0.1677 -0.1723  2.6279
 2204TIP3   OH228026   7.199   4.484  12.635 -0.1477 -0.3787  0.5137
 2204TIP3    H128027   7.140   4.539  12.688  1.4750  1.0006  0.9559
 2204TIP3    H228028   7.167   4.494  12.546  0.6264  2.0628  0.4523
 2205TIP3   OH228029   3.407   3.174  10.768 -1.0836  0.1822 -0.3114
 2205TIP3    H128030   3.496   3.188  10.735 -1.1001 -1.7246 -1.2840
 2205TIP3    H228031   3.379   3.259  10.800  2.0750  0.2583  2.4982
 2206TIP3   OH228032   2.090   5.184  10.695 -0.3680 -0.0349 -0.5756
 2206TIP3    H128033   2.081   5.212  10.786  1.1851 -2.0219  0.2288
 2206TIP3    H228034   2.059   5.094  10.695  1.1215 -0.5658 -1.6819
 2207TIP3   OH228035   2.658   5.967  10.989  0.0737  0.4492 -0.3357
 2207TIP3    H128036   2.576   5.939  10.948 -0.0945 -1.5255  1.2538
 2207TIP3    H228037   2.692   5.888  11.031  1.5827  1.7904  1.0494
 2208TIP3   OH228038   3.758   4.951  13.448  0.4825 -0.0493 -0.0621
 2208TIP3    H128039   3.850   4.974  13.462  0.5618 -0.4418  0.0587
 2208TIP3    H228040   3.710   5.028  13.478  0.7980  0.3967 -0.6908
 2209TIP3   OH228041   2.317   3.548  10.324 -0.6836  0.1849  0.3504
 2209TIP3    H128042   2.305   3.584  10.236 -2.0400 -0.1510  0.3921
 2209TIP3    H228043   2.389   3.486  10.315 -1.7871 -0.9377 -0.8411
 2210TIP3   OH228044   4.833   4.685  12.600  0.2401 -0.0327 -0.1724
 2210TIP3    H128045   4.775   4.654  12.531  2.8299  0.4152 -2.6117
 2210TIP3    H228046   4.859   4.773  12.573  1.1726  0.2198  1.4444
 2211TIP3   OH228047   4.126   4.697  12.033  0.7213  0.4120  0.6009
 2211TIP3    H128048   4.155   4.755  12.102 -1.0715  0.0617  1.6728
 2211TIP3    H228049   4.031   4.712  12.026  0.4374 -1.4250  0.0447
 2212TIP3   OH228050   4.880   3.787  10.425 -0.0139 -0.2704 -0.2406
 2212TIP3    H128051   4.893   3.876  10.458  0.0175  0.0101 -0.9808
 2212TIP3    H228052   4.909   3.730  10.495 -0.5246  0.3018  0.4482
 2213TIP3   OH228053   3.142   5.837  11.677 -0.5317  0.3296 -0.1157
 2213TIP3    H128054   3.216   5.782  11.653 -0.4958  0.3249  0.0103
 2213TIP3    H228055   3.165   5.874  11.762 -0.4275  0.7710 -0.3374
 2214TIP3   OH228056   4.862   2.095  12.199  0.0185  0.3321 -0.0040
 2214TIP3    H128057   4.797   2.048  12.250  0.5580 -0.8131 -0.3638
 2214TIP3    H228058   4.945   2.079  12.245  0.4423 -0.3585 -0.9956
 2215TIP3   OH228059   2.107   5.479  11.002 -0.6732  0.0818 -0.1688
 2215TIP3    H128060   2.036   5.540  11.023 -0.7087 -0.2921  0.8561
 2215TIP3    H228061   2.169   5.530  10.951 -0.7482  0.9487  0.5985
 2216TIP3   OH228062   4.324   3.048  12.817  0.0607  0.4150 -0.2103
 2216TIP3    H128063   4.292   2.980  12.876  1.0575 -1.0745 -1.3540
 2216TIP3    H228064   4.334   3.004  12.733  0.7390  1.9840 -0.9697
 2217TIP3   OH228065   3.342   6.741  11.377  0.1124  0.0816  0.1880
 2217TIP3    H128066   3.431   6.706  11.368 -0.7436 -2.3015  0.7824
 2217TIP3    H228067   3.335   6.806  11.308  1.4084 -1.6498 -1.6236
 2218TIP3   OH228068   3.740   0.336  11.533  0.4003 -0.0044 -0.1192
 2218TIP3    H128069   3.759   0.242  11.527 -0.5921 -0.1892 -0.3919
 2218TIP3    H228070   3.749   0.368  11.444  2.5423  0.5292  0.2502
 2219TIP3   OH228071   3.895   5.079  11.155 -0.4359  0.8020  0.5471
 2219TIP3    H128072   3.799   5.081  11.163 -0.6742  1.1306 -2.0403
 2219TIP3    H228073   3.917   5.165  11.117  0.6792 -0.0689 -0.8062
 2220TIP3   OH228074   4.837   5.596   9.396  0.1374  0.3080  0.4861
 2220TIP3    H128075   4.896   5.554   9.334  1.1072  1.6887  0.4509
 2220TIP3    H228076   4.750   5.584   9.359  0.3688 -1.9237  0.6390
 2221TIP3   OH228077   3.867   6.220  11.000 -0.3056 -0.0675 -0.2027
 2221TIP3    H128078   3.939   6.281  10.985 -1.0831  1.4409  1.9048
 2221TIP3    H228079   3.909   6.138  11.024  0.7658  0.8718  1.2697
 2222TIP3   OH228080   6.177   5.260  10.290  0.2165 -0.3634 -0.2441
 2222TIP3    H128081   6.239   5.330  10.269 -0.7289  0.3401 -0.7192
 2222TIP3    H228082   6.170   5.209  10.209 -0.3875 -0.0091 -0.4126
 2223TIP3   OH228083   4.950   5.482  10.271 -0.3947 -0.3334  0.0759
 2223TIP3    H128084   4.884   5.504  10.337  1.1291 -4.5278  3.2225
 2223TIP3    H228085   4.911   5.409  10.223  0.6094 -0.6662 -0.2382
 2224TIP3   OH228086   4.034   7.102  11.702 -0.2255  0.1735 -0.4667
 2224TIP3    H128087   4.113   7.085  11.753 -1.0885 -0.0412  0.8061
 2224TIP3    H228088   4.003   7.016  11.675  0.9893  0.3555 -2.5480
 2225TIP3   OH228089   5.596   3.051   9.985  0.1945 -0.1279  0.2739
 2225TIP3    H128090   5.666   3.034   9.922  0.0455  0.0575  0.0581
 2225TIP3    H228091   5.550   2.968   9.994 -0.8790  0.3071 -1.1962
 2226TIP3   OH228092   4.444   3.786  12.179 -0.3706  0.3017 -0.5508
 2226TIP3    H128093   4.456   3.881  12.170 -1.1458  0.4097 -0.4354
 2226TIP3    H228094   4.406   3.759  12.095 -0.2674  0.1063 -0.5342
 2227TIP3   OH228095   5.894   5.930  11.799  0.6325 -0.4173  0.2022
 2227TIP3    H128096   5.924   6.008  11.752  0.7305 -0.5096  0.1111
 2227TIP3    H228097   5.966   5.868  11.791  0.9562 -0.1651  1.1098
 2228TIP3   OH228098   3.791   4.428   9.813 -0.0877 -0.0918  0.2653
 2228TIP3    H128099   3.763   4.520   9.810 -0.5663 -0.2739 -1.2795
 2228TIP3    H228100   3.869   4.424   9.758 -0.7417 -0.8311 -0.6203
 2229TIP3   OH228101   4.073   6.266  12.939  0.1561 -0.3871  0.2437
 2229TIP3    H128102   4.168   6.267  12.949  0.3378  3.5367 -0.9357
 2229TIP3    H228103   4.057   6.214  12.860  1.2199 -1.7899  0.9351
 2230TIP3   OH228104   3.101   6.582  11.206 -0.0769 -0.3445 -0.3208
 2230TIP3    H128105   3.105   6.512  11.272  1.4146  1.2141  1.2854
 2230TIP3    H228106   3.172   6.563  11.145  0.1070 -0.4293 -0.0789
 2231TIP3   OH228107   1.887   5.266  11.653 -0.2697 -0.0407 -0.0591
 2231TIP3    H128108   1.927   5.197  11.705 -0.0784  0.1032 -0.0142
 2231TIP3    H228109   1.810   5.293  11.704 -0.4607 -0.3596 -0.1757
 2232TIP3   OH228110   5.283   5.299  10.449  0.6124  0.3012 -0.4279
 2232TIP3    H128111   5.276   5.379  10.397  1.1293 -0.3162 -1.4805
 2232TIP3    H228112   5.215   5.242  10.415  0.9655 -0.1177 -0.4334
 2233TIP3   OH228113   2.015   3.382  13.338 -0.3505 -0.2111  0.5822
 2233TIP3    H128114   1.959   3.457  13.320  1.7367  0.9468 -1.3279
 2233TIP3    H228115   2.073   3.412  13.408  1.3266  0.4747 -1.0409
 2234TIP3   OH228116   3.817   3.620  10.307 -0.3578 -0.0861 -0.3711
 2234TIP3    H128117   3.882   3.550  10.299  0.5019  0.7650 -0.9505
 2234TIP3    H228118   3.752   3.600  10.239  0.2275  0.0394 -0.9700
 2235TIP3   OH228119   5.214   5.476  10.273 -0.3202 -0.2214  0.3669
 2235TIP3    H128120   5.223   5.469  10.178 -1.0529  1.7509  0.1221
 2235TIP3    H228121   5.120   5.465  10.289 -0.0199 -2.0245  1.0371
 2236TIP3   OH228122   5.387   4.585  14.598 -0.0616  0.4840  1.4320
 2236TIP3    H128123   5.469   4.590  14.649  0.9915 -1.6587  0.0340
 2236TIP3    H228124   5.327   4.538  14.656  0.6623 -0.6117  1.3230
 2237TIP3   OH228125   3.466   2.022  10.696 -0.0385 -0.1940  0.7414
 2237TIP3    H128126   3.514   1.966  10.756  0.8937 -0.8140 -0.5459
 2237TIP3    H228127   3.377   1.988  10.697  0.0554 -0.4081  1.5188
 2238TIP3   OH228128   4.403   5.043   9.735  0.1844 -0.3642  0.5042
 2238TIP3    H128129   4.394   5.068   9.643 -1.2436 -0.6215  0.5637
 2238TIP3    H228130   4.456   4.963   9.733 -0.7209 -0.9473 -0.1759
 2239TIP3   OH228131   0.314   2.677  10.481  0.7756 -0.1673 -0.0352
 2239TIP3    H128132   0.282   2.602  10.432  0.7628 -0.6530  0.7038
 2239TIP3    H228133   0.390   2.707  10.431 -0.5625  0.7510 -1.5718
 2240TIP3   OH228134   6.183   6.711  11.805 -0.2348 -0.4399 -0.6685
 2240TIP3    H128135   6.237   6.684  11.731  0.7069  1.4014 -0.6823
 2240TIP3    H228136   6.093   6.694  11.777  0.1290  0.0411 -2.1634
 2241TIP3   OH228137   3.202   4.915  11.887 -0.0753 -0.2583  0.4868
 2241TIP3    H128138   3.166   4.891  11.802  1.2168 -1.2669  0.1976
 2241TIP3    H228139   3.288   4.952  11.867  0.0836 -0.1594  1.3286
 2242TIP3   OH228140   6.580   2.380  10.961 -0.1517  0.1843  0.0785
 2242TIP3    H128141   6.587   2.468  10.998 -0.6630 -0.8527  2.7232
 2242TIP3    H228142   6.523   2.332  11.022 -1.2136 -1.5373 -2.1671
 2243TIP3   OH228143   4.520   3.379  10.009 -0.5886 -0.2763  0.1432
 2243TIP3    H128144   4.462   3.390   9.934  0.1712  0.6041 -0.3075
 2243TIP3    H228145   4.566   3.297   9.992  2.3049  1.7686 -2.1802
 2244TIP3   OH228146   4.348   2.209  10.562  0.6064  0.9249 -0.3568
 2244TIP3    H128147   4.381   2.136  10.509 -1.9480 -1.7058  1.4895
 2244TIP3    H228148   4.412   2.218  10.633  0.8851  0.3728 -0.5332
 2245TIP3   OH228149   6.113   5.598  11.572  0.0726 -0.4390 -0.3563
 2245TIP3    H128150   6.121   5.662  11.644 -0.0600 -0.4694 -0.3141
 2245TIP3    H228151   6.115   5.652  11.493 -0.9713 -0.2968 -0.2915
 2246TIP3   OH228152   4.343   4.307  10.528  0.2070  0.4086  0.0207
 2246TIP3    H128153   4.347   4.382  10.469  1.0122 -1.6019 -2.6117
 2246TIP3    H228154   4.259   4.266  10.508 -0.8867  1.3649  2.4798
 2247TIP3   OH228155   3.988   5.328  12.864 -0.2889  0.1557  0.0972
 2247TIP3    H128156   4.049   5.373  12.923 -0.5430  0.8602 -0.1684
 2247TIP3    H228157   4.044   5.275  12.808  0.2426  2.0347 -1.2113
 2248TIP3   OH228158   4.757   3.730  10.861  0.1445 -0.2094 -0.4119
 2248TIP3    H128159   4.736   3.639  10.840  0.5222 -0.3077 -0.3728
 2248TIP3    H228160   4.852   3.736  10.849  0.1099  0.1983 -0.4871
 2249TIP3   OH228161   2.302   3.681  11.311 -0.5071  0.0058  0.8906
 2249TIP3    H128162   2.242   3.699  11.238  1.1902  1.1141 -0.2640
 2249TIP3    H228163   2.302   3.762  11.362  0.3989  0.1982  0.5911
 2250TIP3   OH228164   4.415   5.549  12.342 -0.0557  0.0256 -0.3419
 2250TIP3    H128165   4.477   5.549  12.415 -0.0515 -1.2089 -0.3392
 2250TIP3    H228166   4.334   5.514  12.379 -0.8120  1.7851 -0.3024
 2251TIP3   OH228167   3.946   1.975  11.283  0.0801 -0.0427  0.2527
 2251TIP3    H128168   3.998   1.927  11.218  0.3106  0.3419  0.1457
 2251TIP3    H228169   4.008   1.994  11.353 -0.2758 -0.8237  0.7799
 2252TIP3   OH228170   3.980   4.654  11.480 -0.3177  0.3947 -0.0398
 2252TIP3    H128171   4.043   4.584  11.495  0.2772  0.8558 -0.3848
 2252TIP3    H228172   3.991   4.678  11.388 -0.0586  1.3838  0.2418
 2253TIP3   OH228173   5.641   5.921   9.502  0.0445  0.4116 -0.1138
 2253TIP3    H128174   5.600   5.847   9.547  1.4755 -1.0413 -1.1307
 2253TIP3    H228175   5.726   5.931   9.545  0.6544  0.2083 -1.2407
 2254TIP3   OH228176   5.003   5.280  10.059 -0.2416  1.0012 -0.2275
 2254TIP3    H128177   5.051   5.220  10.116 -0.9513  0.1621 -0.5041
 2254TIP3    H228178   5.070   5.340  10.026  0.1272  1.7509  1.7814
 2255TIP3   OH228179   4.175   5.298   9.932 -0.3366  0.2102 -0.4378
 2255TIP3    H128180   4.192   5.367   9.996 -0.5650  1.3522 -1.5946
 2255TIP3    H228181   4.088   5.265   9.955 -0.3690  0.5413 -0.0822
 2256TIP3   OH228182   6.950   4.430  10.228  0.4158  0.1720  0.4300
 2256TIP3    H128183   6.946   4.522  10.204 -2.0624  0.0392  0.1519
 2256TIP3    H228184   6.954   4.384  10.144 -0.5578 -0.0161  0.4699
 2257TIP3   OH228185   2.014   4.084  12.711 -0.4169 -0.2856 -0.3500
 2257TIP3    H128186   2.009   4.067  12.617 -1.2470  0.7018 -0.5006
 2257TIP3    H228187   1.931   4.127  12.731 -0.4028 -0.8249  0.9072
 2258TIP3   OH228188   2.978   6.887  10.976  0.4537  0.9057 -0.1321
 2258TIP3    H128189   3.069   6.903  11.003  0.3408 -0.7395  1.3272
 2258TIP3    H228190   2.985   6.821  10.908  0.3386  0.5349  0.2141
 2259TIP3   OH228191   4.668   4.706  10.107  0.0276  0.2825 -0.0730
 2259TIP3    H128192   4.671   4.794  10.070 -0.2588 -0.3729 -1.7485
 2259TIP3    H228193   4.578   4.676  10.090 -0.1878  0.0569  1.4263
 2260TIP3   OH228194   4.293   5.323  10.268 -0.1473 -0.0884  0.3270
 2260TIP3    H128195   4.226   5.258  10.288  0.3209 -1.1787 -1.5168
 2260TIP3    H228196   4.245   5.398  10.234 -0.3711 -1.3944 -2.3223
 2261TIP3   OH228197   4.241   4.265  11.822  0.1041  0.0511 -0.3842
 2261TIP3    H128198   4.207   4.345  11.861 -0.6885 -0.2656 -0.4317
 2261TIP3    H228199   4.165   4.208  11.812  0.9413 -1.4608  1.4544
 2262TIP3   OH228200   5.249   6.314  11.782  0.4343  0.1982 -0.8142
 2262TIP3    H128201   5.168   6.317  11.833  1.0022 -1.3842  0.2256
 2262TIP3    H228202   5.275   6.406  11.773  0.4678  0.4961  2.0182
 2263TIP3   OH228203   2.636   4.549  11.997  0.0548 -0.3498  0.2758
 2263TIP3    H128204   2.690   4.475  11.971 -0.3284 -0.1767 -1.0942
 2263TIP3    H228205   2.556   4.540  11.944 -0.6644  0.1552  1.2542
 2264TIP3   OH228206   5.477   3.373   9.949 -0.0807 -0.1280 -0.6993
 2264TIP3    H128207   5.382   3.360   9.944  0.1466 -2.3878  0.4027
 2264TIP3    H228208   5.492   3.400  10.039  0.4131 -0.6794 -0.6136
 2265TIP3   OH228209   5.241   4.373  12.088 -0.2119  0.1876  0.0564
 2265TIP3    H128210   5.179   4.301  12.075  0.2268 -0.1599 -0.1454
 2265TIP3    H228211   5.310   4.357  12.023  1.3593 -0.8486  1.9105
 2266TIP3   OH228212   5.688   5.442  12.262  0.3649  0.4781 -0.5078
 2266TIP3    H128213   5.749   5.494  12.210  0.2492  0.1902 -0.9340
 2266TIP3    H228214   5.693   5.480  12.350  0.8378  0.7297 -0.6401
 2267TIP3   OH228215   3.516   5.262  10.957 -0.3984  0.0165 -0.2910
 2267TIP3    H128216   3.544   5.352  10.939  0.8779 -0.4999 -1.0312
 2267TIP3    H228217   3.421   5.264  10.945 -0.3270  1.1498 -0.8394
 2268TIP3   OH228218   5.592   3.788  11.100  0.4865  0.2607 -0.3437
 2268TIP3    H128219   5.569   3.869  11.054 -1.3230  0.7726  1.4197
 2268TIP3    H228220   5.683   3.801  11.126 -0.2553  2.4444  1.3453
 2269TIP3   OH228221   3.935   5.342  11.077  0.5127  0.2376  0.0203
 2269TIP3    H128222   3.953   5.403  11.006  0.9972  0.0571 -0.0134
 2269TIP3    H228223   3.962   5.388  11.156 -0.4014  0.5946  0.1322
 2270TIP3   OH228224   4.892   4.955  10.415 -0.2385  0.2484  0.1042
 2270TIP3    H128225   4.890   4.973  10.321  1.8331 -1.1924 -0.2488
 2270TIP3    H228226   4.824   4.888  10.429 -1.1240  1.0713 -0.2044
 2271TIP3   OH228227   5.813   5.402  10.384  0.0191  0.4466 -0.5422
 2271TIP3    H128228   5.887   5.372  10.437  1.5060  0.6953 -2.4086
 2271TIP3    H228229   5.808   5.339  10.312 -2.7465 -0.5952  0.5131
 2272TIP3   OH228230   6.143   5.450  11.161 -0.0454 -0.1159 -0.1950
 2272TIP3    H128231   6.219   5.423  11.110 -1.6198  1.3525 -3.4839
 2272TIP3    H228232   6.080   5.379  11.149 -0.5754  0.4257 -0.6831
 2273TIP3   OH228233   4.580   5.867  10.898 -0.2236  0.3570 -0.1612
 2273TIP3    H128234   4.543   5.830  10.978  1.0458  0.4421  0.4712
 2273TIP3    H228235   4.627   5.795  10.857  0.5575  0.7509  0.0398
 2274TIP3   OH228236   4.386   2.986  11.952  0.3440 -0.6157  0.3749
 2274TIP3    H128237   4.410   2.900  11.986  0.4514 -0.6713  0.1617
 2274TIP3    H228238   4.295   2.999  11.980  0.2373 -0.9192  0.1688
 2275TIP3   OH228239   3.403   6.589  11.106  0.4890 -0.3909 -0.5976
 2275TIP3    H128240   3.466   6.659  11.092  0.7036 -0.2533  0.9353
 2275TIP3    H228241   3.377   6.562  11.018 -0.9555  2.8102 -1.2106
 2276TIP3   OH228242   3.329   3.919  12.327  0.1055  0.0772  0.4337
 2276TIP3    H128243   3.419   3.902  12.355  0.3143  0.6823  0.1297
 2276TIP3    H228244   3.322   4.014  12.323 -0.8231  0.0576  1.3387
 2277TIP3   OH228245   3.468   0.572  12.736 -0.1693 -0.7275  0.7659
 2277TIP3    H128246   3.478   0.628  12.658 -0.8142 -1.6653  0.0002
 2277TIP3    H228247   3.553   0.577  12.779  0.1199 -0.0001  0.1376
 2278TIP3   OH228248   4.067   6.055  10.484 -0.6064 -0.6942  0.0357
 2278TIP3    H128249   4.138   6.050  10.548 -0.3053 -0.6772 -0.2987
 2278TIP3    H228250   4.110   6.056  10.399 -1.0228 -1.0704 -0.1845
 2279TIP3   OH228251   5.247   4.558  10.023  0.9517 -0.8436 -0.5159
 2279TIP3    H128252   5.155   4.559   9.999  1.0232  0.9640 -0.7571
 2279TIP3    H228253   5.260   4.472  10.064 -0.5176 -1.6189 -1.6405
 2280TIP3   OH228254   3.191   5.661  12.076  0.3609  0.2115  0.0585
 2280TIP3    H128255   3.097   5.646  12.070  0.2541  0.6780  0.4980
 2280TIP3    H228256   3.203   5.750  12.045  0.2117  1.4030  3.2331
 2281TIP3   OH228257   3.697   3.658  11.993 -0.1948 -0.7182 -0.3002
 2281TIP3    H128258   3.668   3.632  12.081  0.3701  1.1100  0.4464
 2281TIP3    H228259   3.783   3.617  11.983  1.3438  1.9242  1.4482
 2282TIP3   OH228260   4.727   3.444  11.639  0.5786 -0.1863 -0.2190
 2282TIP3    H128261   4.712   3.468  11.731  0.1960 -0.1247 -0.2969
 2282TIP3    H228262   4.658   3.380  11.620  0.1093  0.4655 -0.7222
 2283TIP3   OH228263   2.779   3.953  10.750 -0.3878  0.5178 -0.5660
 2283TIP3    H128264   2.691   3.915  10.743 -0.6290  0.9308  0.1647
 2283TIP3    H228265   2.802   3.974  10.660 -0.8332 -0.0500 -0.8214
 2284TIP3   OH228266   4.542   3.272  11.567 -0.3174 -0.0891  0.3756
 2284TIP3    H128267   4.483   3.197  11.570 -0.9098  0.2687 -1.7402
 2284TIP3    H228268   4.516   3.320  11.489  1.6619  0.9989  0.3524
 2285TIP3   OH228269   0.798   4.672  11.826 -0.3211 -0.0964  0.0515
 2285TIP3    H128270   0.822   4.724  11.749  0.6517  1.5101  1.4260
 2285TIP3    H228271   0.821   4.582  11.801 -0.6876  0.2905 -1.7971
 2286TIP3   OH228272   6.610   3.590  14.555 -0.0073 -0.0756 -0.0559
 2286TIP3    H128273   6.544   3.655  14.531 -0.5190  0.0282  1.5521
 2286TIP3    H228274   6.632   3.547  14.473 -1.7414  0.2043 -0.6980
 2287TIP3   OH228275   3.053   6.761  12.729  0.1204  0.1499  0.1432
 2287TIP3    H128276   3.020   6.805  12.650 -0.2006  0.3872  0.4033
 2287TIP3    H228277   3.095   6.681  12.697  0.6797  0.6309 -0.3327
 2288TIP3   OH228278   2.072   3.129  12.391 -0.2451  0.4395 -0.3131
 2288TIP3    H128279   2.159   3.117  12.351  1.8215  1.6292  3.5931
 2288TIP3    H228280   2.043   3.040  12.410  0.9896  0.0996  0.0681
 2289TIP3   OH228281   5.403   3.670  10.315  0.3765 -0.2043 -0.2608
 2289TIP3    H128282   5.313   3.641  10.328 -0.0908  1.0678 -0.5722
 2289TIP3    H228283   5.439   3.609  10.251 -0.4737 -0.3206 -0.6303
 2290TIP3   OH228284   3.572   3.566  10.800  0.3274  0.0865 -0.1469
 2290TIP3    H128285   3.609   3.584  10.887  0.3495 -2.1393  0.3277
 2290TIP3    H228286   3.638   3.598  10.739  1.6197 -0.9572  0.6830
 2291TIP3   OH228287   2.445   2.397  12.720 -0.4317  0.0008 -0.1834
 2291TIP3    H128288   2.377   2.422  12.783 -0.7358 -1.9023  0.2789
 2291TIP3    H228289   2.408   2.324  12.672  0.9073 -0.4165 -0.6060
 2292TIP3   OH228290   3.149   3.716  11.448  0.2868 -0.8106 -0.5206
 2292TIP3    H128291   3.149   3.811  11.435 -0.2361 -0.5376  1.3270
 2292TIP3    H228292   3.059   3.689  11.432  0.1214 -0.7790  0.3107
 2293TIP3   OH228293   5.395   5.113  10.163  0.3688  0.1761  0.8202
 2293TIP3    H128294   5.305   5.144  10.157  0.2499 -0.0317  1.5370
 2293TIP3    H228295   5.388   5.018  10.153  0.2184 -0.1301  3.6873
 2294TIP3   OH228296   6.017   3.040  13.277  0.2387 -0.4103  0.1532
 2294TIP3    H128297   6.097   3.027  13.227  0.1158 -2.5938  0.4625
 2294TIP3    H228298   6.025   3.128  13.313  2.0202 -0.2154 -0.6649
 2295TIP3   OH228299   6.502   3.903  13.336 -0.4130  0.5435  0.9905
 2295TIP3    H128300   6.426   3.906  13.278 -1.4616 -0.5776  2.2697
 2295TIP3    H228301   6.468   3.926  13.422  0.6064 -0.3822  1.6587
 2296TIP3   OH228302   4.029   2.298  12.435  0.3717 -0.0228  0.4275
 2296TIP3    H128303   3.968   2.331  12.501  0.2521 -0.0025  0.3068
 2296TIP3    H228304   4.011   2.204  12.431 -0.0475  0.0809 -0.0238
 2297TIP3   OH228305   3.605   3.748  13.394 -0.0891  0.6313  0.3234
 2297TIP3    H128306   3.693   3.752  13.357 -1.4708  0.4699 -3.1927
 2297TIP3    H228307   3.584   3.655  13.396 -0.4187  0.7111  0.5879
 2298TIP3   OH228308   2.442   3.428  13.116 -0.1978 -0.2263  0.1146
 2298TIP3    H128309   2.493   3.426  13.197 -2.6539 -0.3110  1.7133
 2298TIP3    H228310   2.495   3.481  13.056  1.9413 -0.6695  1.5616
 2299TIP3   OH228311   4.379   5.505  12.077 -0.2235  0.2702 -0.3148
 2299TIP3    H128312   4.387   5.523  12.171 -0.7358 -2.5292  0.3104
 2299TIP3    H228313   4.327   5.578  12.043 -1.1986  0.6040  1.8335
 2300TIP3   OH228314   4.014   2.375  11.833 -0.1456 -0.9953 -0.0714
 2300TIP3    H128315   3.954   2.421  11.774 -1.2249 -1.1720  0.8565
 2300TIP3    H228316   3.958   2.312  11.879  0.7300 -1.0747  0.9107
 2301TIP3   OH228317   5.485   4.698  11.741  0.5790  0.3544  0.5002
 2301TIP3    H128318   5.576   4.718  11.761  0.9990 -0.3070 -0.6729
 2301TIP3    H228319   5.489   4.655  11.655 -0.5710 -2.0122  1.5825
 2302TIP3   OH228320   4.251   5.308  10.562  0.5303  0.1441  1.0919
 2302TIP3    H128321   4.337   5.275  10.586  0.4914 -0.4311  0.4717
 2302TIP3    H228322   4.263   5.345  10.474  0.2371  0.4315  1.1696
 2303TIP3   OH228323   5.592   4.282  10.642 -0.2310  0.8899  0.0088
 2303TIP3    H128324   5.507   4.269  10.600 -1.0568  3.1932  0.8883
 2303TIP3    H228325   5.572   4.296  10.734  1.3093 -0.8083  0.6372
 2304TIP3   OH228326   5.659   6.129  10.300  0.1979 -0.3475 -0.4965
 2304TIP3    H128327   5.612   6.046  10.303 -1.9290  0.8664  0.7901
 2304TIP3    H228328   5.592   6.194  10.281  1.8406  1.0951 -1.5015
 2305TIP3   OH228329   4.582   4.868  10.337  0.2445 -0.1171  0.2867
 2305TIP3    H128330   4.593   4.780  10.302  2.1528  0.6176 -1.0761
 2305TIP3    H228331   4.632   4.924  10.277 -1.5951  1.9942  0.6768
 2306TIP3   OH228332   5.423   4.753  10.054 -0.0203 -0.3656 -0.1759
 2306TIP3    H128333   5.348   4.693  10.056  0.1104 -0.5357 -0.4417
 2306TIP3    H228334   5.425   4.786   9.964  0.7940 -1.0840 -0.4290
 2307TIP3   OH228335   0.232   5.170  11.584 -0.5148 -0.3333  0.1301
 2307TIP3    H128336   0.192   5.248  11.622 -1.5094 -0.6703 -0.2078
 2307TIP3    H228337   0.318   5.165  11.626  0.5574  2.3116 -1.6462
 2308TIP3   OH228338   4.878   3.651  10.157 -0.1181  0.3412  0.2880
 2308TIP3    H128339   4.867   3.709  10.233 -0.4865  2.8689 -1.6308
 2308TIP3    H228340   4.961   3.678  10.118 -0.2284 -0.5298 -0.5643
 2309TIP3   OH228341   0.600   3.908  10.990  0.5088  0.6131 -0.0570
 2309TIP3    H128342   0.613   3.901  10.895  0.2303  2.2032 -0.2376
 2309TIP3    H228343   0.609   3.819  11.023  0.3639  0.0097 -1.6176
 2310TIP3   OH228344   6.931   4.942  11.014 -0.5906 -0.2928 -0.3796
 2310TIP3    H128345   6.854   4.888  10.998 -0.8889 -0.0000  0.0667
 2310TIP3    H228346   6.898   5.032  11.017 -0.4323 -0.2626  1.0707
 2311TIP3   OH228347   6.244   4.613  10.086 -0.1803  0.1613 -0.5669
 2311TIP3    H128348   6.175   4.609  10.020 -0.2130  1.5058 -0.6311
 2311TIP3    H228349   6.206   4.571  10.163 -1.7624  2.4859 -0.0214
 2312TIP3   OH228350   5.876   5.814  10.626 -0.6786 -0.4181  0.1564
 2312TIP3    H128351   5.919   5.899  10.639 -1.7477  0.1745 -0.0894
 2312TIP3    H228352   5.933   5.751  10.669 -0.6089  0.6166  1.6121
 2313TIP3   OH228353   5.933   3.791  10.364  0.4302  0.6651 -0.1816
 2313TIP3    H128354   5.899   3.875  10.333 -0.2080  0.4169 -0.1604
 2313TIP3    H228355   5.952   3.741  10.285  0.5333  0.7189 -0.1909
 2314TIP3   OH228356   2.942   4.087  12.231 -0.0043  1.1827  0.2676
 2314TIP3    H128357   2.968   4.115  12.318  1.5883  1.9012 -0.3998
 2314TIP3    H228358   3.017   4.110  12.175 -1.4771  1.8582 -1.4976
 2315TIP3   OH228359   3.378   4.160  11.067  0.2986  0.3531  0.1630
 2315TIP3    H128360   3.449   4.204  11.021  0.9003  0.3713  1.0966
 2315TIP3    H228361   3.418   4.081  11.103 -0.2409  0.1788  0.3872
 2316TIP3   OH228362   5.794   1.850  11.549 -0.2753 -0.1514 -0.4949
 2316TIP3    H128363   5.727   1.912  11.577  0.2955  0.8041 -1.2423
 2316TIP3    H228364   5.745   1.775  11.516 -0.9860  0.7507 -1.5058
 2317TIP3   OH228365   4.982   3.328  11.552  0.6865 -0.0996  0.1488
 2317TIP3    H128366   4.979   3.310  11.458 -0.2848  1.9942 -0.2616
 2317TIP3    H228367   4.891   3.350  11.574  1.2816  1.3877  1.1582
 2318TIP3   OH228368   3.293   3.049  10.552 -0.5358 -0.1821 -0.9665
 2318TIP3    H128369   3.253   3.098  10.480 -1.6118 -0.0524 -0.2810
 2318TIP3    H228370   3.318   3.116  10.616  2.9899 -0.0024 -2.4079
 2319TIP3   OH228371   4.922   3.424  14.078  0.4615  0.3779  0.3117
 2319TIP3    H128372   4.972   3.398  14.155  1.5101 -0.6066 -0.6665
 2319TIP3    H228373   4.989   3.448  14.014 -0.3139 -0.5604 -0.8837
 2320TIP3   OH228374   3.666   4.696   9.849  0.5195 -0.4557  0.3180
 2320TIP3    H128375   3.700   4.697   9.939 -1.3980  0.5792  1.0588
 2320TIP3    H228376   3.605   4.770   9.846 -0.1376 -1.0574 -1.5692
 2321TIP3   OH228377   5.484   5.993  10.619 -0.2780 -0.2856 -0.6460
 2321TIP3    H128378   5.518   6.082  10.626 -1.3362  0.2032 -1.5991
 2321TIP3    H228379   5.562   5.939  10.606  0.3441  0.5298 -0.3358
 2322TIP3   OH228380   4.382   5.139  11.378 -0.1914  0.0305  0.0355
 2322TIP3    H128381   4.323   5.100  11.313  0.8256  0.1225 -0.9507
 2322TIP3    H228382   4.459   5.166  11.328  0.7082 -0.1090  1.3196
 2323TIP3   OH228383   2.245   6.563  11.526 -0.0939 -0.2637  0.1751
 2323TIP3    H128384   2.291   6.512  11.593  0.0777 -2.4129 -1.5295
 2323TIP3    H228385   2.314   6.590  11.465 -0.4256  0.6346  0.1836
 2324TIP3   OH228386   4.729   5.696  10.724  0.2168  0.3540 -0.3584
 2324TIP3    H128387   4.708   5.725  10.635 -0.1582 -2.9540 -1.4169
 2324TIP3    H228388   4.719   5.601  10.721 -1.0091  0.2641  3.5533
 2325TIP3   OH228389   6.228   4.151  11.316 -0.5120 -0.5110  0.3861
 2325TIP3    H128390   6.220   4.160  11.411 -3.6362  1.3276  0.0254
 2325TIP3    H228391   6.258   4.238  11.287 -3.8415  0.3360 -0.6655
 2326TIP3   OH228392   3.846   5.550  10.436 -0.9154  0.1987 -0.0595
 2326TIP3    H128393   3.920   5.576  10.491 -0.5535 -1.9395  0.4735
 2326TIP3    H228394   3.845   5.615  10.366  1.1782  0.5109  0.1768
 2327TIP3   OH228395   6.957   4.278  12.815 -0.2244  0.4964 -0.0221
 2327TIP3    H128396   6.996   4.364  12.803  1.3227 -0.2703 -0.5565
 2327TIP3    H228397   6.976   4.230  12.735  0.1901 -0.8298  0.8408
 2328TIP3   OH228398   3.916   6.924  10.557  0.2226 -0.1167 -0.1508
 2328TIP3    H128399   4.000   6.968  10.551  0.1812 -0.2180 -1.4566
 2328TIP3    H228400   3.875   6.938  10.472 -0.2695 -1.7211 -0.1891
 2329TIP3   OH228401   3.093   3.832  11.112 -0.2364  0.4191 -0.1699
 2329TIP3    H128402   3.072   3.899  11.047 -1.1936  0.7022  0.4194
 2329TIP3    H228403   3.134   3.881  11.184  3.5117 -0.2349 -1.7214
 2330TIP3   OH228404   4.497   4.402  11.746  0.4759  0.2281 -0.0360
 2330TIP3    H128405   4.420   4.346  11.746 -0.4734  1.4652 -2.3847
 2330TIP3    H228406   4.562   4.353  11.696  1.2384 -0.7973  1.9118
 2331TIP3   OH228407   4.451   7.103  11.054 -0.3869 -0.2204  0.2340
 2331TIP3    H128408   4.374   7.056  11.087  0.2324 -0.0124  2.0356
 2331TIP3    H228409   4.446   7.189  11.094  0.3624  0.0564 -0.2617
 2332TIP3   OH228410   5.116   5.863  10.815  0.4159 -0.0056  0.1566
 2332TIP3    H128411   5.117   5.940  10.871  0.7450 -1.0510  1.5932
 2332TIP3    H228412   5.035   5.818  10.836  0.0128  0.1493 -0.9905
 2333TIP3   OH228413   2.836   6.331  11.159  0.6230 -0.4120  0.2499
 2333TIP3    H128414   2.860   6.344  11.251 -0.1249  0.1533  0.3672
 2333TIP3    H228415   2.884   6.253  11.133  0.5964 -0.7577  1.2163
 2334TIP3   OH228416   3.646   5.060  11.579  0.4324  0.4535  0.4171
 2334TIP3    H128417   3.631   4.966  11.568  2.5684  0.1039  0.3132
 2334TIP3    H228418   3.606   5.100  11.502 -0.5344 -0.3480  0.4913
 2335TIP3   OH228419   3.476   2.639  10.347 -0.0781 -0.2371  0.0132
 2335TIP3    H128420   3.499   2.731  10.362  1.3244 -0.5785  0.0273
 2335TIP3    H228421   3.518   2.617  10.264  0.5342 -1.1770  0.5643
 2336TIP3   OH228422   6.051   5.330  10.512  0.1053 -0.1084  0.3936
 2336TIP3    H128423   6.065   5.243  10.550  3.1438  0.1934  0.0735
 2336TIP3    H228424   6.074   5.320  10.420 -0.3136  0.8646  0.1790
 2337TIP3   OH228425   5.317   4.894  11.087 -0.2997  0.2735  0.3885
 2337TIP3    H128426   5.317   4.977  11.135 -3.3659  0.7298 -0.2954
 2337TIP3    H228427   5.336   4.919  10.997 -2.7515  0.4826 -0.1077
 2338TIP3   OH228428   4.853   3.943  13.723 -0.7414 -0.5553  0.0504
 2338TIP3    H128429   4.810   4.012  13.775  0.9445  1.0386 -0.6399
 2338TIP3    H228430   4.922   3.910  13.780  0.4630  0.4985 -0.7895
 2339TIP3   OH228431   2.034   4.658  11.112 -0.5411  0.3676 -0.2031
 2339TIP3    H128432   2.078   4.600  11.174  0.2451 -0.4196 -1.4766
 2339TIP3    H228433   1.960   4.607  11.079  0.5514 -0.2077 -1.8421
 2340TIP3   OH228434   2.294   3.445  11.967  0.2950 -0.4357 -0.3615
 2340TIP3    H128435   2.287   3.358  12.006  2.1394 -0.9277 -1.0831
 2340TIP3    H228436   2.345   3.431  11.887 -0.6289  1.0868 -1.2418
 2341TIP3   OH228437   4.701   1.747  11.589 -0.0681 -0.2025 -0.0378
 2341TIP3    H128438   4.777   1.804  11.602 -0.3872  0.5734 -1.4189
 2341TIP3    H228439   4.715   1.709  11.503 -1.1326 -0.2282 -0.2023
 2342TIP3   OH228440   5.976   3.882  10.900  0.1338  0.0682 -0.0174
 2342TIP3    H128441   5.942   3.852  10.816 -1.8564  4.0442 -0.7641
 2342TIP3    H228442   6.003   3.972  10.884  3.2230 -0.2999  2.7296
 2343TIP3   OH228443   5.833   5.619  12.086 -0.4476  0.5904  0.0857
 2343TIP3    H128444   5.894   5.558  12.044 -2.3118  0.9444 -3.3480
 2343TIP3    H228445   5.889   5.684  12.127  1.5231 -0.3883 -0.9488
 2344TIP3   OH228446   4.919   6.164   9.663 -0.1486 -0.2288  0.0926
 2344TIP3    H128447   4.900   6.079   9.703  2.0632 -0.9551 -0.3163
 2344TIP3    H228448   4.839   6.215   9.677 -1.0308 -1.9187  1.5302
 2345TIP3   OH228449   5.806   3.649  11.660 -0.3292 -0.2489 -0.4940
 2345TIP3    H128450   5.889   3.633  11.614 -0.3412 -0.4687 -0.4389
 2345TIP3    H228451   5.780   3.563  11.694 -1.5060 -0.5406 -2.0742
 2346TIP3   OH228452   4.448   5.799  11.801 -0.5268 -0.2076  0.1522
 2346TIP3    H128453   4.474   5.802  11.708 -0.8869  0.8805  0.0734
 2346TIP3    H228454   4.386   5.727  11.806 -1.4281  0.4945 -0.7076
 2347TIP3   OH228455   3.295   4.236  12.299  0.0108 -0.3616 -0.6346
 2347TIP3    H128456   3.368   4.251  12.238 -0.1656  2.3451 -0.2429
 2347TIP3    H228457   3.229   4.301  12.273 -0.2467  0.5581  2.1409
 2348TIP3   OH228458   4.147   3.176  11.958  0.5677 -0.2746 -0.1841
 2348TIP3    H128459   4.124   3.230  12.033  0.4912  2.4735 -2.1005
 2348TIP3    H228460   4.077   3.111  11.952  0.6068 -0.5567  2.1040
 2349TIP3   OH228461   4.541   0.156  12.736  0.8254 -0.3845  0.3006
 2349TIP3    H128462   4.467   0.152  12.675  1.0997 -0.0801 -0.0500
 2349TIP3    H228463   4.578   0.243  12.723  0.3712 -0.0096  1.5076
 2350TIP3   OH228464   4.970   4.798  10.643  0.1184 -0.7526 -0.1396
 2350TIP3    H128465   4.968   4.728  10.577  3.6119  0.0127 -1.1751
 2350TIP3    H228466   4.975   4.879  10.592 -1.9914  0.1564  1.0668
 2351TIP3   OH228467   6.971   6.824  11.117 -0.2742  0.0672  0.0033
 2351TIP3    H128468   6.994   6.799  11.028  0.3899 -2.1529  0.7723
 2351TIP3    H228469   6.910   6.757  11.146  0.5773 -0.0035  1.6902
 2352TIP3   OH228470   5.093   6.183  13.709  0.0697 -0.0637  0.2799
 2352TIP3    H128471   5.003   6.180  13.676  0.2596  2.9810 -0.6937
 2352TIP3    H228472   5.085   6.217  13.798  0.2478  0.1771  0.2053
 2353TIP3   OH228473   4.874   4.476  13.379  0.1265  0.3763  0.1357
 2353TIP3    H128474   4.834   4.495  13.294 -0.2295 -0.6962  0.0574
 2353TIP3    H228475   4.831   4.536  13.440 -1.3608 -0.5178 -0.0119
 2354TIP3   OH228476   5.940   7.081  10.748  0.6428 -0.2225  0.4429
 2354TIP3    H128477   5.884   7.116  10.817 -1.0224 -0.5294 -0.7050
 2354TIP3    H228478   6.010   7.146  10.739  0.0149  0.6033  1.3390
 2355TIP3   OH228479   6.491   6.808  10.326 -0.4999  0.6691 -0.3314
 2355TIP3    H128480   6.496   6.740  10.259 -1.3734  0.5829 -0.3259
 2355TIP3    H228481   6.400   6.839  10.321 -0.3969  1.0921  0.3808
 2356TIP3   OH228482   5.209   4.537  11.464  0.0349  0.5350  0.4152
 2356TIP3    H128483   5.277   4.585  11.416 -0.2588  0.6000  0.0674
 2356TIP3    H228484   5.236   4.445  11.459 -1.1555  0.2833 -1.7653
 2357TIP3   OH228485   6.278   4.162  10.454  0.8055  0.1947 -0.2887
 2357TIP3    H128486   6.337   4.207  10.393 -0.0592  1.2105 -0.4012
 2357TIP3    H228487   6.282   4.070  10.428  1.9556  0.3346 -0.6060
 2358TIP3   OH228488   4.472   6.156  11.200  0.3507  0.3798 -0.5695
 2358TIP3    H128489   4.527   6.130  11.274 -1.1761 -0.5908  0.2423
 2358TIP3    H228490   4.453   6.249  11.216 -0.7703 -0.0752  0.7662
 2359TIP3   OH228491   7.070   4.790   9.915  0.0935  0.5312  0.1779
 2359TIP3    H128492   7.098   4.699   9.901 -0.0707  0.6306 -0.8829
 2359TIP3    H228493   7.136   4.842   9.869 -0.1768  0.9172  0.2228
 2360TIP3   OH228494   4.910   4.821  11.416  0.3736  0.0447  0.3759
 2360TIP3    H128495   4.893   4.887  11.484  2.4183 -0.9733  1.9520
 2360TIP3    H228496   4.945   4.872  11.343  0.7527  0.8647  1.1070
 2361TIP3   OH228497   6.137   3.742   9.744 -0.0315  0.0679  0.0940
 2361TIP3    H128498   6.163   3.752   9.836 -0.3592 -0.4650  0.2441
 2361TIP3    H228499   6.117   3.649   9.735 -0.5393  0.2206 -0.3735
 2362TIP3   OH228500   6.418   5.871  10.342 -0.0094 -0.0699 -0.6046
 2362TIP3    H128501   6.414   5.882  10.437 -0.0829 -0.6989 -0.5351
 2362TIP3    H228502   6.505   5.835  10.326 -0.6255 -1.5875 -0.6105
 2363TIP3   OH228503   6.670   4.054  11.544  0.5397  0.0846 -0.7885
 2363TIP3    H128504   6.627   4.132  11.510 -1.0911  0.6717  2.3493
 2363TIP3    H228505   6.763   4.068  11.528  0.1170  1.8939 -1.7429
 2364TIP3   OH228506   6.741   4.067  10.207 -0.4884  0.6914 -0.1196
 2364TIP3    H128507   6.757   4.118  10.287 -1.0040  1.2440 -0.3621
 2364TIP3    H228508   6.787   4.115  10.138  0.1916  0.0597 -0.1062
 2365TIP3   OH228509   0.605   5.837  10.607  0.2843  0.3704 -0.8938
 2365TIP3    H128510   0.679   5.832  10.668  1.4256  1.1760 -2.1922
 2365TIP3    H228511   0.538   5.782  10.647  1.2163  0.4377  0.8150
 2366TIP3   OH228512   2.810   3.682  13.198 -0.4925  0.1908  0.1452
 2366TIP3    H128513   2.889   3.721  13.236  0.1041 -0.1220 -0.7506
 2366TIP3    H228514   2.777   3.623  13.265 -0.2930  0.7647  0.7544
 2367TIP3   OH228515   0.662   3.940  13.962  0.0329 -0.1820 -0.1690
 2367TIP3    H128516   0.719   3.918  13.889  1.4811  0.1980  0.8145
 2367TIP3    H228517   0.712   3.915  14.040 -1.1085  0.2499  0.7268
 2368TIP3   OH228518   0.634   5.027  12.145  0.5480  0.6416  0.2209
 2368TIP3    H128519   0.616   4.949  12.198 -1.4990  0.8983 -0.0706
 2368TIP3    H228520   0.669   4.992  12.063 -0.7682 -0.0233 -0.0775
 2369TIP3   OH228521   5.259   5.682  12.060  0.2406  0.0673 -0.0162
 2369TIP3    H128522   5.302   5.767  12.052 -1.0456  0.4915 -2.9010
 2369TIP3    H228523   5.328   5.618  12.042  0.5786  0.6116 -0.6790
 2370TIP3   OH228524   5.439   4.868   9.802 -0.0763 -0.4183 -0.1942
 2370TIP3    H128525   5.484   4.811   9.740  1.0673 -0.6665  0.8484
 2370TIP3    H228526   5.388   4.928   9.747  1.1648 -0.4307 -1.3675
 2371TIP3   OH228527   6.639   2.311  10.422 -0.1058  0.0048 -0.5041
 2371TIP3    H128528   6.622   2.234  10.370  0.7640 -0.1825 -0.5256
 2371TIP3    H228529   6.577   2.376  10.391 -0.3896 -0.4784 -0.9448
 2372TIP3   OH228530   6.414   3.957  11.925  0.2692 -0.1681 -0.1714
 2372TIP3    H128531   6.504   3.984  11.902 -0.4123  1.0661 -1.5247
 2372TIP3    H228532   6.407   3.975  12.018  0.9503  1.2375 -0.3619
 2373TIP3   OH228533   7.079   3.425  10.931 -0.1284 -0.2280 -0.0307
 2373TIP3    H128534   7.125   3.382  11.003 -0.0401  0.9321  0.5990
 2373TIP3    H228535   7.086   3.518  10.949  0.5107  0.1095 -1.9177
 2374TIP3   OH228536   7.271   3.498  10.736  0.1180 -0.1731 -0.1392
 2374TIP3    H128537   7.205   3.543  10.788 -0.4068 -1.0076 -0.0785
 2374TIP3    H228538   7.308   3.433  10.795  0.5659 -0.1247 -0.3622
 2375TIP3   OH228539   6.459   4.085   9.814 -0.0189 -1.1061  0.2376
 2375TIP3    H128540   6.533   4.082   9.753 -0.4493 -1.6515 -0.2709
 2375TIP3    H228541   6.385   4.053   9.762 -1.0170  1.2114  0.1549
 2376TIP3   OH228542   6.308   3.876   9.965 -0.2324 -0.3039  0.4990
 2376TIP3    H128543   6.400   3.852   9.952 -0.3211 -0.3021 -0.1635
 2376TIP3    H228544   6.303   3.969   9.942 -0.9311 -0.9745 -2.2131
 2377TIP3   OH228545   4.272   6.903  12.107 -0.0751 -0.4844 -0.2711
 2377TIP3    H128546   4.299   6.949  12.027  0.7519 -2.7292 -1.3265
 2377TIP3    H228547   4.177   6.919  12.112 -0.3952 -1.3953 -2.4782
 2378TIP3   OH228548   0.617   4.949  11.574 -0.3075  0.2108 -0.2662
 2378TIP3    H128549   0.703   4.913  11.597  0.7071  2.1276 -0.8876
 2378TIP3    H228550   0.568   4.947  11.656 -0.5451 -3.1502 -0.4341
 2379TIP3   OH228551   0.218   4.273  10.244  0.8754  0.2193 -0.5017
 2379TIP3    H128552   0.240   4.308  10.158 -1.0805  1.3440 -0.5692
 2379TIP3    H228553   0.257   4.335  10.306  3.2752 -1.2103 -0.5362
 2380TIP3   OH228554   4.560   0.895  12.645 -0.1886  0.2415 -0.2019
 2380TIP3    H128555   4.573   0.823  12.707  0.3536  0.4340 -0.0869
 2380TIP3    H228556   4.471   0.884  12.612  0.3633 -1.2893 -1.2178
 2381TIP3   OH228557   6.538   4.510  11.193  0.1913  0.2559  0.0219
 2381TIP3    H128558   6.578   4.492  11.107  1.0064  2.3101 -0.0431
 2381TIP3    H228559   6.457   4.460  11.192  0.4967 -0.2412 -1.7129
 2382TIP3   OH228560   0.874   5.484  10.773  0.5136 -0.3835  0.2525
 2382TIP3    H128561   0.833   5.560  10.814  1.7869  0.2488  0.3873
 2382TIP3    H228562   0.844   5.409  10.825  1.3884  0.3205  1.8011
 2383TIP3   OH228563   0.216   5.060   9.783 -0.1140 -0.3097  0.7825
 2383TIP3    H128564   0.207   5.085   9.691 -2.5723  1.0606  1.3515
 2383TIP3    H228565   0.281   5.121   9.818  0.2080 -0.2833  0.1414
 2384TIP3   OH228566   7.207   5.414  11.080 -0.6282 -0.9684 -0.4416
 2384TIP3    H128567   7.172   5.326  11.066 -1.0878 -0.9348  0.4238
 2384TIP3    H228568   7.151   5.450  11.149 -0.6801  0.1375 -1.0627
 2385TIP3   OH228569   6.169   5.291   9.853 -0.1042 -0.8307  0.4928
 2385TIP3    H128570   6.184   5.377   9.893 -1.8811 -0.7907  1.1544
 2385TIP3    H228571   6.249   5.242   9.870  0.0669 -0.0416  2.0850
 2386TIP3   OH228572   0.038   5.302   9.780 -0.0137  0.4560  0.0424
 2386TIP3    H128573   0.100   5.366   9.817  0.5361  0.3359 -0.6743
 2386TIP3    H228574   0.069   5.287   9.691  0.3987 -1.5019  0.4880
 2387TIP3   OH228575   5.779   4.944  11.031  0.1954 -0.1798 -0.0669
 2387TIP3    H128576   5.835   4.954  11.107  0.2216 -1.3049  0.0776
 2387TIP3    H228577   5.793   5.023  10.979  0.6458  0.3026  0.7856
 2388TIP3   OH228578   6.069   4.756  10.922 -0.6435  0.9876 -0.0828
 2388TIP3    H128579   6.000   4.692  10.943  1.2736 -1.0431  0.2321
 2388TIP3    H228580   6.148   4.720  10.962  0.8110  2.7631 -1.2691
 2389TIP3   OH228581   5.627   2.508  11.348 -0.5181  0.0744 -0.0395
 2389TIP3    H128582   5.666   2.421  11.350 -1.4299 -0.3625 -0.5600
 2389TIP3    H228583   5.533   2.492  11.358 -0.4345  1.2371  3.2086
 2390TIP3   OH228584   5.914   5.021  10.361 -0.0660  0.3406 -0.0030
 2390TIP3    H128585   5.857   5.028  10.437 -0.3437 -1.6096 -0.0100
 2390TIP3    H228586   6.002   5.010  10.398 -0.0871  0.2365  0.0159
 2391TIP3   OH228587   5.523   5.152  10.547 -0.0754 -0.9384  0.1129
 2391TIP3    H128588   5.434   5.180  10.524  0.8330  2.9488  0.9995
 2391TIP3    H228589   5.576   5.176  10.471  0.6497 -0.6445  0.7061
 2392TIP3   OH228590   4.729   3.096  11.730 -0.3924  0.5055  0.0005
 2392TIP3    H128591   4.692   3.010  11.747  0.0341  0.3649  0.2144
 2392TIP3    H228592   4.668   3.137  11.668 -0.6184  0.0708 -0.0620
 2393TIP3   OH228593   6.382   6.043  10.130  0.2907 -0.4476 -0.0658
 2393TIP3    H128594   6.300   6.001  10.104  0.1169 -0.7715  0.9863
 2393TIP3    H228595   6.396   6.015  10.220  1.2485  0.0967 -0.0379
 2394TIP3   OH228596   5.824   5.673  11.133  0.0200 -0.0496 -0.0215
 2394TIP3    H128597   5.895   5.650  11.073  2.4112  0.6707  2.4132
 2394TIP3    H228598   5.790   5.756  11.099 -0.0161 -0.6523 -1.4925
 2395TIP3   OH228599   4.374   7.092  10.322  0.3885 -0.2177 -0.5898
 2395TIP3    H128600   4.298   7.058  10.276  0.1702 -0.1254 -0.2969
 2395TIP3    H228601   4.448   7.074  10.263 -0.0044  0.7232 -1.3923
 2396TIP3   OH228602   6.560   5.032  10.395 -0.3017  0.9032  0.0129
 2396TIP3    H128603   6.615   4.957  10.370 -0.8633  0.4011  0.2717
 2396TIP3    H228604   6.611   5.077  10.462  1.0833  2.0896 -1.7637
 2397TIP3   OH228605   4.050   6.021  11.062  0.4331  0.5712  0.1315
 2397TIP3    H128606   4.118   5.954  11.066  0.3462  0.4801  0.0692
 2397TIP3    H228607   4.021   6.031  11.153 -0.7400 -0.6811 -0.0915
 2398TIP3   OH228608   5.193   5.508  12.512  0.2345  0.0362  0.4607
 2398TIP3    H128609   5.170   5.551  12.594  0.8456 -2.3369  1.9282
 2398TIP3    H228610   5.120   5.528  12.453  0.0711  2.2355  1.3883
 2399TIP3   OH228611   4.921   4.315  11.829 -0.1332 -0.3656  0.1872
 2399TIP3    H128612   4.968   4.387  11.785  1.6821 -0.1297  2.4092
 2399TIP3    H228613   4.835   4.352  11.850  0.3872  0.8006  0.3277
 2400TIP3   OH228614   0.318   3.075  13.092  0.6887 -0.2310  0.0895
 2400TIP3    H128615   0.366   2.994  13.110  0.9739 -0.4678 -1.6840
 2400TIP3    H228616   0.230   3.045  13.066  0.9317 -0.0035 -1.0146
 2401TIP3   OH228617   6.701   4.282  10.892 -0.2327  0.4898 -0.0480
 2401TIP3    H128618   6.655   4.198  10.887 -0.8623  0.8840 -1.0082
 2401TIP3    H228619   6.779   4.270  10.839  0.5548 -0.0346  1.2141
 2402TIP3   OH228620   6.629   1.248  10.575  0.5833 -0.1088  0.1258
 2402TIP3    H128621   6.615   1.227  10.667 -0.4755  0.4989  0.1170
 2402TIP3    H228622   6.609   1.167  10.528  1.7600 -0.6094  0.4639
 2403TIP3   OH228623   6.609   4.698  11.585  0.0309  0.4539 -0.0444
 2403TIP3    H128624   6.658   4.640  11.527  2.0000  1.1043  0.9225
 2403TIP3    H228625   6.518   4.692  11.554  0.5694 -1.4130 -1.3415
 2404TIP3   OH228626   0.137   3.300  11.545  0.0362 -0.3772 -0.1439
 2404TIP3    H128627   0.142   3.206  11.564 -2.4002 -0.7853 -1.2958
 2404TIP3    H228628   0.065   3.307  11.482 -0.0219  2.3161  0.1957
 2405TIP3   OH228629   5.117   3.838  11.319  0.0320 -0.1624  0.1847
 2405TIP3    H128630   5.188   3.825  11.257 -0.0468 -0.7665  0.2169
 2405TIP3    H228631   5.115   3.756  11.370 -0.9778 -0.3261 -0.1162
 2406TIP3   OH228632   6.307   2.969  10.212  0.1206  0.4402  0.2197
 2406TIP3    H128633   6.304   2.942  10.120  0.6853  3.4977 -0.7847
 2406TIP3    H228634   6.216   2.972  10.240 -0.0438 -0.6669 -0.2022
 2407TIP3   OH228635   6.670   3.856  12.434  0.0127 -0.4467 -0.0213
 2407TIP3    H128636   6.633   3.938  12.467  1.5683 -0.1611  1.0808
 2407TIP3    H228637   6.644   3.791  12.499  1.2935 -0.2629  0.7050
 2408TIP3   OH228638   5.797   3.996  11.335 -0.1736  0.5016  0.2694
 2408TIP3    H128639   5.853   3.973  11.410  0.1830  0.2746 -0.0652
 2408TIP3    H228640   5.842   3.960  11.259  0.5965  2.5969 -0.3291
 2409TIP3   OH228641   0.397   5.784  11.510  0.4173  0.5837  0.5543
 2409TIP3    H128642   0.380   5.869  11.552  0.1343  1.0718 -0.5143
 2409TIP3    H228643   0.410   5.723  11.582  0.8064  1.5816  1.3346
 2410TIP3   OH228644   5.556   3.847  10.537 -0.6784 -0.0045  0.0034
 2410TIP3    H128645   5.547   3.804  10.451 -1.6543 -1.5907  0.8643
 2410TIP3    H228646   5.478   3.902  10.544 -0.7065 -0.0365 -0.0542
 2411TIP3   OH228647   6.089   5.080  10.620 -0.2855  0.1389 -0.0514
 2411TIP3    H128648   6.146   5.097  10.694  0.3615  3.6033 -1.2521
 2411TIP3    H228649   6.136   5.015  10.568  0.1023 -0.9322  1.5942
 2412TIP3   OH228650   5.774   5.004  10.603 -0.2159 -0.0315  0.4487
 2412TIP3    H128651   5.679   5.013  10.603 -0.1785  0.7044 -1.4446
 2412TIP3    H228652   5.789   4.909  10.605 -1.1175 -0.3657 -3.7668
 2413TIP3   OH228653   7.036   1.523  11.016 -0.1574 -0.4830  0.1356
 2413TIP3    H128654   7.014   1.552  10.928 -0.0741 -1.0762 -0.0846
 2413TIP3    H228655   6.952   1.497  11.055 -0.3789  1.1059  0.7241
 2414TIP3   OH228656   4.691   2.667  10.275 -0.3090  0.0072  0.5664
 2414TIP3    H128657   4.694   2.573  10.260  0.8876  0.3555 -1.6048
 2414TIP3    H228658   4.733   2.679  10.361 -1.0118 -1.4715  1.1219
 2415TIP3   OH228659   4.825   5.508  11.050  0.0742 -0.5925 -0.0371
 2415TIP3    H128660   4.853   5.538  11.136 -0.6476 -1.1875  0.4051
 2415TIP3    H228661   4.779   5.426  11.066 -0.1176 -0.6806 -0.9812
 2416TIP3   OH228662   0.713   1.619  11.318  0.3729 -0.3116 -0.1227
 2416TIP3    H128663   0.802   1.596  11.346  1.6025  1.9894 -1.9733
 2416TIP3    H228664   0.707   1.585  11.229 -0.4794 -0.1877 -0.1090
 2417TIP3   OH228665   4.764   2.995  11.177 -0.0577  0.5596 -0.0182
 2417TIP3    H128666   4.670   3.007  11.173  0.1772  2.1501 -1.0243
 2417TIP3    H228667   4.775   2.909  11.218 -1.9050  0.8789  1.2047
 2418TIP3   OH228668   0.379   5.838  12.250 -0.3583  0.3997  0.0598
 2418TIP3    H128669   0.416   5.750  12.247 -1.3818 -0.0244 -0.3366
 2418TIP3    H228670   0.292   5.829  12.211 -1.1670  1.2431  1.5956
 2419TIP3   OH228671   6.836   6.588  11.069 -0.3774  0.7718  0.1632
 2419TIP3    H128672   6.750   6.590  11.110  0.3005  2.1280  1.5710
 2419TIP3    H228673   6.864   6.497  11.075 -2.5007 -0.0827 -2.0413
 2420TIP3   OH228674   6.389   4.795   9.950  0.1976 -0.1009  0.5133
 2420TIP3    H128675   6.318   4.858   9.960 -1.8848 -1.8035 -2.4400
 2420TIP3    H228676   6.370   4.727  10.015  1.3634  1.3014  2.3709
 2421TIP3   OH228677   6.940   5.898  12.843  0.2682  0.5632 -0.5723
 2421TIP3    H128678   7.014   5.901  12.782  0.6094  0.9622 -0.1432
 2421TIP3    H228679   6.909   5.807  12.839 -1.2916  1.1539 -3.1968
 2422TIP3   OH228680   4.751   6.319  11.612 -0.3535 -0.1929 -0.1331
 2422TIP3    H128681   4.793   6.296  11.695  3.7990  1.6145 -1.6082
 2422TIP3    H228682   4.715   6.406  11.626  2.5642  1.2090 -0.8653
 2423TIP3   OH228683   1.430   6.567  10.931  0.7756 -0.1193  0.5536
 2423TIP3    H128684   1.362   6.539  10.871  1.1019 -0.4258  0.3219
 2423TIP3    H228685   1.391   6.558  11.018  1.7515 -3.9476  0.6870
 2424TIP3   OH228686   0.657   4.455  10.723  0.0005 -0.4878 -0.0248
 2424TIP3    H128687   0.707   4.374  10.736  0.1662 -0.2213  0.9763
 2424TIP3    H228688   0.706   4.522  10.769  0.3480  0.3810 -1.6171
 2425TIP3   OH228689   6.368   6.109  12.099  0.2517  0.1292 -0.4386
 2425TIP3    H128690   6.382   6.201  12.077  0.3907  0.4864  1.0665
 2425TIP3    H228691   6.443   6.086  12.155  0.4798 -1.0364 -1.2069
 2426TIP3   OH228692   4.528   4.345  10.768  0.4407 -0.0593 -0.5908
 2426TIP3    H128693   4.529   4.440  10.764 -0.1020 -0.0703 -1.0624
 2426TIP3    H228694   4.446   4.320  10.726 -1.0783 -0.5767  2.5292
 2427TIP3   OH228695   4.793   7.145  11.433 -0.2868  0.1484 -0.2578
 2427TIP3    H128696   4.775   7.112  11.346 -1.9396  0.0154  0.1267
 2427TIP3    H228697   4.888   7.137  11.443 -0.1884 -0.5556 -1.7369
 2428TIP3   OH228698   6.335   7.237  11.545 -0.0347 -0.1218  0.9211
 2428TIP3    H128699   6.257   7.199  11.585 -0.9820 -2.1375 -2.5542
 2428TIP3    H228700   6.407   7.181  11.575 -0.7320 -1.6255 -0.1157
 2429TIP3   OH228701   5.911   4.676  11.348 -0.2497 -0.3680  0.2095
 2429TIP3    H128702   5.845   4.689  11.416 -1.2679 -3.3190 -0.1207
 2429TIP3    H228703   5.862   4.637  11.275  1.5506 -1.0063 -0.6843
 2430TIP3   OH228704   5.876   5.879  10.145 -0.1751 -0.7810 -0.2436
 2430TIP3    H128705   5.893   5.807  10.205  1.2561  0.8386  1.3291
 2430TIP3    H228706   5.948   5.875  10.082 -1.3282 -2.0826 -1.5207
 2431TIP3   OH228707   6.422   5.211  10.605 -0.1042 -0.8634  0.4547
 2431TIP3    H128708   6.368   5.233  10.529  0.6045  0.1772  0.2421
 2431TIP3    H228709   6.479   5.287  10.617  1.5871 -2.0862  0.4162
 2432TIP3   OH228710   4.914   4.286  11.489 -0.6278  0.0312  0.4591
 2432TIP3    H128711   4.933   4.378  11.467  0.7198 -0.1143  0.9177
 2432TIP3    H228712   4.858   4.256  11.418 -1.0482  1.1969  0.2727
 2433TIP3   OH228713   6.700   5.816  10.332 -0.2423 -0.1602  1.0561
 2433TIP3    H128714   6.719   5.783  10.244  0.9256 -0.3939  1.3815
 2433TIP3    H228715   6.777   5.868  10.355 -1.0574  0.8631  1.4795
 2434TIP3   OH228716   6.970   5.652  12.250  0.5814 -0.5222 -0.0230
 2434TIP3    H128717   6.919   5.684  12.176  0.8512 -0.3741 -0.1469
 2434TIP3    H228718   7.061   5.661  12.222  0.6915 -0.2511  0.4103
 2435TIP3   OH228719   6.524   5.369  12.748 -0.5476  0.6404  0.1549
 2435TIP3    H128720   6.582   5.422  12.803  0.4335  0.5223 -0.7516
 2435TIP3    H228721   6.580   5.299  12.714 -0.8419  1.3790 -1.9183
 2436TIP3   OH228722   1.013   3.020  12.256  0.1098 -0.2764 -0.0203
 2436TIP3    H128723   0.947   2.960  12.221 -0.1537  0.0871 -0.1517
 2436TIP3    H228724   1.064   3.045  12.179 -1.3724  1.6539 -0.3986
 2437TIP3   OH228725   6.365   6.532  12.682 -0.4447 -0.0310  0.4271
 2437TIP3    H128726   6.407   6.531  12.596 -0.4169 -0.6237  0.4518
 2437TIP3    H228727   6.350   6.440  12.703 -1.7772  0.1786  0.4089
 2438TIP3   OH228728   5.357   1.876  11.591  0.0609 -0.2432  0.1370
 2438TIP3    H128729   5.299   1.810  11.552 -0.8584  0.8381 -0.3341
 2438TIP3    H228730   5.311   1.904  11.671 -0.1582  0.7316 -0.3211
 2439TIP3   OH228731   0.275   4.355   9.932  0.2286  0.8050 -0.1277
 2439TIP3    H128732   0.289   4.448   9.916 -1.6864  1.1286 -0.0978
 2439TIP3    H228733   0.360   4.315   9.918  1.9652  3.0004  3.4271
 2440TIP3   OH228734   0.321   5.203  12.487 -0.2727 -0.4672  0.0030
 2440TIP3    H128735   0.388   5.263  12.522  0.8387 -0.8016 -1.5035
 2440TIP3    H228736   0.265   5.184  12.562  0.4317  1.0195  0.9415
 2441TIP3   OH228737   6.234   5.794   9.690 -0.1437  0.2306  0.2910
 2441TIP3    H128738   6.203   5.703   9.691  0.2330  0.1059  0.5411
 2441TIP3    H228739   6.189   5.833   9.614 -0.7620  0.0034  0.5315
 2442TIP3   OH228740   5.650   4.690   9.684 -0.0684  0.3870  0.6080
 2442TIP3    H128741   5.710   4.712   9.755 -0.5918 -0.1444  1.2236
 2442TIP3    H228742   5.651   4.595   9.679  0.6512  0.4478 -0.7042
 2443TIP3   OH228743   0.664   4.763  10.394 -0.2796  0.1863  0.0082
 2443TIP3    H128744   0.694   4.804  10.313 -1.5992  1.3878  0.1236
 2443TIP3    H228745   0.691   4.671  10.385  2.3772  0.9626 -0.3998
 2444TIP3   OH228746   6.438   5.064  10.150  0.2723 -0.5723  0.4604
 2444TIP3    H128747   6.519   5.038  10.106  0.5571  1.4552 -0.2595
 2444TIP3    H228748   6.462   5.066  10.243  0.4637 -2.0288  0.4517
 2445TIP3   OH228749   4.879   3.034  10.721 -0.1855 -0.1463  0.4756
 2445TIP3    H128750   4.859   3.104  10.658  0.7609  0.6261  1.0094
 2445TIP3    H228751   4.974   3.025  10.716 -0.3530 -1.7610  0.0499
 2446TIP3   OH228752   5.781   3.356  11.955 -0.0861  0.2648  0.1037
 2446TIP3    H128753   5.850   3.351  11.889  1.2268  0.7781  1.4073
 2446TIP3    H228754   5.813   3.302  12.028 -2.2218 -1.5972 -0.2793
 2447TIP3   OH228755   2.206   4.990  11.131 -0.4626  1.3286 -0.3088
 2447TIP3    H128756   2.122   5.035  11.141 -0.8432  1.0084 -1.9487
 2447TIP3    H228757   2.269   5.060  11.116 -0.5351  1.5301  0.3248
 2448TIP3   OH228758   0.682   4.638  10.062  0.2621  0.5866 -0.3732
 2448TIP3    H128759   0.649   4.574  10.126  4.4148  0.5486  1.9093
 2448TIP3    H228760   0.724   4.586   9.995 -0.1296  0.7838 -0.7724
 2449TIP3   OH228761   5.962   5.118   9.823  0.0865  0.3394 -0.0133
 2449TIP3    H128762   5.895   5.182   9.800 -0.7049 -0.3680  0.2638
 2449TIP3    H228763   6.042   5.169   9.834 -0.5239  1.2693  0.1589
 2450TIP3   OH228764   1.006   4.805  13.560  0.1717  0.1924  0.6661
 2450TIP3    H128765   1.040   4.884  13.519  0.1731  0.6512  1.5390
 2450TIP3    H228766   0.997   4.743  13.488 -1.8633  1.6664 -0.4045
 2451TIP3   OH228767   4.239   6.981  11.444 -0.1816 -0.1018 -0.7313
 2451TIP3    H128768   4.154   6.937  11.446  0.1902 -0.8547 -1.2396
 2451TIP3    H228769   4.283   6.952  11.524  0.0460 -0.6306 -1.0443
 2452TIP3   OH228770   6.285   3.928  10.849 -0.7481  0.5433  0.1928
 2452TIP3    H128771   6.275   4.019  10.823  1.0107  0.6434 -0.1637
 2452TIP3    H228772   6.223   3.917  10.922 -0.3640  2.2396  0.7926
 2453TIP3   OH228773   5.452   6.613  12.553 -0.3376  0.2208 -0.0195
 2453TIP3    H128774   5.486   6.568  12.476  0.0566  2.1011 -0.9646
 2453TIP3    H228775   5.530   6.639  12.602 -0.5882 -1.2293  1.1976
 2454TIP3   OH228776   5.938   3.134  10.926 -0.5463  0.4247 -0.2796
 2454TIP3    H128777   5.956   3.189  11.003 -0.2828 -1.4833  1.0445
 2454TIP3    H228778   5.958   3.045  10.955 -0.0042 -0.2697 -2.7123
 2455TIP3   OH228779   6.035   5.625  10.969 -0.5302  0.0187 -0.0726
 2455TIP3    H128780   6.070   5.570  11.040  1.2623  0.3595 -0.6959
 2455TIP3    H228781   6.071   5.587  10.889  0.1646  1.6872 -0.5592
 2456TIP3   OH228782   6.732   5.586  10.479  0.2884 -0.0454 -0.0590
 2456TIP3    H128783   6.733   5.520  10.410 -0.5067  1.0450 -1.1488
 2456TIP3    H228784   6.729   5.670  10.432 -1.6836  0.6849  1.2913
 2457TIP3   OH228785   6.075   7.137  12.126 -0.0414 -0.7292  0.4745
 2457TIP3    H128786   6.077   7.101  12.037 -1.4508  1.0511 -0.2950
 2457TIP3    H228787   6.019   7.076  12.174 -0.4179 -0.9315 -0.2081
 2458TIP3   OH228788   0.109   0.032  11.852 -0.3579  0.0599  0.0192
 2458TIP3    H128789   0.175  -0.036  11.864  0.3390  0.4251 -1.5962
 2458TIP3    H228790   0.035   0.004  11.906  0.1995 -1.5908 -0.0483
 2459TIP3   OH228791   0.527   4.251  11.594 -0.3461  0.1929  0.1246
 2459TIP3    H128792   0.559   4.318  11.653  2.3448  0.5014 -1.5634
 2459TIP3    H228793   0.522   4.172  11.647  3.6905  0.0525  0.5086
 2460TIP3   OH228794   5.305   2.241  11.623  1.1997 -0.2490  0.0325
 2460TIP3    H128795   5.363   2.269  11.694 -0.3275 -1.4580  1.7992
 2460TIP3    H228796   5.218   2.246  11.661  0.1518  1.1467 -2.4610
 2461TIP3   OH228797   1.061   5.634  11.391 -0.6839 -0.0131 -0.2062
 2461TIP3    H128798   1.118   5.603  11.322 -0.6119  0.9179 -0.5694
 2461TIP3    H228799   1.014   5.708  11.353 -0.9419  0.2531  0.6071
 2462TIP3   OH228800   0.181   3.310  11.823  0.1900  0.8996  0.1853
 2462TIP3    H128801   0.155   3.218  11.829 -3.8554  2.0064  1.2542
 2462TIP3    H228802   0.182   3.329  11.730  0.0713  0.0671  0.0049
 2463TIP3   OH228803   4.317   3.493  12.860  0.8923 -0.7056  0.8723
 2463TIP3    H128804   4.410   3.476  12.846  0.8728 -1.0654  1.2013
 2463TIP3    H228805   4.304   3.481  12.954  0.9285  1.3074  1.1637
 2464TIP3   OH228806   6.313   4.637  10.728 -0.3975  0.6242  0.7539
 2464TIP3    H128807   6.263   4.653  10.648  0.7372  1.4995  0.2175
 2464TIP3    H228808   6.359   4.719  10.745  2.3287 -0.7205  0.1956
 2465TIP3   OH228809   6.593   4.354  11.944  0.0141 -0.1078 -0.5357
 2465TIP3    H128810   6.582   4.318  12.031  1.7742  0.5915  0.0128
 2465TIP3    H228811   6.504   4.371  11.912 -0.6025  1.9660  2.1118
 2466TIP3   OH228812   5.903   4.095  10.344 -0.6508 -0.0628 -0.3359
 2466TIP3    H128813   5.831   4.060  10.398  0.2891  0.0573  1.0117
 2466TIP3    H228814   5.867   4.175  10.305 -0.0436  2.1607  3.4262
 2467TIP3   OH228815   0.670   3.885  12.485 -0.3238  0.7115  0.0671
 2467TIP3    H128816   0.684   3.845  12.399  1.8088 -3.0675  2.0389
 2467TIP3    H228817   0.734   3.956  12.489 -1.3434  1.7891 -1.9293
 2468TIP3   OH228818   0.073   6.273  12.477 -0.1437 -0.9304 -0.8037
 2468TIP3    H128819   0.018   6.229  12.542 -0.1555 -1.7766 -1.3635
 2468TIP3    H228820   0.142   6.209  12.459  2.1859  0.9158  1.3772
 2469TIP3   OH228821   1.675   4.347  11.290  0.1942  0.4296  0.6551
 2469TIP3    H128822   1.769   4.334  11.290  0.3072  1.2199  0.9571
 2469TIP3    H228823   1.648   4.333  11.199  0.6330  0.4032  0.5310
 2470TIP3   OH228824   1.057   4.989  10.470 -0.0371 -0.3187 -0.3201
 2470TIP3    H128825   0.977   4.983  10.419 -1.0441  0.1021  1.1973
 2470TIP3    H228826   1.112   5.050  10.420 -0.7472 -0.3956 -1.2205
 2471TIP3   OH228827   6.225   5.985  10.764 -0.6010 -0.3225 -0.3494
 2471TIP3    H128828   6.283   6.059  10.784 -0.8283 -0.9632  3.0543
 2471TIP3    H228829   6.157   6.022  10.708  0.0606  1.7525  0.1676
 2472TIP3   OH228830   6.329   4.759  11.477 -0.1416 -0.8848 -0.0809
 2472TIP3    H128831   6.295   4.701  11.545 -0.9484 -1.5366 -1.0279
 2472TIP3    H228832   6.262   4.826  11.468 -0.2771 -1.0895 -0.5942
 2473TIP3   OH228833   5.755   4.455  12.549  0.6548 -0.2420  0.5130
 2473TIP3    H128834   5.744   4.420  12.637 -0.0217  1.1997  1.0244
 2473TIP3    H228835   5.765   4.378  12.493 -0.2703 -1.2145  1.6630
 2474TIP3   OH228836   0.349   3.607  10.990 -0.5331  0.0342 -0.2317
 2474TIP3    H128837   0.412   3.598  10.918 -0.2853  3.4734 -0.5117
 2474TIP3    H228838   0.283   3.668  10.957 -0.8233  1.0756  2.1749
 2475TIP3   OH228839   7.209   3.924  11.907 -0.9024  0.4445  0.0688
 2475TIP3    H128840   7.290   3.967  11.934  1.3662 -2.9529 -1.0001
 2475TIP3    H228841   7.202   3.944  11.813 -0.7204 -0.1865 -0.0776
 2476TIP3   OH228842   5.703   6.293  12.295 -0.6805  0.2766  0.4976
 2476TIP3    H128843   5.705   6.287  12.390  1.4600 -1.1638  0.4027
 2476TIP3    H228844   5.745   6.376  12.275  0.0954 -0.0392  0.7827
 2477TIP3   OH228845   0.384   3.782  11.237 -0.5836 -0.0903 -0.0844
 2477TIP3    H128846   0.469   3.792  11.279 -0.4032 -0.2845 -0.4015
 2477TIP3    H228847   0.401   3.725  11.162 -0.5959  1.4948 -1.3237
 2478TIP3   OH228848   6.762   6.136  12.693  0.8203  0.9076  0.1481
 2478TIP3    H128849   6.759   6.219  12.646  0.6201  0.3233 -0.8954
 2478TIP3    H228850   6.671   6.112  12.707  0.8497  0.2030 -0.7761
 2479TIP3   OH228851   7.006   3.535  12.108  0.2622  0.0405 -0.1746
 2479TIP3    H128852   6.918   3.517  12.141  0.6097  0.3250  0.8968
 2479TIP3    H228853   7.024   3.461  12.049 -0.4722 -0.3047  0.0245
 2480TIP3   OH228854   1.598   3.302  13.877 -0.1324  0.4238  0.2639
 2480TIP3    H128855   1.559   3.389  13.866  0.9218  0.9387  0.5863
 2480TIP3    H228856   1.691   3.319  13.891 -0.1652 -0.6867  1.8282
 2481TIP3   OH228857   5.412   5.342   9.270 -0.4540 -0.4726  0.1094
 2481TIP3    H128858   5.446   5.304   9.189 -0.3926  0.1371 -0.1619
 2481TIP3    H228859   5.485   5.338   9.332  0.5684  1.9803 -0.8467
 2482TIP3   OH228860   6.619   5.394  10.656 -0.4091  0.2095  0.0262
 2482TIP3    H128861   6.659   5.467  10.609 -1.2151  0.9780  0.5094
 2482TIP3    H228862   6.649   5.404  10.746  0.2377 -0.6114 -0.0914
 2483TIP3   OH228863   6.797   4.264  10.405 -0.0204  0.3489 -0.4323
 2483TIP3    H128864   6.839   4.329  10.348  0.5598 -0.0614 -0.4799
 2483TIP3    H228865   6.870   4.216  10.443 -0.3944  0.6995  0.7580
 2484TIP3   OH228866   1.610   5.705  11.679  0.3284  0.1709 -0.0038
 2484TIP3    H128867   1.601   5.755  11.599 -3.7518 -0.4947 -0.0640
 2484TIP3    H228868   1.568   5.621  11.660  0.1340 -0.3473  2.5214
 2485TIP3   OH228869   1.741   3.043  11.748  0.7515  0.1510 -0.3252
 2485TIP3    H128870   1.805   3.066  11.816 -0.4170  0.3121  0.7257
 2485TIP3    H228871   1.687   3.121  11.738 -0.4142 -0.5897  0.0831
 2486TIP3   OH228872   0.181   4.019  11.510 -0.5944  0.0934  0.5236
 2486TIP3    H128873   0.136   4.080  11.568 -1.5670  1.2024 -1.3810
 2486TIP3    H228874   0.209   4.072  11.436 -2.7137 -2.0078 -1.8635
 2487TIP3   OH228875   5.791   5.701  11.644 -0.2973 -0.1801  0.4475
 2487TIP3    H128876   5.857   5.746  11.592 -1.1133 -0.0834 -0.5242
 2487TIP3    H228877   5.750   5.771  11.696 -0.0912 -0.1343  0.5465
 2488TIP3   OH228878   0.510   3.661  10.493 -0.4157  0.6151 -0.4046
 2488TIP3    H128879   0.423   3.632  10.464  0.4756 -0.0346 -2.5768
 2488TIP3    H228880   0.549   3.701  10.415  1.5451  0.1583  0.3009
 2489TIP3   OH228881   6.065   2.872  11.654 -0.2743  0.0881  0.0093
 2489TIP3    H128882   6.076   2.779  11.636 -0.5320  0.5098 -2.4709
 2489TIP3    H228883   6.150   2.911  11.632  0.4999  0.2355  2.9301
 2490TIP3   OH228884   3.939   5.692  11.867  0.0060  0.3962 -0.3465
 2490TIP3    H128885   3.927   5.651  11.781  1.3317 -1.3841  0.2709
 2490TIP3    H228886   3.874   5.651  11.923  1.3715 -0.9541  0.2879
 2491TIP3   OH228887   6.603   5.368  12.089 -0.2516  0.1681 -0.5478
 2491TIP3    H128888   6.571   5.306  12.024  1.0139 -0.0872 -0.9442
 2491TIP3    H228889   6.690   5.393  12.057 -0.0497  0.8336  0.5026
 2492TIP3   OH228890   0.992   3.290  11.460  0.3140 -0.8108  0.1526
 2492TIP3    H128891   0.899   3.299  11.480  0.7255 -0.3144  1.9324
 2492TIP3    H228892   1.001   3.325  11.371 -1.3160 -1.5994 -0.3541
 2493TIP3   OH228893   4.934   2.967  10.106  0.2860  0.0374  0.0151
 2493TIP3    H128894   4.868   2.899  10.094 -0.1389  0.3467  0.5665
 2493TIP3    H228895   4.901   3.041  10.055 -0.5883  0.7210  1.5233
 2494TIP3   OH228896   0.804   3.475  11.310  0.0426  0.5262 -0.5455
 2494TIP3    H128897   0.709   3.465  11.315  0.0904 -0.7571 -1.8033
 2494TIP3    H228898   0.835   3.393  11.272  1.8234  0.2545  1.3551
 2495TIP3   OH228899   7.015   5.310  12.659  0.2645  0.1785 -0.1507
 2495TIP3    H128900   7.036   5.344  12.746 -0.8522  3.2243 -1.0031
 2495TIP3    H228901   7.100   5.297  12.618  0.7689  0.4666  0.7810
 2496TIP3   OH228902   0.426   3.407  11.954  0.9200 -0.2637 -0.2154
 2496TIP3    H128903   0.344   3.370  11.922  0.1620  1.4023 -0.2371
 2496TIP3    H228904   0.455   3.346  12.022 -2.2463  1.0127  2.4377
 2497TIP3   OH228905   4.562   4.829   9.826 -0.0025 -0.2960  0.5398
 2497TIP3    H128906   4.604   4.876   9.898 -0.9268  2.2392 -0.5274
 2497TIP3    H228907   4.531   4.748   9.866  0.4459  0.5824  2.7580
 2498TIP3   OH228908   3.917   4.704  12.237  0.0041 -0.6672  0.1229
 2498TIP3    H128909   3.868   4.663  12.166  2.1425 -1.1970 -1.1012
 2498TIP3    H228910   3.930   4.795  12.209  0.6123 -0.8031 -0.0535
 2499TIP3   OH228911   2.911   4.700  13.070  0.3861 -0.2807 -0.2277
 2499TIP3    H128912   2.825   4.714  13.031  0.6617  0.0590 -0.7072
 2499TIP3    H228913   2.923   4.605  13.070  0.0963 -0.3150 -0.3397
 2500TIP3   OH228914   7.206   0.028  12.722 -0.2631 -0.2559 -0.1538
 2500TIP3    H128915   7.198   0.055  12.630  1.5810  0.5955 -0.0801
 2500TIP3    H228916   7.295  -0.007  12.729 -0.2555  0.0567  1.3985
 2501TIP3   OH228917   4.476   4.830  10.889  0.0073 -0.1949  0.2964
 2501TIP3    H128918   4.430   4.783  10.960 -0.9086  2.3803  1.4666
 2501TIP3    H228919   4.564   4.843  10.923 -0.2180  0.3766  0.6782
 2502TIP3   OH228920   5.534   6.400  11.424 -0.3433  0.1726 -0.1090
 2502TIP3    H128921   5.505   6.477  11.474 -0.3107 -0.6593  1.2141
 2502TIP3    H228922   5.476   6.397  11.348  0.0168  1.8234 -0.4601
 2503TIP3   OH228923   6.773   1.126  12.993  0.3815  0.8043  0.4316
 2503TIP3    H128924   6.814   1.040  13.003 -0.0444  0.3519 -1.3952
 2503TIP3    H228925   6.837   1.188  13.026  2.0831  0.0248 -1.3125
 2504TIP3   OH228926   0.161   0.137  12.514 -0.1358  0.5120 -0.1367
 2504TIP3    H128927   0.184   0.067  12.576  0.5108 -0.5800 -1.5848
 2504TIP3    H228928   0.128   0.208  12.570 -1.3645 -1.1584  1.3125
 2505TIP3   OH228929   1.760   3.823  12.325 -0.1782  0.2357  0.1548
 2505TIP3    H128930   1.678   3.803  12.279  1.1309 -0.5252 -1.9093
 2505TIP3    H228931   1.791   3.739  12.356  0.2366  0.4233  0.2448
 2506TIP3   OH228932   6.550   5.723  11.156  0.1461 -1.0850 -0.2288
 2506TIP3    H128933   6.493   5.661  11.201 -0.1152 -1.2962 -0.8434
 2506TIP3    H228934   6.610   5.669  11.106 -0.0201 -0.8510 -0.6894
 2507TIP3   OH228935   0.917   5.246  12.311  0.1475 -0.5142  0.2668
 2507TIP3    H128936   0.996   5.219  12.264 -0.2037 -1.0778 -0.0099
 2507TIP3    H228937   0.901   5.175  12.373 -0.0657 -0.3319  0.4206
 2508TIP3   OH228938   6.628   6.506  10.385 -0.4486  0.2886  0.4511
 2508TIP3    H128939   6.662   6.419  10.362 -1.5520 -0.1197  0.2913
 2508TIP3    H228940   6.583   6.492  10.469 -0.1202  0.8322  0.7159
 2509TIP3   OH228941   0.321   5.546  10.489 -0.1735 -0.3696  0.1080
 2509TIP3    H128942   0.334   5.639  10.472  0.1646 -0.5383 -0.5938
 2509TIP3    H228943   0.253   5.542  10.556 -2.4289  0.3158 -2.0476
 2510TIP3   OH228944   7.123   4.900  12.121 -0.6746 -0.5570 -0.1986
 2510TIP3    H128945   7.039   4.943  12.137  0.3909  2.3918 -2.1470
 2510TIP3    H228946   7.176   4.924  12.196 -0.4458  0.6118 -0.7257
 2511TIP3   OH228947   6.065   4.339  11.143 -0.1317  0.6282  0.0225
 2511TIP3    H128948   6.076   4.370  11.053 -0.1731  0.2635 -0.1076
 2511TIP3    H228949   6.090   4.414  11.197 -0.3972  0.9459 -0.2948
 2512TIP3   OH228950   4.860   2.678  10.039  0.1705 -0.3511  0.1640
 2512TIP3    H128951   4.782   2.655  10.089 -1.9569 -1.1722 -3.3810
 2512TIP3    H228952   4.836   2.663   9.947  3.4458  2.3726 -1.2791
 2513TIP3   OH228953   0.434   1.878  10.136  0.4356  0.0386 -0.4011
 2513TIP3    H128954   0.340   1.881  10.122  0.3465 -0.6855 -0.0140
 2513TIP3    H228955   0.450   1.942  10.205  0.2793  0.4223 -0.7177
 2514TIP3   OH228956   0.007   4.286   9.892 -0.1670  0.5088  0.2836
 2514TIP3    H128957   0.004   4.194   9.917 -0.2737  0.8092  1.4006
 2514TIP3    H228958   0.094   4.316   9.918  0.3282  0.4086 -1.2280
 2515TIP3   OH228959   5.971   3.866   9.971  0.1091  0.1224 -0.3809
 2515TIP3    H128960   5.972   3.795  10.035 -0.5603 -1.3444 -1.9441
 2515TIP3    H228961   5.946   3.823   9.889  0.7932  1.9836 -1.5841
 2516TIP3   OH228962   5.918   6.336  10.127 -0.4049  0.3944  0.1195
 2516TIP3    H128963   5.884   6.307  10.212  3.3648 -1.1382  1.2162
 2516TIP3    H228964   5.957   6.422  10.145  1.0535 -0.2542  0.1682
 2517TIP3   OH228965   5.812   3.142  10.522 -0.2609 -0.1751  0.4607
 2517TIP3    H128966   5.722   3.120  10.496 -0.4174 -1.5026  2.0554
 2517TIP3    H228967   5.861   3.142  10.440 -2.1162  2.6955 -0.7408
 2518TIP3   OH228968   5.801   4.090   9.914 -0.0501 -0.1782  0.0402
 2518TIP3    H128969   5.858   4.127   9.845  0.3403  0.1379  0.5276
 2518TIP3    H228970   5.836   4.002   9.929  1.3355  0.6111  1.4923
 2519TIP3   OH228971   5.295   5.479  13.079  0.1982 -0.1187 -0.3350
 2519TIP3    H128972   5.282   5.407  13.141 -2.9593  0.8838  0.2324
 2519TIP3    H228973   5.342   5.439  13.005 -0.3450 -2.4343  0.5458
 2520TIP3   OH228974   5.353   6.256  13.743 -0.3458  0.1850 -0.3017
 2520TIP3    H128975   5.275   6.205  13.724  0.2671 -0.9541  0.2044
 2520TIP3    H228976   5.410   6.244  13.667  0.8803 -2.0053  0.9208
 2521TIP3   OH228977   6.111   4.050  13.416 -0.0523  0.4392  0.7569
 2521TIP3    H128978   6.018   4.033  13.403  0.3999 -2.0954  0.7361
 2521TIP3    H228979   6.143   4.077  13.330 -0.6010  0.6041  0.6003
 2522TIP3   OH228980   0.190   5.357  11.254 -0.0024 -0.1006 -0.3549
 2522TIP3    H128981   0.173   5.394  11.340 -1.1548 -0.4225 -0.4363
 2522TIP3    H228982   0.248   5.420  11.211  0.4864  0.1087  0.6084
 2523TIP3   OH228983   3.500   4.749  12.186 -0.0252  0.0801  0.1033
 2523TIP3    H128984   3.536   4.665  12.159  0.0480  0.0066  0.4358
 2523TIP3    H228985   3.508   4.805  12.108 -1.1236 -0.5552 -0.4761
 2524TIP3   OH228986   7.141   4.203  11.043  0.0192  0.0249 -0.1222
 2524TIP3    H128987   7.157   4.281  11.096  1.1770 -0.1452 -0.2092
 2524TIP3    H228988   7.144   4.234  10.953  1.5978 -0.3169 -0.1899
 2525TIP3   OH228989   7.014   7.104  12.709  0.0984  0.2818 -0.0947
 2525TIP3    H128990   6.921   7.094  12.727  0.6465 -1.0472  2.1884
 2525TIP3    H228991   7.040   7.183  12.756  0.6056 -0.7312  1.3819
 2526TIP3   OH228992   1.846   0.066  11.366  0.3019 -0.0549  0.4191
 2526TIP3    H128993   1.891   0.117  11.298 -0.3539  1.5886  1.1968
 2526TIP3    H228994   1.907  -0.006  11.386  1.4934  0.7371 -0.2914
 2527TIP3   OH228995   0.451   0.387  10.044  0.7221 -0.3096 -0.0002
 2527TIP3    H128996   0.447   0.387   9.948 -1.5769 -0.7752  0.0788
 2527TIP3    H228997   0.390   0.455  10.071  2.0526  0.4611  1.1461
 2528TIP3   OH228998   6.244   5.683  10.206  0.3641 -0.1627  0.3776
 2528TIP3    H128999   6.296   5.737  10.264  0.2105  0.3145  0.0704
 2528TIP3    H229000   6.162   5.668  10.254  0.5157 -0.3638  0.5797
 2529TIP3   OH229001   7.275   6.953  10.590 -0.3937  0.0231  0.7602
 2529TIP3    H129002   7.187   6.988  10.604 -1.2097 -2.5792  2.3800
 2529TIP3    H229003   7.262   6.877  10.533  0.8234 -0.3932  1.0345
 2530TIP3   OH229004   1.344   6.901   9.935  0.2749 -0.2108  0.4035
 2530TIP3    H129005   1.279   6.887   9.866 -0.7589 -1.7220  1.6459
 2530TIP3    H229006   1.414   6.839   9.913  0.1351 -0.3959  0.4760
 2531TIP3   OH229007   1.400   6.122  10.514 -0.2334 -0.2364  0.9134
 2531TIP3    H129008   1.445   6.038  10.508 -0.8863 -0.5215 -0.1719
 2531TIP3    H229009   1.450   6.180  10.457 -1.4647 -0.6700 -0.6469
 2532TIP3   OH229010   0.917   4.223  12.905  0.3757 -0.3271  0.0196
 2532TIP3    H129011   0.930   4.248  12.996  0.0707 -1.5474  0.3922
 2532TIP3    H229012   0.850   4.283  12.873  1.4762  1.0250  0.1952
 2533TIP3   OH229013   4.956   6.539  10.969 -0.2094  0.3115 -0.2736
 2533TIP3    H129014   4.930   6.450  10.944  0.2132  0.1300 -0.0837
 2533TIP3    H229015   5.016   6.567  10.900  0.7241 -0.0768  0.3604
 2534TIP3   OH229016   6.650   7.052  12.143  0.7054  0.0894  0.0520
 2534TIP3    H129017   6.704   7.132  12.141 -1.2476  1.4474  0.0780
 2534TIP3    H229018   6.667   7.014  12.229 -0.1569  1.8081  1.0262
 2535TIP3   OH229019   0.879   4.496  10.378 -0.3534  0.0164 -0.0551
 2535TIP3    H129020   0.963   4.535  10.401 -0.6827  0.4690  0.3781
 2535TIP3    H229021   0.862   4.432  10.447  0.3285 -1.1167 -0.9243
 2536TIP3   OH229022   2.379   1.035  10.900 -0.1453  0.8916 -0.0358
 2536TIP3    H129023   2.407   0.945  10.916 -0.1028  1.4397  3.1731
 2536TIP3    H229024   2.295   1.025  10.855 -1.5352 -0.8052  2.7926
 2537TIP3   OH229025   0.944   5.495  12.402  0.3904 -0.4048  0.0850
 2537TIP3    H129026   1.031   5.490  12.441  0.8959 -0.9810 -1.0972
 2537TIP3    H229027   0.929   5.409  12.363 -0.9594 -0.5057  0.7876
 2538TIP3   OH229028   0.544   4.823  10.901 -0.3953  0.2882 -0.1388
 2538TIP3    H129029   0.592   4.822  10.818  0.3311  1.1336  0.2538
 2538TIP3    H229030   0.471   4.883  10.885  0.0509  0.8690 -0.0049
 2539TIP3   OH229031   5.363   5.750  10.743 -0.5161 -0.2637 -0.0352
 2539TIP3    H129032   5.415   5.823  10.709 -1.7534 -0.1134 -1.6515
 2539TIP3    H229033   5.277   5.789  10.762 -0.5723 -0.8772  0.9949
 2540TIP3   OH229034   5.749   0.206  11.546 -0.1304 -0.3360  0.4569
 2540TIP3    H129035   5.821   0.232  11.489 -0.6170  0.4463  0.1822
 2540TIP3    H229036   5.672   0.205  11.488 -0.5270 -0.0960  0.9745
 2541TIP3   OH229037   1.867   1.656  12.338  0.4605 -0.1296 -0.1920
 2541TIP3    H129038   1.863   1.564  12.362 -0.3108 -0.0985 -0.1686
 2541TIP3    H229039   1.912   1.657  12.253 -0.9138 -0.6927 -0.9636
 2542TIP3   OH229040   6.737   6.219  10.966  0.2390 -0.2244  0.4277
 2542TIP3    H129041   6.833   6.220  10.967  0.2640 -1.6694  1.8983
 2542TIP3    H229042   6.713   6.145  11.023 -1.7669  1.4468  1.8298
 2543TIP3   OH229043   0.487   6.450  10.156 -0.9902 -0.0644 -0.7519
 2543TIP3    H129044   0.555   6.394  10.118 -1.0560  0.0098 -0.9802
 2543TIP3    H229045   0.433   6.477  10.081 -1.8911 -0.9635 -0.4448
 2544TIP3   OH229046   5.323   5.982  12.118  0.1136  0.3618 -0.5392
 2544TIP3    H129047   5.389   6.051  12.126 -0.8947  1.3612 -0.7621
 2544TIP3    H229048   5.306   5.976  12.024  1.5770 -1.5276 -0.7211
 2545TIP3   OH229049   2.509   5.961  10.442 -0.2016 -0.4158  0.2642
 2545TIP3    H129050   2.505   5.961  10.538 -2.2929  3.2811  0.2702
 2545TIP3    H229051   2.534   6.051  10.420  0.4330 -1.2809 -2.6726
 2546TIP3   OH229052   0.681   5.571  10.952 -0.0894 -0.5082  0.1747
 2546TIP3    H129053   0.701   5.544  11.042 -1.7291  0.9425  0.9849
 2546TIP3    H229054   0.601   5.524  10.930 -0.9700  0.9102  0.3114
 2547TIP3   OH229055   0.922   5.054  10.718  0.4540  0.4572  0.8123
 2547TIP3    H129056   0.988   5.027  10.654 -1.8523 -1.3512 -0.8992
 2547TIP3    H229057   0.863   5.111  10.669 -0.5293  0.2167  1.6994
 2548TIP3   OH229058   1.874   6.964  10.745  0.4674 -0.2159 -0.0988
 2548TIP3    H129059   1.868   6.947  10.651  1.8868  0.0923 -0.2612
 2548TIP3    H229060   1.963   6.937  10.768  0.3730  0.4157  1.0122
 2549TIP3   OH229061   1.850   6.094  11.726 -0.4126 -0.2783  0.0317
 2549TIP3    H129062   1.887   6.182  11.715 -4.2618  1.2487 -1.8861
 2549TIP3    H229063   1.856   6.077  11.820 -1.1374  2.8482  0.7123
 2550TIP3   OH229064   4.345   6.465  10.512  0.2015 -0.1250  0.0637
 2550TIP3    H129065   4.390   6.548  10.496 -0.8610 -0.1625 -3.6927
 2550TIP3    H229066   4.257   6.491  10.540  0.2054  0.0127 -0.0513
 2551TIP3   OH229067   3.028   7.231  10.983  0.1851  0.3129 -0.2751
 2551TIP3    H129068   3.085   7.155  10.975  1.0645  0.9664 -0.2413
 2551TIP3    H229069   2.964   7.206  11.050  0.9349 -0.1027  0.2908
 2552TIP3   OH229070   2.670   6.325  11.678  0.3771  0.4417 -0.0278
 2552TIP3    H129071   2.727   6.348  11.751 -0.6447  0.8761  0.6388
 2552TIP3    H229072   2.591   6.292  11.719 -1.0444  2.6571 -0.8955
 2553TIP3   OH229073   3.402   6.009  11.998 -0.1815 -0.1313 -0.3393
 2553TIP3    H129074   3.473   5.946  11.990  2.2198  2.2173  1.7554
 2553TIP3    H229075   3.423   6.077  11.934  0.1965  1.2349  1.2275
 2554TIP3   OH229076   5.548   6.918  10.460  0.4943 -0.7226 -0.0010
 2554TIP3    H129077   5.484   6.950  10.524 -0.4445 -1.5182 -0.5171
 2554TIP3    H229078   5.559   6.825  10.483  1.7288 -0.5151  0.2892
 2555TIP3   OH229079   0.173   5.293  10.840  0.3675  0.4831 -0.0035
 2555TIP3    H129080   0.213   5.353  10.903  0.0032  0.2666  0.4375
 2555TIP3    H229081   0.247   5.259  10.790  0.9377 -1.2035  1.9188
 2556TIP3   OH229082   2.947   0.462  10.652  0.0684 -0.0479  0.2268
 2556TIP3    H129083   3.032   0.440  10.614  0.3581  0.7496  0.4030
 2556TIP3    H229084   2.919   0.540  10.604 -0.8491 -0.6565 -0.2505
 2557TIP3   OH229085   1.096   7.276  10.456  0.3266 -0.7085  0.3141
 2557TIP3    H129086   1.074   7.288  10.363 -2.1525 -0.6455  0.8711
 2557TIP3    H229087   1.101   7.365  10.490  4.3847 -0.5742 -0.3771
 2558TIP3   OH229088   0.910   7.198  10.635  0.3748  0.2205 -0.5792
 2558TIP3    H129089   0.925   7.103  10.637 -0.9801  0.0058  0.3436
 2558TIP3    H229090   0.972   7.231  10.570  2.7798 -0.9509  1.0342
 2559TIP3   OH229091   7.226   6.768  10.313 -0.3736 -0.3901  0.4290
 2559TIP3    H129092   7.313   6.738  10.289 -0.9778 -1.1142 -0.9219
 2559TIP3    H229093   7.173   6.688  10.315 -0.5858 -0.2076  3.1557
 2560TIP3   OH229094   0.185   6.573  10.384 -0.0053 -0.4041 -0.5319
 2560TIP3    H129095   0.126   6.543  10.313 -1.3530 -0.6550  0.6723
 2560TIP3    H229096   0.234   6.494  10.408 -1.1709 -0.8849  0.3450
 2561TIP3   OH229097   2.047   7.202  11.496  0.2763 -0.1903  0.2941
 2561TIP3    H129098   2.138   7.172  11.494  0.3420  0.1010 -1.4581
 2561TIP3    H229099   2.039   7.246  11.581  0.6390 -3.6335  2.2218
 2562TIP3   OH229100   0.435   5.999  10.810 -0.0599  0.2759  0.2812
 2562TIP3    H129101   0.411   6.052  10.734  1.9498  0.2069 -0.4318
 2562TIP3    H229102   0.417   5.909  10.783  1.5897  0.1617 -0.5187
 2563TIP3   OH229103   0.836   5.854  11.387 -0.1114  0.6111  0.3013
 2563TIP3    H129104   0.801   5.942  11.374  0.6713  0.8957  0.0697
 2563TIP3    H229105   0.886   5.860  11.469 -0.8789  0.1242  0.8079
 2564TIP3   OH229106   3.316   1.029  11.954 -0.0429  0.1433  0.0075
 2564TIP3    H129107   3.388   1.053  12.011  0.4686 -0.5611 -0.3339
 2564TIP3    H229108   3.244   1.008  12.014 -0.3185  1.9265  0.3185
 2565TIP3   OH229109   1.569   6.733  10.461  0.4190 -0.5100 -0.0498
 2565TIP3    H129110   1.548   6.827  10.460  1.5818 -0.1926  1.6570
 2565TIP3    H229111   1.562   6.709  10.554  1.2973 -1.8321 -0.3186
 2566TIP3   OH229112   6.921   0.091  11.555 -0.1877 -0.2784  0.1688
 2566TIP3    H129113   6.842   0.063  11.509  1.2813 -1.4689 -1.6550
 2566TIP3    H229114   6.989   0.030  11.527  1.5360  1.0642  1.2964
 2567TIP3   OH229115   1.776   5.360  12.059  0.3105 -0.2381  0.0083
 2567TIP3    H129116   1.801   5.268  12.068 -0.2292 -0.4550 -0.7200
 2567TIP3    H229117   1.857   5.408  12.077  0.8225 -0.8828 -0.5602
 2568TIP3   OH229118   6.946   6.580  10.609 -0.2497 -0.2806 -0.1778
 2568TIP3    H129119   6.984   6.520  10.544 -0.1223 -1.2712  0.7884
 2568TIP3    H229120   6.896   6.643  10.557 -2.0082 -2.3870 -1.1352
 2569TIP3   OH229121   0.784   4.995  10.954  0.4999  0.4954 -0.2995
 2569TIP3    H129122   0.698   4.965  10.926  0.6687 -1.2282  0.8766
 2569TIP3    H229123   0.837   4.997  10.874 -0.4714  0.9898 -0.9295
 2570TIP3   OH229124   0.417   5.634  11.755  0.4659  0.2076 -0.1466
 2570TIP3    H129125   0.409   5.540  11.773  1.4457 -0.0100 -0.8066
 2570TIP3    H229126   0.505   5.644  11.719 -0.2042  1.1551 -1.5584
 2571TIP3   OH229127   2.132   5.584  13.243  0.1326  0.3825 -0.0713
 2571TIP3    H129128   2.212   5.585  13.192  0.2552 -1.1440  0.0472
 2571TIP3    H229129   2.162   5.582  13.334 -0.0019 -1.1179 -0.0433
 2572TIP3   OH229130   7.054   6.210  10.498  0.3080  1.0280 -0.1778
 2572TIP3    H129131   6.997   6.208  10.575 -0.5081 -0.6849 -0.8124
 2572TIP3    H229132   7.039   6.296  10.459 -1.2363  0.8966  0.1100
 2573TIP3   OH229133   1.765   4.586  11.107  0.5042  0.3889  0.2645
 2573TIP3    H129134   1.688   4.536  11.079 -0.2944  1.7473 -0.0482
 2573TIP3    H229135   1.755   4.594  11.202 -0.6486  2.0050  0.0200
 2574TIP3   OH229136   1.746   3.752  10.633  0.4014  0.3642 -0.4892
 2574TIP3    H129137   1.765   3.818  10.700  0.1051  0.7379 -0.7742
 2574TIP3    H229138   1.786   3.672  10.667 -2.5947 -0.2614  1.8033
 2575TIP3   OH229139   0.063   5.358  11.771  0.2510  0.1335  0.3945
 2575TIP3    H129140   0.033   5.308  11.847  0.7654  0.7656  1.0163
 2575TIP3    H229141   0.110   5.433  11.808  1.6832 -0.2704 -0.5444
 2576TIP3   OH229142   1.226   6.673  12.107 -0.6804  0.2167 -0.1059
 2576TIP3    H129143   1.299   6.716  12.063 -0.7767 -0.0826 -0.5656
 2576TIP3    H229144   1.158   6.668  12.040 -1.0193  0.2361  0.2377
 2577TIP3   OH229145   1.710   2.424  11.091  0.2176  0.3940 -0.2900
 2577TIP3    H129146   1.632   2.477  11.075  0.3792  0.7939  0.2303
 2577TIP3    H229147   1.784   2.483  11.075  0.4576 -0.4570 -2.4826
 2578TIP3   OH229148   0.425   5.713  10.750  0.4117  0.3131  0.1719
 2578TIP3    H129149   0.451   5.638  10.805  0.5293  0.8421  0.8484
 2578TIP3    H229150   0.340   5.688  10.714  1.2606 -0.8917 -1.0245
 2579TIP3   OH229151   6.979   6.166  10.202  0.1274  0.3194  0.2153
 2579TIP3    H129152   6.938   6.247  10.175  0.7799 -0.1652 -2.3850
 2579TIP3    H229153   7.072   6.187  10.210  0.0733  0.2230  1.2263
 2580TIP3   OH229154   1.459   6.349  11.621  0.3693 -0.0292 -0.2463
 2580TIP3    H129155   1.389   6.291  11.591  0.4846  0.7461 -2.0880
 2580TIP3    H229156   1.432   6.377  11.708 -1.7758  0.5231 -1.0669
 2581TIP3   OH229157   5.996   0.136  11.013  0.3186  0.4023 -0.6784
 2581TIP3    H129158   6.070   0.191  11.039  0.6685 -1.1177  1.7372
 2581TIP3    H229159   5.919   0.192  11.026  0.7600  0.7403  0.5760
 2582TIP3   OH229160   7.027   6.859  10.149  0.0405 -0.5691  0.1068
 2582TIP3    H129161   7.090   6.803  10.195 -0.7904 -2.2322 -0.7712
 2582TIP3    H229162   6.943   6.816  10.160 -0.5114  0.1706 -1.1285
 2583TIP3   OH229163   0.361   5.042  10.850 -0.2598  0.0593 -0.4887
 2583TIP3    H129164   0.284   4.990  10.872 -1.3846  1.4021 -1.1501
 2583TIP3    H229165   0.385   5.084  10.933 -0.6676  0.1772 -0.4248
 2584TIP3   OH229166   1.136   5.191  12.687  0.3306  0.2241 -0.0457
 2584TIP3    H129167   1.161   5.150  12.769 -0.0847 -2.0333 -1.0084
 2584TIP3    H229168   1.074   5.260  12.712  1.3347  0.5448  1.6313
 2585TIP3   OH229169   6.475   6.462  10.604  0.4289 -0.1818 -0.1715
 2585TIP3    H129170   6.465   6.392  10.667  1.9761 -1.3799 -1.2260
 2585TIP3    H229171   6.473   6.542  10.656  1.4780 -1.1378  1.3549
 2586TIP3   OH229172   6.580   0.231  11.231 -0.6826 -0.0274 -0.4954
 2586TIP3    H129173   6.622   0.318  11.229 -2.1197  0.6936  0.2117
 2586TIP3    H229174   6.568   0.209  11.138  1.1545 -0.2147 -0.7130
 2587TIP3   OH229175   0.632   5.821   9.741 -0.1460  0.2237 -0.2099
 2587TIP3    H129176   0.577   5.823   9.663 -0.4153  1.2668  0.0048
 2587TIP3    H229177   0.667   5.910   9.748 -0.6119  0.3003  1.2078
 2588TIP3   OH229178   0.516   0.383   9.777 -0.2158 -0.0177  0.1787
 2588TIP3    H129179   0.530   0.313   9.714  2.0617 -0.3925  1.0676
 2588TIP3    H229180   0.579   0.451   9.754 -0.6208  0.6271  0.9162
 2589TIP3   OH229181   3.543   0.183  11.031 -0.4076 -0.1294 -0.8317
 2589TIP3    H129182   3.457   0.147  11.052  0.5317 -1.6363  0.4837
 2589TIP3    H229183   3.547   0.179  10.936 -2.1581  0.8490 -0.9863
 2590TIP3   OH229184   2.026   6.176  10.752 -0.3040  0.0605 -0.5409
 2590TIP3    H129185   1.946   6.129  10.772  0.5137 -1.0874  0.0899
 2590TIP3    H229186   2.064   6.195  10.838 -0.5227  1.7085 -0.7921
 2591TIP3   OH229187   0.689   6.247  10.337 -0.0841  0.2008  0.0892
 2591TIP3    H129188   0.729   6.328  10.367 -0.2877  0.1087  0.6162
 2591TIP3    H229189   0.666   6.264  10.246  0.4856  0.5046  0.0042
 2592TIP3   OH229190   1.102   6.002   9.838  0.5545 -0.4372  0.5041
 2592TIP3    H129191   1.173   6.042   9.788  1.6324 -1.4854  1.1679
 2592TIP3    H229192   1.028   6.001   9.778  1.3468 -0.1122 -0.4939
 2593TIP3   OH229193   6.756   7.219  10.615 -0.1315 -0.1866 -0.5940
 2593TIP3    H129194   6.705   7.274  10.674  0.3053  0.8106 -1.1334
 2593TIP3    H229195   6.704   7.139  10.605 -0.1397 -0.4299  1.2442
 2594TIP3   OH229196   0.602   6.275  12.610  0.2670 -0.8562 -0.6813
 2594TIP3    H129197   0.553   6.345  12.567 -3.1621 -1.8931  1.3556
 2594TIP3    H229198   0.681   6.317  12.643  0.5115  1.0068 -3.5251
 2595TIP3   OH229199   2.186   6.399  12.232  0.1495 -0.3127 -0.2619
 2595TIP3    H129200   2.272   6.409  12.190  0.2297 -1.5214 -0.3917
 2595TIP3    H229201   2.185   6.309  12.264 -0.4313  0.1981  1.1914
 2596TIP3   OH229202   2.534   0.205  10.275  0.5126 -0.6724  0.3431
 2596TIP3    H129203   2.605   0.264  10.251  1.1517 -1.4632  0.3033
 2596TIP3    H229204   2.457   0.242  10.232  0.6844  0.7751  1.2250
 2597TIP3   OH229205   1.492   6.358   9.912  0.1102  0.1678  0.4581
 2597TIP3    H129206   1.535   6.413   9.846 -0.9999  0.1091 -0.3319
 2597TIP3    H229207   1.461   6.420   9.978  0.3056  0.3333  0.3959
 2598TIP3   OH229208   3.436   5.039  11.797 -0.1102 -0.0039 -0.6162
 2598TIP3    H129209   3.508   5.043  11.734  0.4170  2.5951  0.0744
 2598TIP3    H229210   3.477   5.056  11.881 -0.9787 -2.3703  0.3286
 2599TIP3   OH229211   0.330   4.726  14.520  0.0419  0.1335 -0.4225
 2599TIP3    H129212   0.347   4.760  14.608 -0.3156 -0.5335 -0.0918
 2599TIP3    H229213   0.335   4.803  14.464 -1.9879  0.9740  0.4793
 2600TIP3   OH229214   0.454   6.752  10.307 -0.4381 -0.3549 -0.3046
 2600TIP3    H129215   0.388   6.726  10.372 -1.9840  1.8748 -0.8880
 2600TIP3    H229216   0.418   6.722  10.224  0.2345 -0.8233 -0.4300
 2601TIP3   OH229217   0.073   6.476  11.930 -0.2256 -0.0603 -0.2178
 2601TIP3    H129218   0.074   6.523  11.847  0.4451  0.4856  0.0902
 2601TIP3    H229219  -0.011   6.498  11.969 -0.5766 -0.3790 -0.7797
 2602TIP3   OH229220   1.602   0.179  10.949 -0.1723  0.2008 -0.4842
 2602TIP3    H129221   1.624   0.088  10.967  0.7619  0.7097  1.0657
 2602TIP3    H229222   1.668   0.207  10.886 -0.1711 -0.0637 -0.6022
 2603TIP3   OH229223   1.320   4.827  10.842  0.2465  0.2995  0.0333
 2603TIP3    H129224   1.306   4.835  10.747  1.3164  1.1070 -0.0686
 2603TIP3    H229225   1.235   4.802  10.877 -0.6503  1.9400 -0.9100
 2604TIP3   OH229226   0.959   5.497  13.398 -0.4290  0.1045  0.5828
 2604TIP3    H129227   1.043   5.541  13.394 -0.5749  0.5236  1.8352
 2604TIP3    H229228   0.896   5.567  13.414 -0.9426 -0.2838  0.2809
 2605TIP3   OH229229   0.015   6.674  12.748 -0.2723 -0.1536  0.5220
 2605TIP3    H129230   0.006   6.646  12.657 -1.2045  0.3812  0.4417
 2605TIP3    H229231  -0.046   6.748  12.756 -0.2546 -0.2534  1.6036
 2606TIP3   OH229232   0.269   6.683  10.118 -0.0832  0.3028 -0.8371
 2606TIP3    H129233   0.318   6.638  10.049  2.9365 -0.0895  1.4537
 2606TIP3    H229234   0.200   6.622  10.142  1.8529 -1.6904 -0.1655
 2607TIP3   OH229235   1.499   3.428  12.512  0.2844 -0.1619  0.0532
 2607TIP3    H129236   1.572   3.486  12.531  0.1488 -0.0273  0.1641
 2607TIP3    H229237   1.508   3.356  12.575  0.3343 -0.1564  0.0516
 2608TIP3   OH229238   1.154   6.914   9.702  0.7637  0.0809  0.3477
 2608TIP3    H129239   1.086   6.956   9.650 -0.2470  0.5388  2.0093
 2608TIP3    H229240   1.119   6.827   9.723 -0.1310  0.9902  2.7596
 2609TIP3   OH229241   7.256   6.685  11.487 -0.8377  0.0207 -0.0379
 2609TIP3    H129242   7.279   6.759  11.543 -1.7566 -0.7434  1.3855
 2609TIP3    H229243   7.327   6.622  11.499 -1.4016 -0.4527  0.8562
 2610TIP3   OH229244   7.301   6.043  10.279  0.4240 -0.3160  0.4723
 2610TIP3    H129245   7.261   6.129  10.270 -0.7054 -0.6749  1.7844
 2610TIP3    H229246   7.317   6.014  10.190  0.1153  0.9326  0.0009
 2611TIP3   OH229247   6.996   0.399  10.441  0.1652 -0.7894 -0.0763
 2611TIP3    H129248   7.029   0.362  10.360  1.3208  1.9401 -0.9051
 2611TIP3    H229249   6.921   0.452  10.415 -0.0845 -0.7042  0.7969
 2612TIP3   OH229250   2.947   4.916  13.232  0.3969  0.5816 -0.6432
 2612TIP3    H129251   2.922   4.831  13.197 -0.0261  0.4350  0.0115
 2612TIP3    H229252   2.998   4.957  13.162  1.8975 -0.8231 -0.4013
 2613TIP3   OH229253   1.158   6.446  10.815 -0.4024 -0.0373 -0.3030
 2613TIP3    H129254   1.201   6.374  10.861 -1.7872 -0.9264 -0.3743
 2613TIP3    H229255   1.210   6.458  10.736  2.1516  1.6647  1.5173
 2614TIP3   OH229256   0.234   5.830  10.159 -0.0178  0.2663  0.1746
 2614TIP3    H129257   0.158   5.866  10.114 -0.3895  1.5434  1.7490
 2614TIP3    H229258   0.300   5.818  10.090 -1.1929  0.4003 -0.9817
 2615TIP3   OH229259   7.078   6.409  11.714 -0.0310 -0.2119 -0.3326
 2615TIP3    H129260   6.988   6.377  11.707 -0.1955  0.5732 -1.9631
 2615TIP3    H229261   7.105   6.423  11.623  2.3972 -2.2272  0.0238
 2616TIP3   OH229262   4.363   0.148  12.533  0.0869 -0.9284 -0.0914
 2616TIP3    H129263   4.425   0.102  12.477 -0.5241 -1.4942 -0.3042
 2616TIP3    H229264   4.301   0.081  12.561  0.0803 -0.5493  0.8435
 2617TIP3   OH229265   0.429   7.044  10.247  0.4412  0.2134  0.4402
 2617TIP3    H129266   0.429   6.951  10.266  0.3454  0.1201 -0.0211
 2617TIP3    H229267   0.349   7.059  10.197 -0.0881  0.7262  1.4031
 2618TIP3   OH229268   1.398   6.597  10.071  0.5107  0.0208  0.2416
 2618TIP3    H129269   1.456   6.645  10.011  0.9978 -0.8943 -0.0338
 2618TIP3    H229270   1.310   6.629  10.050  0.6513 -0.4440 -1.1208
 2619TIP3   OH229271   6.826   0.250  13.472  0.3242  0.6539 -0.1828
 2619TIP3    H129272   6.742   0.231  13.429 -0.0788  0.2139  0.7941
 2619TIP3    H229273   6.815   0.338  13.507  0.1748  0.5043  0.1542
 2620TIP3   OH229274   1.518   0.889  10.676 -0.5471 -0.3086  0.2785
 2620TIP3    H129275   1.569   0.859  10.751  1.6600 -0.3041 -1.2007
 2620TIP3    H229276   1.508   0.811  10.621 -1.1526 -0.0355 -0.0053
 2621TIP3   OH229277   2.137   5.789  10.795  0.2069  0.0588 -0.3233
 2621TIP3    H129278   2.056   5.777  10.845  0.4480  1.7995  0.5044
 2621TIP3    H229279   2.204   5.742  10.844 -0.1935 -0.9495 -0.7328
 2622TIP3   OH229280   0.866   4.962  11.329 -0.1415 -0.1496 -0.4093
 2622TIP3    H129281   0.869   5.057  11.340  0.5010  0.0451 -2.0541
 2622TIP3    H229282   0.774   4.944  11.309  0.1895  0.4855 -2.7245
 2623TIP3   OH229283   6.930   0.885  10.943 -0.2484  0.2887 -0.3174
 2623TIP3    H129284   6.993   0.935  10.892  0.6355 -1.1208 -0.6195
 2623TIP3    H229285   6.981   0.848  11.014 -0.7959 -0.6087 -0.3912
 2624TIP3   OH229286   6.264   6.837  11.208  0.0260 -0.1781  1.0788
 2624TIP3    H129287   6.287   6.895  11.136  0.1172 -0.9149  0.4995
 2624TIP3    H229288   6.173   6.813  11.191  0.3077 -1.0367  0.7093
 2625TIP3   OH229289   0.704   6.328  10.758 -0.5217  0.1194  0.0640
 2625TIP3    H129290   0.792   6.301  10.784  0.0922  1.5854 -0.4403
 2625TIP3    H229291   0.700   6.421  10.777 -1.3127  0.4662 -1.6615
 2626TIP3   OH229292   0.795   5.511  12.128 -0.0199 -0.3715 -0.3675
 2626TIP3    H129293   0.857   5.458  12.178 -0.7299 -0.8495  0.0163
 2626TIP3    H229294   0.845   5.588  12.101  0.5384 -0.4036  0.5587
 2627TIP3   OH229295   1.232   5.110  10.914 -0.4168 -0.2507 -0.2981
 2627TIP3    H129296   1.256   5.018  10.905 -1.2660 -0.4317 -0.7113
 2627TIP3    H229297   1.223   5.124  11.009 -0.2250 -0.5741 -0.2332
 2628TIP3   OH229298   6.215   0.222  10.760 -0.0740  0.1877  0.1558
 2628TIP3    H129299   6.205   0.271  10.679  0.1387  0.7605  0.4737
 2628TIP3    H229300   6.157   0.147  10.750 -1.9488  1.5632  0.4992
 2629TIP3   OH229301   3.124   5.146  12.543 -0.4751 -0.2084  0.3680
 2629TIP3    H129302   3.145   5.074  12.484  0.4561 -0.5154  1.0554
 2629TIP3    H229303   3.130   5.225  12.489 -1.1336 -0.6114 -0.3017
 2630TIP3   OH229304   0.906   5.989  10.665 -0.2342 -0.0075  0.1151
 2630TIP3    H129305   0.845   6.022  10.731 -1.4441 -0.4011 -0.7859
 2630TIP3    H229306   0.928   5.900  10.695 -0.6850 -0.1399  0.0509
 2631TIP3   OH229307   6.825   6.354  11.628 -0.2485  0.4884  0.2200
 2631TIP3    H129308   6.736   6.321  11.644 -0.1439 -0.4905 -1.0625
 2631TIP3    H229309   6.825   6.377  11.535  0.5412  1.4618  0.4559
 2632TIP3   OH229310   7.279   5.200  10.031  0.1353 -0.2157  0.9441
 2632TIP3    H129311   7.269   5.199   9.936  1.8833  0.3279  0.7464
 2632TIP3    H229312   7.275   5.107  10.056  1.5768 -0.5284  0.1154
 2633TIP3   OH229313   3.116   5.257  12.261  0.1293 -0.2949 -0.4036
 2633TIP3    H129314   3.104   5.235  12.169  2.2359 -0.8939 -0.5531
 2633TIP3    H229315   3.210   5.248  12.277 -0.2863 -0.8877  1.9885
 2634TIP3   OH229316   1.022   4.874  10.181 -0.6638 -0.2854  0.6467
 2634TIP3    H129317   0.927   4.875  10.193 -0.5162 -1.9271  2.2124
 2634TIP3    H229318   1.047   4.782  10.196  1.3777  0.4784  2.1117
 2635TIP3   OH229319   2.018   4.059  10.745  0.2655  0.0126  0.6603
 2635TIP3    H129320   2.109   4.044  10.718  0.9115  1.1940  2.0913
 2635TIP3    H229321   2.003   4.151  10.726 -1.2371 -0.5989 -1.2145
 2636TIP3   OH229322   2.311   7.136  11.567 -0.7659 -0.3668 -0.3742
 2636TIP3    H129323   2.315   7.086  11.648 -2.1667  1.4571  0.8552
 2636TIP3    H229324   2.387   7.106  11.516 -0.3483 -2.1180  1.2346
 2637TIP3   OH229325   1.587   4.154  10.811 -0.3942 -0.4396  0.3684
 2637TIP3    H129326   1.622   4.159  10.722  0.3702  0.7774  0.7239
 2637TIP3    H229327   1.494   4.136  10.800 -0.0217 -1.7768 -0.6384
 2638TIP3   OH229328   1.765   6.889  11.356  0.6885  0.5995  0.5618
 2638TIP3    H129329   1.774   6.878  11.451 -1.2426  0.6213  0.7647
 2638TIP3    H229330   1.672   6.877  11.339  1.2690 -1.3109 -1.6050
 2639TIP3   OH229331   0.928   6.649  11.484  0.1310  0.0165  0.4813
 2639TIP3    H129332   0.879   6.717  11.531  1.1176  1.0379  0.0549
 2639TIP3    H229333   1.017   6.655  11.519 -0.2170 -2.4189  1.8724
 2640TIP3   OH229334   6.158   5.792  11.789 -0.2478  0.0817  0.3594
 2640TIP3    H129335   6.182   5.800  11.881  1.3639  1.5205 -0.1664
 2640TIP3    H229336   6.240   5.769  11.745 -1.0999 -1.0299 -0.6633
 2641TIP3   OH229337   4.247   7.220  12.629  0.2776 -0.3223  0.2686
 2641TIP3    H129338   4.188   7.167  12.576 -0.3740 -0.6737  1.3306
 2641TIP3    H229339   4.208   7.219  12.717 -0.3959  2.8926  0.0591
 2642TIP3   OH229340   2.258   6.104  10.559  0.1901  0.3638 -0.1465
 2642TIP3    H129341   2.342   6.062  10.578  0.7586  0.8430 -1.5837
 2642TIP3    H229342   2.192   6.038  10.580  1.0282 -0.8573 -1.3260
 2643TIP3   OH229343   3.150   0.066  11.450  0.0507  0.2196  0.1394
 2643TIP3    H129344   3.139   0.087  11.543  3.2191  0.4430  0.5394
 2643TIP3    H229345   3.068   0.093  11.409 -0.6245  2.0120  2.5561
 2644TIP3   OH229346   3.970   1.482  10.774 -0.2772  0.5008  0.4777
 2644TIP3    H129347   3.902   1.435  10.823 -0.3035  0.1788  0.1272
 2644TIP3    H229348   3.931   1.568  10.758 -1.8840 -0.6974 -2.4668
 2645TIP3   OH229349   7.206   6.400  10.874 -0.0225  0.5618 -0.1841
 2645TIP3    H129350   7.262   6.435  10.805 -1.2093  1.9019 -0.4903
 2645TIP3    H229351   7.222   6.458  10.949 -0.2065  0.3114  0.0487
 2646TIP3   OH229352   2.385   0.787  10.801 -0.2197  0.1384  0.3915
 2646TIP3    H129353   2.424   0.706  10.834 -0.2658  0.5828  1.5536
 2646TIP3    H229354   2.420   0.796  10.713  0.2452 -0.8452  0.4700
 2647TIP3   OH229355   1.455   5.432  13.156  0.7126 -0.0377 -0.1224
 2647TIP3    H129356   1.506   5.433  13.075  0.7139  0.0670 -0.1215
 2647TIP3    H229357   1.503   5.491  13.214 -0.8982  2.2895 -1.0469
 2648TIP3   OH229358   1.183   5.430  10.397 -0.1784 -0.3731 -0.3119
 2648TIP3    H129359   1.207   5.523  10.392 -1.9719  0.1541  0.3222
 2648TIP3    H229360   1.217   5.391  10.317  0.0796  0.9581 -0.8552
 2649TIP3   OH229361   1.437   5.363  11.127 -0.2821  0.1374 -0.0738
 2649TIP3    H129362   1.494   5.287  11.139 -0.3851  0.1912  0.7870
 2649TIP3    H229363   1.379   5.338  11.055  0.0737 -0.3683 -0.1843
 2650TIP3   OH229364   1.394   4.229  11.055  0.3552  0.3385  0.0741
 2650TIP3    H129365   1.364   4.225  10.964 -1.3383  0.3669  0.6031
 2650TIP3    H229366   1.405   4.138  11.081  0.5554  0.3215 -0.0714
 2651TIP3   OH229367   6.583   4.242  12.188  0.0920 -0.6165 -0.2790
 2651TIP3    H129368   6.543   4.155  12.180 -0.0286 -0.7348  1.3915
 2651TIP3    H229369   6.676   4.224  12.201  0.4611 -0.3955 -2.4613
 2652TIP3   OH229370   6.426   0.200  11.562 -0.0369 -0.4475 -0.4616
 2652TIP3    H129371   6.384   0.114  11.564  0.8274 -0.8621  0.3625
 2652TIP3    H229372   6.414   0.235  11.650 -0.0034  0.0974 -0.6693
 2653TIP3   OH229373   6.677   4.987  10.045  0.5191  0.5160 -0.3245
 2653TIP3    H129374   6.713   4.938   9.971 -0.2616  1.0496 -1.0616
 2653TIP3    H229375   6.710   5.076  10.033  1.0314  0.4367  0.4087
 2654TIP3   OH229376   0.407   3.096  10.633 -0.3758  0.3165  0.1550
 2654TIP3    H129377   0.340   3.078  10.567 -0.0825 -0.8070  0.1513
 2654TIP3    H229378   0.443   3.181  10.608 -0.4001 -0.0110 -1.0238
 2655TIP3   OH229379   0.230   6.895  11.217 -0.1243  0.1705 -0.0691
 2655TIP3    H129380   0.220   6.938  11.302  1.8688  1.0551 -0.2485
 2655TIP3    H229381   0.188   6.810  11.229 -0.4511  0.5283  1.5920
 2656TIP3   OH229382   1.100   6.572  13.817  0.3890 -0.1787  0.2812
 2656TIP3    H129383   1.194   6.558  13.804  0.2237 -1.7797  0.7367
 2656TIP3    H229384   1.068   6.489  13.851 -1.2701  0.2447 -0.2217
 2657TIP3   OH229385   5.956   5.623  10.280  0.8720  0.4491 -0.5988
 2657TIP3    H129386   5.943   5.574  10.199 -1.8671  2.6594 -1.5933
 2657TIP3    H229387   5.890   5.589  10.339 -0.0983  1.9270 -0.8192
 2658TIP3   OH229388   6.900   5.455  10.935  0.1445  0.3888 -0.2979
 2658TIP3    H129389   6.911   5.484  11.025  0.6428  0.3654 -0.3501
 2658TIP3    H229390   6.855   5.527  10.891  0.8683  0.8550 -0.2892
 2659TIP3   OH229391   1.227   5.883  11.542 -0.5737  0.0932  0.0901
 2659TIP3    H129392   1.141   5.841  11.530  0.6598 -2.5688  0.2734
 2659TIP3    H229393   1.247   5.870  11.634  0.2617  0.2782 -0.0627
 2660TIP3   OH229394   5.837   6.150  11.205  0.6698  0.0075  0.2049
 2660TIP3    H129395   5.828   6.230  11.153 -4.2043 -1.9365 -2.2825
 2660TIP3    H229396   5.782   6.164  11.282  2.5291  0.2886  1.5223
 2661TIP3   OH229397   2.027   7.131  10.251 -0.2099  0.0426  0.4411
 2661TIP3    H129398   1.995   7.164  10.167 -1.1289  2.1781  1.5878
 2661TIP3    H229399   2.031   7.036  10.240 -1.1645  0.2265 -1.7113
 2662TIP3   OH229400   7.271   0.395  12.090  0.0088  0.3521  0.0494
 2662TIP3    H129401   7.298   0.486  12.103  0.2673  0.4970 -1.3456
 2662TIP3    H229402   7.240   0.393  11.999 -0.3741 -0.8615  0.2048
 2663TIP3   OH229403   1.216   5.014  10.066 -0.7019 -0.0339 -0.0793
 2663TIP3    H129404   1.165   5.058   9.998 -0.2224 -1.4195 -1.3357
 2663TIP3    H229405   1.151   4.964  10.115 -1.0800  1.1410  0.6513
 2664TIP3   OH229406   1.131   5.926  10.312 -0.1538  0.0941 -0.6021
 2664TIP3    H129407   1.197   5.965  10.255 -0.8115  0.3432 -1.2032
 2664TIP3    H229408   1.179   5.861  10.364  0.5869  0.3830 -0.9228
 2665TIP3   OH229409   1.853   6.417   9.788 -0.5108  0.5518  0.4851
 2665TIP3    H129410   1.902   6.491   9.752 -1.5006  2.0996  2.2238
 2665TIP3    H229411   1.763   6.448   9.791 -1.1911 -1.3248 -0.2404
 2666TIP3   OH229412   6.075   6.288  10.933 -0.1190  0.2592  0.1085
 2666TIP3    H129413   6.005   6.232  10.900  1.2574 -1.1349 -0.5366
 2666TIP3    H229414   6.052   6.305  11.024 -0.3653 -1.7148  0.4353
 2667TIP3   OH229415   1.711   5.578  10.440 -0.0136 -0.0672  0.1256
 2667TIP3    H129416   1.757   5.659  10.463  0.4893 -0.7349  1.5005
 2667TIP3    H229417   1.689   5.589  10.348  1.7793  0.8009 -0.2128
 2668TIP3   OH229418   1.082   5.577  10.020 -0.6000 -0.1918 -0.3586
 2668TIP3    H129419   1.139   5.505  10.047 -0.1444 -0.3861 -1.7868
 2668TIP3    H229420   1.042   5.547   9.938 -1.0666  0.8350 -0.5208
 2669TIP3   OH229421   3.102   0.269  10.898 -0.1544 -0.7316  0.5747
 2669TIP3    H129422   3.092   0.221  10.816 -0.6883 -0.7409  0.6414
 2669TIP3    H229423   3.068   0.210  10.965 -2.5843  0.4453  0.4315
 2670TIP3   OH229424   5.736   5.983  12.251 -0.4849 -0.1385 -0.2986
 2670TIP3    H129425   5.770   6.060  12.205 -0.3205  0.7540  1.2740
 2670TIP3    H229426   5.701   5.927  12.181  0.1629  0.9645 -1.5423
 2671TIP3   OH229427   2.096   1.439  10.282  0.8161 -0.0631 -0.0561
 2671TIP3    H129428   2.063   1.364  10.232 -1.8806 -0.2840  1.9313
 2671TIP3    H229429   2.051   1.515  10.245 -1.1989 -0.2274  1.9116
 2672TIP3   OH229430   1.385   5.918  11.306  0.2836  0.5499  0.0127
 2672TIP3    H129431   1.320   5.865  11.351  0.2795 -1.6390 -2.4489
 2672TIP3    H229432   1.469   5.887  11.341  0.2737 -1.0123 -1.3047
 2673TIP3   OH229433   3.559   0.015  15.489 -0.1273  0.3974 -0.1523
 2673TIP3    H129434   3.527   0.077  15.555  0.8339  0.7601 -0.0111
 2673TIP3    H229435   3.652   0.003  15.511 -0.0099 -0.1416 -0.9255
 2674TIP3   OH229436   2.655   4.180  11.574 -0.6037 -0.1189 -0.4487
 2674TIP3    H129437   2.670   4.184  11.668 -0.4800 -1.2822 -0.4102
 2674TIP3    H229438   2.582   4.240  11.558  1.0478  2.1028  0.0086
 2675TIP3   OH229439   5.616   7.257  10.525  0.5957  0.3011  0.5420
 2675TIP3    H129440   5.683   7.296  10.582  0.5019  0.3999  0.5837
 2675TIP3    H229441   5.638   7.164  10.523  2.6282  0.7638 -1.9113
 2676TIP3   OH229442   0.839   6.382  11.536  0.4962 -0.0723  0.0398
 2676TIP3    H129443   0.879   6.455  11.488  0.1161  1.1721  1.5399
 2676TIP3    H229444   0.913   6.336  11.576  0.6719  0.0590 -0.1320
 2677TIP3   OH229445   4.137   6.382  11.076  0.3207 -0.2062 -0.5365
 2677TIP3    H129446   4.158   6.454  11.135 -3.4818 -0.1261  0.8769
 2677TIP3    H229447   4.176   6.305  11.115  0.0827  0.2897  0.6864
 2678TIP3   OH229448   0.136   6.425  10.727 -0.4842  0.5663 -0.2147
 2678TIP3    H129449   0.189   6.446  10.804 -1.6556 -2.7041  1.5707
 2678TIP3    H229450   0.200   6.394  10.662  0.0808 -1.0468  1.0728
 2679TIP3   OH229451   2.761   6.992  11.743  0.5737 -0.5139  0.4745
 2679TIP3    H129452   2.736   7.080  11.714  0.7410 -1.0040 -1.2170
 2679TIP3    H229453   2.831   7.007  11.806 -0.1326  0.6165  1.0080
 2680TIP3   OH229454   2.242   0.083  10.844 -0.3217  0.5231 -0.2170
 2680TIP3    H129455   2.200   0.054  10.764  0.0912  0.0964 -0.2733
 2680TIP3    H229456   2.317   0.026  10.855 -0.9307 -0.0625  0.9932
 2681TIP3   OH229457   2.653   5.691  11.097  0.6562  0.0170 -1.1985
 2681TIP3    H129458   2.661   5.630  11.024 -1.1903 -1.4300 -0.2344
 2681TIP3    H229459   2.665   5.637  11.175 -2.5517  0.5300 -0.2661
 2682TIP3   OH229460   1.596   6.386  11.927  0.7863 -0.1423  0.2826
 2682TIP3    H129461   1.625   6.316  11.869  0.1240 -0.9091  0.8697
 2682TIP3    H229462   1.673   6.408  11.980  0.2342 -2.4144  2.0936
 2683TIP3   OH229463   2.875   1.560  11.550 -0.4458 -0.3803 -0.3408
 2683TIP3    H129464   2.838   1.505  11.619  0.0538  0.8794  0.9494
 2683TIP3    H229465   2.845   1.649  11.571  3.3400  0.7295  0.8384
 2684TIP3   OH229466   0.257   6.170  10.984  0.5883 -0.2911  0.7035
 2684TIP3    H129467   0.323   6.109  10.950  0.7986  1.7891 -2.8126
 2684TIP3    H229468   0.183   6.162  10.924 -0.2462  1.3449  1.4780
 2685TIP3   OH229469   4.739   6.025  13.475  0.2139  0.2674  0.7739
 2685TIP3    H129470   4.707   6.081  13.404 -1.6996 -1.5987  0.0962
 2685TIP3    H229471   4.743   5.938  13.436  0.9432 -0.4684  2.4568
 2686TIP3   OH229472   6.965   0.111  10.648 -0.0960 -0.6234  0.3559
 2686TIP3    H129473   6.903   0.042  10.626  1.3215 -1.5206 -1.0097
 2686TIP3    H229474   6.937   0.186  10.595 -0.3809 -0.8324  0.2104
 2687TIP3   OH229475   1.278   6.614  11.701 -0.0858 -0.5933 -0.1112
 2687TIP3    H129476   1.208   6.638  11.761  0.9927  2.4772  0.0445
 2687TIP3    H229477   1.256   6.659  11.619  0.9982 -0.6865 -0.4684
 2688TIP3   OH229478   3.688   5.995  12.245 -0.4911  0.2673 -0.4055
 2688TIP3    H129479   3.607   6.001  12.296 -0.8314 -0.4918 -0.8517
 2688TIP3    H229480   3.743   6.066  12.279 -0.8939  0.0571  0.6926
 2689TIP3   OH229481   4.863   6.527  10.711  0.6968  0.1395 -0.2240
 2689TIP3    H129482   4.796   6.590  10.740 -1.1454 -1.2766 -1.2490
 2689TIP3    H229483   4.865   6.537  10.616  2.1758  0.3656 -0.1741
 2690TIP3   OH229484   3.065   5.903  11.080 -0.2720 -0.5743  0.3572
 2690TIP3    H129485   3.015   5.911  10.998  0.6975  1.0144 -0.1078
 2690TIP3    H229486   3.046   5.984  11.127  1.3847 -0.2104  0.4254
 2691TIP3   OH229487   4.680   6.729  12.251 -0.0463 -0.1466 -0.3031
 2691TIP3    H129488   4.685   6.808  12.304  1.0325 -0.9328  0.8035
 2691TIP3    H229489   4.602   6.742  12.196  0.0479  1.6045 -0.0536
 2692TIP3   OH229490   2.548   6.234  10.902  0.7085  0.4886 -0.2639
 2692TIP3    H129491   2.550   6.258  10.810  0.7143 -0.6356 -0.5700
 2692TIP3    H229492   2.567   6.140  10.903 -1.2182  0.0643  0.7107
 2693TIP3   OH229493   0.944   5.365  12.921  0.0447 -0.1545  0.4451
 2693TIP3    H129494   1.037   5.383  12.932  0.0775  0.5768 -1.0506
 2693TIP3    H229495   0.912   5.433  12.862 -1.1279 -1.2439 -0.2132
 2694TIP3   OH229496   3.301   6.787  10.894  0.8904 -0.1545 -0.5446
 2694TIP3    H129497   3.389   6.787  10.854  0.6432 -2.1431 -1.1449
 2694TIP3    H229498   3.270   6.697  10.883 -1.0669  0.4301  0.0427
 2695TIP3   OH229499   3.986   0.530  12.803  0.5715 -0.3815 -0.4740
 2695TIP3    H129500   3.997   0.436  12.815 -0.0790 -0.0941  2.8796
 2695TIP3    H229501   4.032   0.550  12.722  1.9002 -3.3720 -0.4956
 2696TIP3   OH229502   3.695   7.039  10.697 -0.2102 -0.0232  0.4882
 2696TIP3    H129503   3.707   7.133  10.679  1.3537 -0.0974  1.1124
 2696TIP3    H229504   3.781   7.001  10.684 -1.1155 -1.6024 -1.0013
 2697TIP3   OH229505   1.766   6.605  11.346 -0.5927 -0.1145 -0.1919
 2697TIP3    H129506   1.762   6.696  11.317 -0.2509  0.5149  1.6282
 2697TIP3    H229507   1.842   6.602  11.404 -2.0898 -0.9401  1.7924
 2698TIP3   OH229508   3.725   0.141   9.910  0.3511  0.4831  0.2032
 2698TIP3    H129509   3.720   0.049   9.936  0.7477  0.7053  1.0821
 2698TIP3    H229510   3.809   0.149   9.865 -0.6262 -0.0468 -1.7555
 2699TIP3   OH229511   3.880   0.034  10.865 -0.5022  0.0073 -0.1739
 2699TIP3    H129512   3.962  -0.014  10.852 -1.1714 -1.3266  0.4150
 2699TIP3    H229513   3.855   0.014  10.956 -0.9570  1.2242 -0.0209
 2700TIP3   OH229514   1.792   0.943  10.301  0.2041 -0.9227  0.0989
 2700TIP3    H129515   1.785   0.860  10.348 -0.6003 -1.2966 -0.6615
 2700TIP3    H229516   1.712   0.948  10.248 -1.1004  1.6002  2.1565
 2701TIP3   OH229517   4.579   1.099  11.145  0.0060  0.1736  0.1457
 2701TIP3    H129518   4.656   1.074  11.093  0.8780 -1.3712  2.1337
 2701TIP3    H229519   4.511   1.038  11.117  0.2248 -0.0871  0.1743
 2702TIP3   OH229520   5.304   0.053  10.106 -1.0816 -0.0595  0.5047
 2702TIP3    H129521   5.390   0.071  10.143 -0.0200  1.2130 -2.4068
 2702TIP3    H229522   5.320  -0.017  10.042 -2.0530  0.6817 -0.5694
 2703TIP3   OH229523   3.302   1.257  11.784 -0.4562  0.1154  0.2810
 2703TIP3    H129524   3.342   1.254  11.697  1.2763 -1.9107  1.0859
 2703TIP3    H229525   3.311   1.168  11.818 -0.9930  0.8864  2.5756
 2704TIP3   OH229526   1.965   0.692  10.946  0.0583 -0.2278  0.7569
 2704TIP3    H129527   2.005   0.751  11.009 -0.3680  0.8864  0.0099
 2704TIP3    H229528   1.955   0.609  10.993  1.5273  0.0179  1.5152
 2705TIP3   OH229529   3.075   0.352  11.794  0.0493  0.2847 -0.4667
 2705TIP3    H129530   3.085   0.371  11.887  0.8485 -3.0028  0.1548
 2705TIP3    H229531   3.145   0.402  11.751  1.4098 -0.3499  0.9811
 2706TIP3   OH229532   4.321   0.321  11.064 -0.0428  0.1794  0.3745
 2706TIP3    H129533   4.367   0.353  10.987  0.4716  1.1672  1.0830
 2706TIP3    H229534   4.232   0.302  11.033  0.4561 -0.4182 -0.6825
 2707TIP3   OH229535   2.816   0.948  11.982  0.3149  0.3885 -0.0941
 2707TIP3    H129536   2.777   1.012  12.042  1.6052  0.3760  0.7681
 2707TIP3    H229537   2.743   0.890  11.959 -0.3760  0.8714  0.8327
 2708TIP3   OH229538   2.738   5.653  12.672 -0.4372 -0.0075 -0.3358
 2708TIP3    H129539   2.800   5.726  12.663 -1.0153  0.4146 -0.9505
 2708TIP3    H229540   2.765   5.590  12.605 -0.7285  0.2213 -0.6707
 2709TIP3   OH229541   2.288   6.964  11.204 -0.0193  0.2393  0.1310
 2709TIP3    H129542   2.323   6.917  11.129  2.0756 -0.6724  1.6300
 2709TIP3    H229543   2.274   6.897  11.271 -1.8292  1.0373  0.5977
 2710TIP3   OH229544   3.162   0.382  13.008 -0.2015 -1.2050  0.0164
 2710TIP3    H129545   3.074   0.352  13.031 -0.5389 -0.3418 -0.1401
 2710TIP3    H229546   3.217   0.355  13.081 -0.8883 -0.3475  0.8534
 2711TIP3   OH229547   2.829   6.513  12.291 -0.0868 -0.0653  0.1853
 2711TIP3    H129548   2.758   6.568  12.324 -0.4436 -0.7478  0.5617
 2711TIP3    H229549   2.785   6.439  12.250  0.3635  0.6349 -1.5839
 2712TIP3   OH229550   3.604   6.397  11.684 -0.2653 -0.0797  0.1849
 2712TIP3    H129551   3.664   6.414  11.756 -0.5326  1.4888  0.0482
 2712TIP3    H229552   3.645   6.439  11.608 -0.7366 -0.4021 -0.2524
 2713TIP3   OH229553   3.141   0.544  12.358 -0.5374  0.2461 -0.2938
 2713TIP3    H129554   3.171   0.582  12.276 -0.3395  1.6544  0.4215
 2713TIP3    H229555   3.060   0.591  12.378  0.7923  1.7896  1.6501
 2714TIP3   OH229556   3.206   7.037  10.902  0.8534 -0.1410 -0.0738
 2714TIP3    H129557   3.286   7.090  10.902  2.0773 -1.9185 -1.6102
 2714TIP3    H229558   3.237   6.947  10.890 -1.4446 -0.7748 -1.5390
 2715TIP3   OH229559   1.572   0.494  11.912 -0.3066 -0.4019  0.2994
 2715TIP3    H129560   1.535   0.440  11.842 -0.2793  0.0285 -0.0503
 2715TIP3    H229561   1.530   0.463  11.992 -0.2633 -0.9672  0.1012
 2716TIP3   OH229562   7.061   5.328  11.771  0.2979 -0.6044 -0.0787
 2716TIP3    H129563   7.149   5.313  11.736 -0.3254 -0.1296 -1.9318
 2716TIP3    H229564   7.003   5.287  11.707 -0.8942  0.3803  0.3553
 2717TIP3   OH229565   4.425   0.143  11.871  0.3431  0.3500  0.3224
 2717TIP3    H129566   4.467   0.223  11.902 -0.8743  1.0731  0.1356
 2717TIP3    H229567   4.406   0.160  11.779 -1.4306  0.5135  0.6905
 2718TIP3   OH229568   5.344   0.257  10.996 -0.4598 -0.1876 -0.0393
 2718TIP3    H129569   5.371   0.291  10.910 -3.4489  0.2836 -0.8730
 2718TIP3    H229570   5.356   0.163  10.990  2.5104  0.1275  0.2498
 2719TIP3   OH229571   3.419   5.188  10.629  0.0027  0.2857 -0.2899
 2719TIP3    H129572   3.354   5.240  10.677  0.7636  1.3296 -0.3695
 2719TIP3    H229573   3.471   5.253  10.582  0.9877 -0.5642 -0.3820
 2720TIP3   OH229574   3.503   7.200  11.219  0.1741  0.6224 -0.1950
 2720TIP3    H129575   3.409   7.217  11.217 -0.3210 -1.7784  0.2516
 2720TIP3    H229576   3.544   7.285  11.204 -2.0450  2.0592  1.5891
 2721TIP3   OH229577   1.925   5.002  12.725 -0.4199 -0.5918 -0.6935
 2721TIP3    H129578   1.833   4.988  12.746 -0.8205 -1.7566 -3.0327
 2721TIP3    H229579   1.932   5.096  12.708 -0.7811 -0.2050  1.2029
 2722TIP3   OH229580   3.115   6.708  12.012  0.2159 -0.0829  0.5240
 2722TIP3    H129581   3.183   6.724  11.948  1.2515 -3.4360  0.6864
 2722TIP3    H229582   3.161   6.668  12.086 -1.5006  0.3216  1.8363
 2723TIP3   OH229583   1.085   7.040  13.991  0.6657 -0.1516 -0.2217
 2723TIP3    H129584   1.135   7.025  14.070  0.3497 -0.3303 -0.0559
 2723TIP3    H229585   1.111   6.969  13.932 -0.6871 -1.2695  0.4922
 2724TIP3   OH229586   4.509   5.538  11.045 -0.4355  0.0397  0.0070
 2724TIP3    H129587   4.589   5.536  11.099 -1.1015 -0.3415  0.9955
 2724TIP3    H229588   4.466   5.455  11.064 -2.7167  1.6042  2.0180
 2725TIP3   OH229589   2.730   0.029  10.914 -0.5221 -0.6040 -0.3749
 2725TIP3    H129590   2.821   0.058  10.920 -0.7920  0.3485 -0.6906
 2725TIP3    H229591   2.725  -0.017  10.831 -0.0096 -1.8697  0.2779
 2726TIP3   OH229592   1.602   5.890  10.949 -0.2469  0.6765  0.1030
 2726TIP3    H129593   1.562   5.803  10.957  1.0973 -0.1909 -2.0764
 2726TIP3    H229594   1.529   5.951  10.963 -1.5452 -0.8194  0.0922
 2727TIP3   OH229595   2.866   6.991  10.238 -0.2905 -0.0384  0.0437
 2727TIP3    H129596   2.893   6.980  10.329 -0.1277  1.3874  0.1730
 2727TIP3    H229597   2.847   6.902  10.208 -1.2964 -0.4305  1.7667
 2728TIP3   OH229598   2.366   6.642  11.263 -1.1177  0.6271 -1.0034
 2728TIP3    H129599   2.458   6.664  11.278 -1.1281 -0.1711  0.3096
 2728TIP3    H229600   2.369   6.555  11.223 -1.2529  1.2477 -2.4161
 2729TIP3   OH229601   3.560   5.539  11.028  0.0727  0.5954 -0.5609
 2729TIP3    H129602   3.580   5.629  10.999 -0.5529  1.2635  1.0488
 2729TIP3    H229603   3.607   5.529  11.111  0.1602 -0.5901 -0.7422
 2730TIP3   OH229604   1.635   6.111  11.517  0.1786  0.1556  1.0986
 2730TIP3    H129605   1.601   6.196  11.545 -0.0215 -0.4565  2.7425
 2730TIP3    H229606   1.696   6.085  11.586  2.1845  0.0999 -0.6106
 2731TIP3   OH229607   1.188   5.582  11.617 -0.2988 -0.4703  0.2193
 2731TIP3    H129608   1.121   5.586  11.686 -0.5651 -0.2282 -0.0493
 2731TIP3    H229609   1.138   5.580  11.536  0.0250 -0.3152  0.0151
 2732TIP3   OH229610   2.356   5.916   9.597  0.3403  0.1942 -0.5297
 2732TIP3    H129611   2.319   5.932   9.683  1.3755 -0.0793 -0.0287
 2732TIP3    H229612   2.377   6.003   9.563 -0.0160  0.2973 -0.4834
 2733TIP3   OH229613   3.669   0.468  11.781  0.2958 -0.4083  0.4577
 2733TIP3    H129614   3.680   0.480  11.876  0.3387  1.5658  0.2266
 2733TIP3    H229615   3.605   0.534  11.756  2.6597  1.2894 -1.4012
 2734TIP3   OH229616   2.482   5.422  13.388  0.1019 -0.6406 -0.5859
 2734TIP3    H129617   2.458   5.399  13.298  0.8097 -0.2870 -0.8702
 2734TIP3    H229618   2.471   5.341  13.437 -0.4204 -0.8040 -0.9599
 2735TIP3   OH229619   1.992   5.241   9.953  0.1873 -0.3153 -0.7514
 2735TIP3    H129620   1.934   5.184   9.902 -2.3036 -1.2958  2.9843
 2735TIP3    H229621   2.021   5.186  10.026  1.7514  1.7202  0.1884
 2736TIP3   OH229622   3.114   0.553  10.900 -0.1145  0.1967  0.4605
 2736TIP3    H129623   3.054   0.566  10.826  0.0028 -0.3857  0.2630
 2736TIP3    H229624   3.129   0.459  10.903  0.0417  0.2377  1.1037
 2737TIP3   OH229625   1.205   6.788  11.514 -0.3826 -0.8480 -0.1199
 2737TIP3    H129626   1.207   6.799  11.419  0.4210 -1.3699 -0.1696
 2737TIP3    H229627   1.220   6.876  11.549  0.0455 -0.7760 -0.4840
 2738TIP3   OH229628   3.101   6.407  10.388  0.2124 -0.1901 -0.2477
 2738TIP3    H129629   3.033   6.343  10.365  0.4066 -0.8092  0.8716
 2738TIP3    H229630   3.169   6.355  10.431  0.5706  0.7128  0.2833
 2739TIP3   OH229631   2.632   6.264  10.639  0.7496 -0.7264  0.2636
 2739TIP3    H129632   2.707   6.323  10.648 -1.0770  1.6375  0.4981
 2739TIP3    H229633   2.617   6.258  10.545 -0.7713  1.5137  0.3119
 2740TIP3   OH229634   2.291   6.975  10.369 -0.0796 -0.2814  0.2552
 2740TIP3    H129635   2.262   6.884  10.365 -0.7591 -0.0057 -1.8780
 2740TIP3    H229636   2.387   6.969  10.376 -0.2002 -1.1589  1.2260
 2741TIP3   OH229637   4.068   2.150  11.501 -0.1975  0.3027 -0.4044
 2741TIP3    H129638   4.079   2.245  11.494 -1.2341  0.5750  1.4132
 2741TIP3    H229639   4.143   2.122  11.554 -0.6422  0.2860  0.2125
 2742TIP3   OH229640   2.477   6.683  10.235  0.0561  0.3419 -0.2042
 2742TIP3    H129641   2.406   6.700  10.173  0.7473 -0.3438 -1.1985
 2742TIP3    H229642   2.461   6.593  10.265  0.3298  0.2968 -0.1952
 2743TIP3   OH229643   3.516   0.135  10.739 -0.5970 -0.3083 -0.1210
 2743TIP3    H129644   3.585   0.190  10.703  0.3564 -1.6921 -0.4272
 2743TIP3    H229645   3.438   0.157  10.688  0.0039  0.0283 -0.8944
 2744TIP3   OH229646   0.117   6.293  12.124  0.7610  0.4303  0.3631
 2744TIP3    H129647   0.093   6.342  12.045 -0.3193 -2.1054 -0.9371
 2744TIP3    H229648   0.093   6.351  12.196 -0.6656  1.7523 -1.1242
 2745TIP3   OH229649   2.580   4.187  10.911 -0.0865  0.0986 -0.3194
 2745TIP3    H129650   2.526   4.108  10.919  0.7693 -0.3229  1.5610
 2745TIP3    H229651   2.667   4.154  10.886  0.2580  0.4408  0.4134
 2746TIP3   OH229652   0.364   6.758  13.939 -0.4870 -0.0861  0.0177
 2746TIP3    H129653   0.448   6.805  13.945  0.2284 -1.0394 -2.0544
 2746TIP3    H229654   0.310   6.797  14.008  0.5011  2.8994 -0.8176
 2747TIP3   OH229655   3.633   0.539  11.031 -0.3101 -0.6138  0.2469
 2747TIP3    H129656   3.552   0.508  11.071 -1.1452  1.5466  0.3272
 2747TIP3    H229657   3.615   0.630  11.008  2.3953  0.2082  1.1138
 2748TIP3   OH229658   2.554   7.064  11.433  0.0665  0.2576  0.1035
 2748TIP3    H129659   2.514   7.110  11.359 -0.1467 -1.4663 -0.8782
 2748TIP3    H229660   2.584   6.981  11.396  0.3609 -0.4363  1.8699
 2749TIP3   OH229661   5.110   0.354  10.303  0.6713 -0.4501 -0.0596
 2749TIP3    H129662   5.070   0.421  10.357  0.1192 -0.2919 -0.6656
 2749TIP3    H229663   5.112   0.391  10.215 -0.6295 -1.6354 -0.6186
 2750TIP3   OH229664   4.741   0.891  11.815 -0.0781 -0.4282  0.0095
 2750TIP3    H129665   4.786   0.970  11.842 -2.9770  1.2717  0.1274
 2750TIP3    H229666   4.666   0.885  11.874 -1.2911 -1.8341 -1.5979
 2751TIP3   OH229667   5.823   6.322  10.532 -0.2610 -0.2327  0.0159
 2751TIP3    H129668   5.872   6.404  10.537 -0.1996 -0.2409 -0.4519
 2751TIP3    H229669   5.868   6.271  10.464  0.1928 -0.9807  0.8646
 2752TIP3   OH229670   1.687   0.217  11.541 -0.1310 -0.4639 -0.2417
 2752TIP3    H129671   1.656   0.144  11.595 -2.4972  0.2680 -0.5661
 2752TIP3    H229672   1.717   0.175  11.460  0.8438 -1.2962  0.5327
 2753TIP3   OH229673   1.971   0.095  10.654 -0.4387 -0.6122  0.0618
 2753TIP3    H129674   2.007   0.075  10.567 -2.1486  1.2886 -1.1456
 2753TIP3    H229675   1.913   0.170  10.639 -0.1189  0.2969  3.0078
 2754TIP3   OH229676   2.875   6.353  13.020 -0.0041 -0.4662  0.2287
 2754TIP3    H129677   2.845   6.267  12.989  1.1145 -0.4136 -1.0627
 2754TIP3    H229678   2.807   6.414  12.992  0.2019 -0.6538 -0.6944
 2755TIP3   OH229679   4.172   2.093  11.144 -0.2006  0.1455 -0.2409
 2755TIP3    H129680   4.209   2.029  11.204  0.0793  0.6858  0.1645
 2755TIP3    H229681   4.241   2.109  11.080  0.8784  2.2851  1.3735
 2756TIP3   OH229682   2.108   4.455  12.149 -0.0086 -0.4800 -0.0816
 2756TIP3    H129683   2.116   4.501  12.232  0.0236  0.5324 -0.6312
 2756TIP3    H229684   2.022   4.415  12.151 -1.0842  1.7159 -0.6198
 2757TIP3   OH229685   2.589   0.111  10.008  0.0872  0.4021  0.4096
 2757TIP3    H129686   2.508   0.154  10.038  0.4692  0.9805  0.6185
 2757TIP3    H229687   2.642   0.182   9.972  1.3271  0.3438  2.0433
 2758TIP3   OH229688   1.931   5.479  10.587  0.9205  0.0860  0.3165
 2758TIP3    H129689   1.863   5.455  10.524  1.2398 -1.0008  0.3648
 2758TIP3    H229690   2.008   5.498  10.533  0.6683  1.0368  0.2780
 2759TIP3   OH229691   3.179   5.527  10.272 -0.5943 -0.0826  0.8453
 2759TIP3    H129692   3.221   5.444  10.250 -1.1776 -0.4169  0.9747
 2759TIP3    H229693   3.135   5.555  10.192  0.4981  0.6553  0.4837
 2760TIP3   OH229694   2.833   1.286   9.823  0.2452 -0.6588 -0.6958
 2760TIP3    H129695   2.927   1.287   9.808  0.4976  0.1994  0.8489
 2760TIP3    H229696   2.808   1.379   9.829 -0.4999 -0.8935 -0.0018
 2761TIP3   OH229697   2.019   6.545   9.608  0.6163 -0.3401 -0.0313
 2761TIP3    H129698   2.110   6.514   9.600  0.7936  0.3759 -0.7915
 2761TIP3    H229699   1.970   6.490   9.546  0.9189  0.8162 -1.3247
 2762TIP3   OH229700   2.374   5.630  10.168 -0.1098 -0.0567  0.1832
 2762TIP3    H129701   2.295   5.580  10.147 -1.1500  1.8693 -0.5385
 2762TIP3    H229702   2.363   5.714  10.124  3.2458 -0.4389 -1.5317
 2763TIP3   OH229703   4.041   5.708  10.610  0.4538 -0.0086  0.7337
 2763TIP3    H129704   4.048   5.758  10.528 -0.6643  1.0672  1.2752
 2763TIP3    H229705   4.077   5.766  10.676 -1.0999  0.1998  1.4123
 2764TIP3   OH229706   1.143   0.820  12.100  0.7654  0.8883  0.1468
 2764TIP3    H129707   1.057   0.859  12.112 -0.5904 -2.3268  1.5904
 2764TIP3    H229708   1.185   0.827  12.185  1.3354  1.1261 -0.1547
 2765TIP3   OH229709   0.470   5.170  11.761  0.1946 -0.5293  0.2906
 2765TIP3    H129710   0.466   5.134  11.850  0.6886 -0.6473  0.2688
 2765TIP3    H229711   0.553   5.218  11.759  0.2935 -0.7198 -0.1757
 2766TIP3   OH229712   2.786   6.114   9.860  0.0229  0.6404 -0.3717
 2766TIP3    H129713   2.707   6.165   9.875 -1.6292 -2.0898  0.4783
 2766TIP3    H229714   2.757   6.036   9.812  2.2625 -0.1494 -0.5348
 2767TIP3   OH229715   3.418   6.026  11.331  0.1933 -0.0522  0.0718
 2767TIP3    H129716   3.364   5.965  11.281 -1.4197  1.9177 -0.6995
 2767TIP3    H229717   3.470   6.072  11.264  1.5989 -0.7548  0.6654
 2768TIP3   OH229718   4.277   3.472  10.762  0.4278 -0.0717 -0.0191
 2768TIP3    H129719   4.182   3.459  10.762  0.4226 -0.0359  0.0166
 2768TIP3    H229720   4.312   3.388  10.791  0.5106 -0.7311 -1.9773
 2769TIP3   OH229721   3.768   6.702  10.696 -0.1111 -0.1134 -0.0786
 2769TIP3    H129722   3.825   6.776  10.677 -0.4104 -0.0019 -0.5397
 2769TIP3    H229723   3.679   6.737  10.689 -0.2572 -0.5624 -0.4828
 2770TIP3   OH229724   2.964   5.440  10.501 -0.2801  0.3912  0.1541
 2770TIP3    H129725   2.899   5.450  10.431 -1.5410  1.6702  1.4842
 2770TIP3    H229726   3.019   5.367  10.472 -1.2035  0.4519 -1.8411
 2771TIP3   OH229727   2.000   6.466  10.626 -0.1656  0.0327 -0.3628
 2771TIP3    H129728   1.966   6.552  10.603 -2.6985 -1.2492 -1.6742
 2771TIP3    H229729   1.959   6.447  10.711  3.2632  1.6016  1.7247
 2772TIP3   OH229730   2.124   1.880  12.994 -0.0710  0.3898 -0.0211
 2772TIP3    H129731   2.152   1.888  12.903 -0.8784  0.7615 -0.2419
 2772TIP3    H229732   2.181   1.940  13.042 -0.1887  0.8000 -0.3963
 2773TIP3   OH229733   3.216   0.884  11.754  0.1786 -0.2098  0.2821
 2773TIP3    H129734   3.276   0.927  11.815  0.0303 -1.3338  1.2372
 2773TIP3    H229735   3.264   0.807  11.723 -0.9629 -1.4119  1.4650
 2774TIP3   OH229736   2.795   6.108  13.532 -0.2708 -0.2418 -0.3130
 2774TIP3    H129737   2.759   6.046  13.596 -0.0933  0.0247  0.0482
 2774TIP3    H229738   2.731   6.179  13.528 -1.1600 -1.1074 -1.7702
 2775TIP3   OH229739   3.693   6.213  11.326  0.0238 -0.2052 -0.5700
 2775TIP3    H129740   3.739   6.243  11.247  0.7242  1.2005  0.3596
 2775TIP3    H229741   3.630   6.282  11.344  2.4891  1.3809  2.3041
 2776TIP3   OH229742   3.063   5.446  12.456  0.0235  0.0765 -0.1138
 2776TIP3    H129743   3.061   5.388  12.380  0.0765  0.5869 -0.5024
 2776TIP3    H229744   3.096   5.529  12.423 -0.1035  0.3496  0.4353
 2777TIP3   OH229745   1.783   5.355  10.774 -0.4729  0.0906 -0.3586
 2777TIP3    H129746   1.834   5.416  10.721 -0.4193  0.1539 -0.2331
 2777TIP3    H229747   1.778   5.396  10.860 -2.3748  0.9973 -0.8900
 2778TIP3   OH229748   5.248   6.132  10.596  0.2954 -0.0219 -0.2013
 2778TIP3    H129749   5.330   6.084  10.609  0.8738  0.9635 -0.1467
 2778TIP3    H229750   5.245   6.195  10.668 -1.2745 -1.0740  0.6817
 2779TIP3   OH229751   3.475   4.293  11.935 -0.1085 -0.6392 -1.0911
 2779TIP3    H129752   3.453   4.200  11.945 -0.0641 -0.5491 -0.1264
 2779TIP3    H229753   3.560   4.293  11.891 -0.7932 -1.0232 -2.4749
 2780TIP3   OH229754   3.793   0.050  11.551 -0.1548 -0.1591 -0.2814
 2780TIP3    H129755   3.876   0.008  11.529  0.0651  0.3937 -0.5097
 2780TIP3    H229756   3.736  -0.022  11.579  0.1702 -0.6231 -0.8159
 2781TIP3   OH229757   2.667   6.888  10.626 -0.0057  0.4700  0.1817
 2781TIP3    H129758   2.597   6.834  10.664  0.5774 -1.0098 -0.8065
 2781TIP3    H229759   2.631   6.918  10.542  0.1713  0.5226  0.1239
 2782TIP3   OH229760   1.212   0.138  13.081 -0.3792 -0.2369 -0.3938
 2782TIP3    H129761   1.129   0.115  13.039 -0.2912 -2.5369  0.6313
 2782TIP3    H229762   1.276   0.139  13.009 -0.2755 -3.9142 -0.4242
 2783TIP3   OH229763   3.023   0.108  10.700  0.0240 -0.3299  0.4241
 2783TIP3    H129764   3.091   0.117  10.632 -1.5355  2.0176 -0.8775
 2783TIP3    H229765   3.026   0.015  10.724  3.7009 -0.2890  0.4372
 2784TIP3   OH229766   6.753   6.619  13.445 -0.2321  0.8826  0.1728
 2784TIP3    H129767   6.788   6.653  13.527 -1.3335  0.9545  0.6258
 2784TIP3    H229768   6.830   6.593  13.394  0.5180  2.0250  0.7055
 2785TIP3   OH229769   2.328   3.180  13.072 -0.2179 -0.3222  0.2454
 2785TIP3    H129770   2.374   3.263  13.077  0.5041 -0.7437  0.5741
 2785TIP3    H229771   2.385   3.124  13.019  0.6249 -1.4862  2.3585
 2786TIP3   OH229772   2.674   6.841  11.359  0.2054 -0.2629 -0.3823
 2786TIP3    H129773   2.726   6.804  11.288 -0.7117  0.6187 -1.5420
 2786TIP3    H229774   2.663   6.769  11.421 -0.6379 -1.6378 -2.0868
 2787TIP3   OH229775   1.665   0.126  10.583  0.6797  0.0437 -0.5027
 2787TIP3    H129776   1.569   0.126  10.582  0.6266  2.1280  1.4215
 2787TIP3    H229777   1.689   0.037  10.557 -1.7833 -0.7291 -0.2479
 2788TIP3   OH229778   2.288   3.894  11.498  0.2798  0.2876 -0.0673
 2788TIP3    H129779   2.347   3.842  11.553 -0.1801 -0.4875 -0.2872
 2788TIP3    H229780   2.310   3.985  11.518  2.2090  0.0201 -0.8397
 2789TIP3   OH229781   2.975   4.996  12.723 -0.5497  0.0129 -0.2373
 2789TIP3    H129782   3.039   5.017  12.655 -0.2716 -1.7600 -0.5233
 2789TIP3    H229783   2.895   4.976  12.675 -0.8439  0.4896  0.0470
 2790TIP3   OH229784   6.354   0.916  11.680  0.3101 -0.3366 -0.2260
 2790TIP3    H129785   6.327   0.825  11.689 -1.0466  0.1036  0.2170
 2790TIP3    H229786   6.300   0.964  11.742 -1.1983  1.1831 -2.6197
 2791TIP3   OH229787   0.924   6.539  12.951  0.2532 -0.8642  0.1609
 2791TIP3    H129788   0.933   6.492  12.868  3.0132 -0.9650  0.4495
 2791TIP3    H229789   0.955   6.628  12.932 -0.5179 -0.4716  0.7272
 2792TIP3   OH229790   3.915   6.965  14.404  0.3263  0.6361 -0.0036
 2792TIP3    H129791   3.995   6.989  14.358  0.6163  0.6945  0.5306
 2792TIP3    H229792   3.856   6.933  14.335  0.2322  2.0845 -0.6013
 2793TIP3   OH229793   3.382   6.904  11.158 -0.2381 -0.1797 -0.5696
 2793TIP3    H129794   3.382   6.881  11.065  1.4539 -2.8483  0.0477
 2793TIP3    H229795   3.303   6.957  11.169 -0.3026  0.4151 -3.5780
 2794TIP3   OH229796   3.353   5.891  10.700 -0.1836  0.3904  0.1424
 2794TIP3    H129797   3.365   5.923  10.611 -0.5371  0.0572 -0.0221
 2794TIP3    H229798   3.375   5.798  10.695  0.0539  0.4300  0.4575
 2795TIP3   OH229799   4.441   0.258  11.335 -0.2495 -0.9159  0.5610
 2795TIP3    H129800   4.402   0.299  11.258  0.3662 -1.7872 -0.2403
 2795TIP3    H229801   4.508   0.320  11.364  0.3672 -1.1263 -0.3670
 2796TIP3   OH229802   4.280   7.100  11.808  0.4681  0.0556 -0.1744
 2796TIP3    H129803   4.339   7.155  11.859  0.7391  0.5370 -1.0047
 2796TIP3    H229804   4.338   7.045  11.755  0.1990 -0.9689  0.5764
 2797TIP3   OH229805   5.105   6.362  13.439  0.9070 -0.2656  0.2129
 2797TIP3    H129806   5.159   6.325  13.508  0.1530  2.5881  2.4057
 2797TIP3    H229807   5.020   6.378  13.480  0.0097  0.2409 -1.7561
 2798TIP3   OH229808   3.221   6.671  10.275 -0.0324 -0.1637 -0.1384
 2798TIP3    H129809   3.251   6.647  10.188 -0.2287 -1.7313  0.2122
 2798TIP3    H229810   3.220   6.589  10.324 -0.9646  0.5206  1.0273
 2799TIP3   OH229811   3.934   6.383  11.296 -0.9649  0.1163  0.0877
 2799TIP3    H129812   4.013   6.380  11.352 -1.1769 -3.3877  0.3422
 2799TIP3    H229813   3.968   6.402  11.209 -0.0230  0.4766  0.5164
 2800TIP3   OH229814   2.105   6.480  10.145  0.3180  0.1714 -0.4070
 2800TIP3    H129815   2.016   6.514  10.155  0.6973  1.0067  0.2103
 2800TIP3    H229816   2.159   6.558  10.132  0.7537 -0.4517 -2.3807
 2801TIP3   OH229817   4.353   6.562  11.458  0.7420  0.0727  0.5556
 2801TIP3    H129818   4.402   6.615  11.395  0.4802 -1.3808 -0.9161
 2801TIP3    H229819   4.366   6.606  11.542  0.9943  2.1188 -0.5326
 2802TIP3   OH229820   4.216   5.816  11.136  0.6568 -0.3158 -0.8426
 2802TIP3    H129821   4.237   5.757  11.064  1.0584 -0.3966 -0.6631
 2802TIP3    H229822   4.208   5.758  11.212  1.2625 -0.1225 -0.6235
 2803TIP3   OH229823   2.961   5.186  10.027  0.7506  0.6347 -0.5172
 2803TIP3    H129824   3.031   5.178   9.962  1.6701  0.0850  0.5132
 2803TIP3    H229825   2.894   5.239   9.984  1.2198  0.0546 -2.0048
 2804TIP3   OH229826   5.060   5.694  11.176  0.0763 -0.2855  0.5443
 2804TIP3    H129827   5.154   5.696  11.196 -0.3111 -0.3676  2.4749
 2804TIP3    H229828   5.056   5.685  11.081  2.0199  0.5273  0.3681
 2805TIP3   OH229829   2.357   1.483  10.839  0.4401  0.5593  0.0738
 2805TIP3    H129830   2.430   1.542  10.820  1.1197 -0.3532 -0.2109
 2805TIP3    H229831   2.374   1.406  10.784  0.2835 -0.4572  1.4376
 2806TIP3   OH229832   2.487   0.591  11.389 -0.4727 -0.4849 -0.1968
 2806TIP3    H129833   2.530   0.626  11.311  0.5913 -1.1833  0.0707
 2806TIP3    H229834   2.417   0.654  11.407 -0.2134  0.1249 -1.2294
 2807TIP3   OH229835   4.174   3.989  10.780 -0.4462 -0.8540 -0.5552
 2807TIP3    H129836   4.137   3.905  10.805 -1.9615 -0.7841 -2.4897
 2807TIP3    H229837   4.242   4.005  10.845 -1.8685 -2.3492  1.3530
 2808TIP3   OH229838   3.094   7.081  10.670  0.2168 -0.3845 -0.1279
 2808TIP3    H129839   3.026   7.014  10.671  0.3874 -0.5679 -0.4789
 2808TIP3    H229840   3.147   7.063  10.748  1.0623 -1.5068 -0.9343
 2809TIP3   OH229841   0.916   3.528  11.814 -0.0772 -0.1466  0.4679
 2809TIP3    H129842   0.935   3.621  11.811 -0.6087 -0.0230  0.8204
 2809TIP3    H229843   0.845   3.516  11.750 -0.2478 -0.2491  0.6751
 2810TIP3   OH229844   7.057   1.501  10.419  0.0393  0.7523  0.2025
 2810TIP3    H129845   7.140   1.537  10.389 -0.2107  3.0378  2.0717
 2810TIP3    H229846   7.005   1.578  10.443 -1.9945 -0.7121  0.6013
 2811TIP3   OH229847   4.523   6.387  13.659 -0.2042 -0.3226 -0.0050
 2811TIP3    H129848   4.581   6.402  13.733  0.0993 -1.1879 -0.0701
 2811TIP3    H229849   4.574   6.414  13.582 -0.6735  0.9899  0.1254
 2812TIP3   OH229850   2.061   5.099  10.200  0.1570  0.0060 -0.5741
 2812TIP3    H129851   2.081   5.151  10.278 -0.2529  1.0212 -1.1350
 2812TIP3    H229852   1.998   5.034  10.230  0.5483 -0.0626  0.1053
 2813TIP3   OH229853   2.012   6.165  10.392  0.0432 -0.1222  0.3314
 2813TIP3    H129854   1.925   6.124  10.396  0.2516 -0.4398  2.3367
 2813TIP3    H229855   2.051   6.130  10.312 -1.4584 -0.4119 -0.3038
 2814TIP3   OH229856   3.857   6.283  12.040  0.1426 -0.8264  0.0313
 2814TIP3    H129857   3.834   6.341  11.967  0.7009 -1.0488 -0.3229
 2814TIP3    H229858   3.823   6.197  12.014  0.2630 -0.8872  0.0739
 2815TIP3   OH229859   3.766   5.839  11.676  0.0223  0.0654  0.7652
 2815TIP3    H129860   3.800   5.762  11.631 -0.7886  1.0001 -1.5316
 2815TIP3    H229861   3.759   5.906  11.608 -3.2010  0.9160  1.8109
 2816TIP3   OH229862   4.599   2.765  10.949 -0.4033 -0.2323 -0.0548
 2816TIP3    H129863   4.667   2.762  10.881  0.8491  1.2016  1.0826
 2816TIP3    H229864   4.608   2.682  10.995  0.8974  0.1057  0.3406
 2817TIP3   OH229865   1.336   7.238   9.989  0.6325  0.4958  0.5668
 2817TIP3    H129866   1.409   7.276   9.940 -0.9218  0.8133 -1.6216
 2817TIP3    H229867   1.336   7.146   9.963 -0.7791  0.8619 -0.8782
 2818TIP3   OH229868   3.379   6.278  10.442  0.1528  0.0206  0.2947
 2818TIP3    H129869   3.447   6.269  10.509  0.8472 -1.0285 -0.5438
 2818TIP3    H229870   3.406   6.220  10.372 -1.4221 -0.1280 -0.2140
 2819TIP3   OH229871   4.476   6.754  12.552 -0.3564  0.5693  0.0076
 2819TIP3    H129872   4.539   6.703  12.502  0.6057  0.1736  1.5725
 2819TIP3    H229873   4.497   6.845  12.533 -0.0481  0.4199 -0.3558
 2820TIP3   OH229874   3.954   4.359  10.967  0.0301 -0.3504  0.5897
 2820TIP3    H129875   3.997   4.301  11.029 -0.6203 -0.8248  0.6018
 2820TIP3    H229876   4.024   4.415  10.933  0.2676  0.4253  2.2918
 2821TIP3   OH229877   0.895   5.049  12.505 -0.1087 -0.3429 -0.6181
 2821TIP3    H129878   0.931   5.038  12.593 -0.2344 -1.7821 -0.7380
 2821TIP3    H229879   0.800   5.054  12.518 -0.2332 -2.0020 -0.7872
 2822TIP3   OH229880   3.057   6.394  11.422 -1.2218 -0.2245  0.2298
 2822TIP3    H129881   2.987   6.394  11.488 -0.7522 -2.7092  0.7845
 2822TIP3    H229882   3.137   6.411  11.472 -0.7708 -2.8086  0.4948
 2823TIP3   OH229883   3.703   3.576  11.036  0.1999 -0.5812  0.8446
 2823TIP3    H129884   3.694   3.634  11.112  1.4926 -1.5436  1.7615
 2823TIP3    H229885   3.791   3.594  11.002 -0.1985 -0.4801 -0.1636
 2824TIP3   OH229886   2.525   6.513   9.960  0.3483 -0.2078 -0.5399
 2824TIP3    H129887   2.529   6.576   9.888 -0.3744  1.1854  0.6028
 2824TIP3    H229888   2.616   6.491   9.978  0.6708  1.1636 -0.4171
 2825TIP3   OH229889   2.625   5.941   9.723 -0.3392 -0.2054 -0.2776
 2825TIP3    H129890   2.568   5.981   9.789 -0.2062  0.0237 -0.3028
 2825TIP3    H229891   2.566   5.888   9.669 -0.2727 -1.3707  0.7690
 2826TIP3   OH229892   2.615   5.502  10.188 -0.6673 -0.2495  0.4452
 2826TIP3    H129893   2.664   5.538  10.114 -0.2934 -0.2126  0.7098
 2826TIP3    H229894   2.527   5.540  10.179 -0.0127  1.5441  1.2774
 2827TIP3   OH229895   2.407   5.887  11.925  0.4322 -0.2106  0.1454
 2827TIP3    H129896   2.386   5.838  11.845  1.4562  0.9521 -0.8539
 2827TIP3    H229897   2.398   5.823  11.996 -1.9546 -0.8780 -0.7257
 2828TIP3   OH229898   2.477   5.404  11.031  0.1027 -0.3644 -0.3770
 2828TIP3    H129899   2.523   5.433  10.951  0.0651 -1.8483 -0.9429
 2828TIP3    H229900   2.540   5.348  11.075  1.3964  3.0398  2.3663
 2829TIP3   OH229901   2.206   6.469  12.689 -0.4350 -0.3040  0.9580
 2829TIP3    H129902   2.130   6.443  12.740 -1.4153 -0.5952 -0.6168
 2829TIP3    H229903   2.279   6.464  12.751 -1.6449 -0.2436  2.4257
 2830TIP3   OH229904   3.786   7.165  10.007  0.3230 -0.1258  0.5773
 2830TIP3    H129905   3.845   7.197  10.074 -0.5831  1.9228  0.4148
 2830TIP3    H229906   3.711   7.131  10.055  0.7201 -0.8871  0.6810
 2831TIP3   OH229907   4.147   0.033  10.616  0.0579  0.2887  0.7049
 2831TIP3    H129908   4.105   0.037  10.530  0.2962 -1.0526  0.5118
 2831TIP3    H229909   4.156   0.125  10.643 -2.4304  0.6094  0.5014
 2832TIP3   OH229910   5.596   5.302  11.888 -0.1942  0.1529 -0.4784
 2832TIP3    H129911   5.678   5.347  11.869 -0.4499  1.8811  2.3709
 2832TIP3    H229912   5.623   5.214  11.915  0.7934  0.9230  1.1182
 2833TIP3   OH229913   2.760   6.396   9.994  0.0172  0.4272 -0.2390
 2833TIP3    H129914   2.784   6.351  10.074  1.0885  1.9266  0.3106
 2833TIP3    H229915   2.842   6.406   9.945 -0.0925  2.1775 -0.1186
 2834TIP3   OH229916   4.434   0.209  11.596  0.3330  0.4164  0.3764
 2834TIP3    H129917   4.497   0.137  11.593 -1.2745 -1.0801  1.4302
 2834TIP3    H229918   4.418   0.230  11.504  0.6524 -0.7333  0.0461
 2835TIP3   OH229919   2.917   0.165  11.332  0.7657 -0.0759 -0.5037
 2835TIP3    H129920   2.880   0.241  11.376  3.1816 -0.0490  1.6070
 2835TIP3    H229921   2.911   0.186  11.239 -1.9513  1.0585 -0.1126
 2836TIP3   OH229922   3.470   6.029  10.951  0.3667  0.0041 -0.1016
 2836TIP3    H129923   3.562   6.054  10.944  0.3438 -0.5801 -3.2280
 2836TIP3    H229924   3.447   5.997  10.864 -2.8495  0.2613  0.5881
 2837TIP3   OH229925   4.400   3.762  10.171 -0.1707 -0.2282 -0.1511
 2837TIP3    H129926   4.402   3.847  10.129  1.5053  0.4997  1.3531
 2837TIP3    H229927   4.460   3.708  10.120  1.0723  0.3587  0.6886
 2838TIP3   OH229928   6.150   5.256  11.414 -0.0081 -0.2149  0.5038
 2838TIP3    H129929   6.177   5.327  11.355 -0.4726  0.1185  0.6912
 2838TIP3    H229930   6.084   5.296  11.471  3.0677  0.5289  3.7379
 2839TIP3   OH229931   3.932   0.680  11.326  0.0728  0.1102 -0.0752
 2839TIP3    H129932   3.964   0.610  11.269 -0.4978 -0.3816  0.2071
 2839TIP3    H229933   4.008   0.738  11.338  0.1706  0.2628 -1.3970
 2840TIP3   OH229934   4.665   7.136  10.341  0.0735  0.0535 -0.2997
 2840TIP3    H129935   4.643   7.201  10.408 -1.3950  0.2890 -0.9755
 2840TIP3    H229936   4.725   7.181  10.281  0.8778  0.0487  0.4979
 2841TIP3   OH229937   5.108   6.738  10.684 -0.7984 -0.2811  0.1164
 2841TIP3    H129938   5.028   6.758  10.635  0.4070 -0.5438 -1.9936
 2841TIP3    H229939   5.135   6.652  10.653  2.2656  1.3272 -1.8920
 2842TIP3   OH229940   5.812   6.663  11.247  0.1974  0.4796  0.2586
 2842TIP3    H129941   5.824   6.621  11.332  0.9832  3.4317  1.6591
 2842TIP3    H229942   5.746   6.730  11.262 -0.2886  0.4724 -1.6828
 2843TIP3   OH229943   3.850   1.713  11.343 -0.3551 -0.2069 -0.4127
 2843TIP3    H129944   3.853   1.643  11.278 -0.9822 -1.7334  1.1619
 2843TIP3    H229945   3.844   1.793  11.292  0.0645 -1.3123 -2.2476
 2844TIP3   OH229946   4.358   0.869  10.454  0.3007 -0.1381 -0.7163
 2844TIP3    H129947   4.363   0.872  10.359  1.8060 -1.7827 -0.7266
 2844TIP3    H229948   4.349   0.776  10.475  0.1671  0.1827  0.7423
 2845TIP3   OH229949   4.717   0.847  10.395 -0.2618  0.0707  0.0225
 2845TIP3    H129950   4.770   0.777  10.358 -1.1268 -0.2365 -0.6441
 2845TIP3    H229951   4.627   0.813  10.392 -0.6320  1.0351  0.0987
 2846TIP3   OH229952   3.040   6.630  11.676 -0.1708 -0.5047  0.5411
 2846TIP3    H129953   2.999   6.701  11.628  0.0455  0.1752  1.3441
 2846TIP3    H229954   2.979   6.611  11.748  1.7054  1.7586  2.8374
 2847TIP3   OH229955   5.154   6.863  10.922  0.9205  0.5001 -0.5125
 2847TIP3    H129956   5.084   6.921  10.954  1.5067 -0.3998  2.5888
 2847TIP3    H229957   5.109   6.802  10.864 -0.8255  0.1679  1.1459
 2848TIP3   OH229958   3.550   6.770  10.178  0.0260 -0.5801  0.3589
 2848TIP3    H129959   3.470   6.755  10.128 -0.1339  0.9044  0.1498
 2848TIP3    H229960   3.617   6.721  10.131 -0.1793  0.5887 -1.1891
 2849TIP3   OH229961   4.205   5.019  11.212  0.4510 -0.6746 -0.1266
 2849TIP3    H129962   4.164   4.997  11.129 -1.2814  1.7381  0.0251
 2849TIP3    H229963   4.132   5.027  11.274  1.4639  0.1602  1.0004
 2850TIP3   OH229964   5.289   6.082  11.426  0.4152 -0.4259 -0.3227
 2850TIP3    H129965   5.263   6.012  11.486  1.1099  1.1195  1.8578
 2850TIP3    H229966   5.323   6.151  11.483  0.9070  1.1925 -2.5007
 2851TIP3   OH229967   4.839   6.054  11.293 -0.1326 -0.0318  0.1868
 2851TIP3    H129968   4.761   6.102  11.321  0.0438  0.5825 -0.3684
 2851TIP3    H229969   4.818   6.024  11.205 -0.8797 -2.3720  1.1229
 2852TIP3   OH229970   5.525   6.592  10.499 -0.0757 -0.2985 -0.1656
 2852TIP3    H129971   5.448   6.579  10.556 -0.8531  0.7813 -0.9625
 2852TIP3    H229972   5.538   6.507  10.457  1.5649 -1.6574  2.8753
 2853TIP3   OH229973   3.645   2.302  13.738  0.1039  0.0139 -0.2254
 2853TIP3    H129974   3.674   2.211  13.724 -3.1821 -1.2136  0.3918
 2853TIP3    H229975   3.581   2.317  13.669 -0.3853  1.4011  0.5186
 2854TIP3   OH229976   0.305   5.639  11.091 -0.4101  0.4332 -0.7984
 2854TIP3    H129977   0.357   5.678  11.161 -1.1446  0.7254 -0.4092
 2854TIP3    H229978   0.278   5.713  11.036  0.1308  0.2102 -1.3715
 2855TIP3   OH229979   3.765   5.683  10.755  0.0730 -0.5585 -0.8632
 2855TIP3    H129980   3.719   5.620  10.700 -1.2622  0.0513 -0.4773
 2855TIP3    H229981   3.771   5.762  10.702 -1.3362  0.0750 -0.1375
 2856TIP3   OH229982   6.044   6.475  10.425 -0.3550  0.2777 -0.1850
 2856TIP3    H129983   6.022   6.566  10.405 -0.9716 -0.1207 -1.3562
 2856TIP3    H229984   6.132   6.463  10.389  0.1732  0.7182  0.9391
 2857TIP3   OH229985   4.380   1.006   9.843 -0.2488 -0.0627 -0.0308
 2857TIP3    H129986   4.284   1.014   9.846 -0.2355  0.3967 -0.6885
 2857TIP3    H229987   4.395   0.916   9.814 -0.4773 -0.2381  0.3920
 2858TIP3   OH229988   4.856   6.691  13.153  0.4161  0.1738  0.0090
 2858TIP3    H129989   4.868   6.714  13.061  1.0273  0.7503  0.2322
 2858TIP3    H229990   4.938   6.649  13.178 -0.0996 -0.8179  0.0382
 2859TIP3   OH229991   4.086   6.069  10.800  0.0486 -0.2087  0.0263
 2859TIP3    H129992   4.154   6.002  10.797 -0.4602 -0.7998  1.3038
 2859TIP3    H229993   4.060   6.073  10.893 -1.8769 -0.2358 -0.4794
 2860TIP3   OH229994   6.298   0.669  11.356  0.1210 -0.0661  0.2047
 2860TIP3    H129995   6.272   0.641  11.444  0.9859 -0.4308  0.3518
 2860TIP3    H229996   6.267   0.598  11.299 -0.5295  0.2188  0.1988
 2861TIP3   OH229997   4.392   2.399  10.247  0.0480 -0.6870 -0.0233
 2861TIP3    H129998   4.459   2.414  10.313  0.6250 -1.4361 -0.4355
 2861TIP3    H229999   4.322   2.461  10.269  1.3599  0.9088 -0.2598
 2862TIP3   OH230000   4.854   3.276  12.277 -0.1137  0.6645  0.3398
 2862TIP3    H130001   4.926   3.221  12.308 -0.8819 -0.0847  0.8017
 2862TIP3    H230002   4.774   3.229  12.303 -0.7812  2.0110  0.7945
 2863TIP3   OH230003   4.681   6.574  12.707  0.0812  0.3006 -0.0729
 2863TIP3    H130004   4.665   6.551  12.615 -2.5909  0.6819  0.2595
 2863TIP3    H230005   4.638   6.505  12.757  0.5966  0.6720  0.8974
 2864TIP3   OH230006   5.853   6.301  11.597 -0.2234 -0.2551 -0.0516
 2864TIP3    H130007   5.774   6.250  11.578 -0.5650 -0.1190  0.9768
 2864TIP3    H230008   5.911   6.239  11.642  0.4224 -0.4621 -1.1351
 2865TIP3   OH230009   3.878   6.699  11.091 -0.0095 -0.4792 -0.0653
 2865TIP3    H130010   3.964   6.667  11.118  1.2086 -0.3162 -3.5319
 2865TIP3    H230011   3.887   6.795  11.091 -0.1720 -0.4643 -0.4746
 2866TIP3   OH230012   3.760   5.998  10.893 -0.0124  0.1232 -0.3957
 2866TIP3    H130013   3.747   5.992  10.798 -3.2404  0.7402 -0.0709
 2866TIP3    H230014   3.803   6.083  10.906  0.5591 -0.0189 -1.3294
 2867TIP3   OH230015   4.916   4.927  10.119  0.4439 -0.9181 -0.3491
 2867TIP3    H130016   4.827   4.962  10.117  0.6131 -0.4136  0.8449
 2867TIP3    H230017   4.950   4.942  10.030  0.6377  2.2174  0.2205
 2868TIP3   OH230018   4.486   5.859  11.169 -0.0831 -0.4907  0.3261
 2868TIP3    H130019   4.513   5.951  11.164  1.4656 -0.8986  1.1127
 2868TIP3    H230020   4.391   5.862  11.157  0.2502  0.9733 -2.4455
 2869TIP3   OH230021   6.532   0.521  11.996 -0.2151 -0.0063  0.1637
 2869TIP3    H130022   6.510   0.474  11.916  1.0029 -0.8338  0.3089
 2869TIP3    H230023   6.524   0.456  12.066  1.0197  0.1033  0.4239
 2870TIP3   OH230024   5.013   6.353  12.048 -0.5060  0.1744 -0.5206
 2870TIP3    H130025   5.099   6.394  12.058  0.3445 -1.3352 -1.3763
 2870TIP3    H230026   4.975   6.355  12.135 -0.3019  2.3478 -0.4544
 2871TIP3   OH230027   5.072   6.136  10.393  0.8866 -0.0239  0.0748
 2871TIP3    H130028   5.077   6.230  10.374  0.3231  0.3004  1.4654
 2871TIP3    H230029   5.118   6.126  10.476  2.7788 -1.3190 -1.0659
 2872TIP3   OH230030   3.881   1.150  13.128  0.0637  0.5270  0.0731
 2872TIP3    H130031   3.902   1.092  13.054 -1.6785  0.4696 -0.4106
 2872TIP3    H230032   3.868   1.091  13.202  0.1956  0.4523  0.0372
 2873TIP3   OH230033   4.957   7.052  11.908 -0.0988 -0.1231 -0.2098
 2873TIP3    H130034   5.015   6.980  11.883  0.2366 -0.0033  0.2106
 2873TIP3    H230035   4.989   7.127  11.859  0.8296  0.2121  0.8963
 2874TIP3   OH230036   3.851   6.784  11.893 -0.2217 -0.6232 -0.1880
 2874TIP3    H130037   3.937   6.760  11.858 -0.4425  0.0625 -1.2210
 2874TIP3    H230038   3.804   6.820  11.818 -0.9963  0.1136  0.6392
 2875TIP3   OH230039   6.606   4.396  10.615 -0.4938  0.6310  0.4163
 2875TIP3    H130040   6.652   4.346  10.548 -2.8922 -2.1260  0.7260
 2875TIP3    H230041   6.662   4.391  10.693  0.3343  0.3451 -0.2048
 2876TIP3   OH230042   4.462   0.890  10.715  0.2853 -0.0630 -0.1907
 2876TIP3    H130043   4.396   0.931  10.771 -1.5707 -3.6117  0.3544
 2876TIP3    H230044   4.422   0.886  10.629  0.9904  0.4911 -0.5495
 2877TIP3   OH230045   4.917   6.802  12.482 -0.3131  0.6223  0.2955
 2877TIP3    H130046   4.860   6.879  12.478  0.1342  0.9841  0.7507
 2877TIP3    H230047   5.000   6.836  12.514 -0.2261 -0.1108  0.8735
 2878TIP3   OH230048   4.504   0.420  11.984 -0.3932 -0.1581  0.1682
 2878TIP3    H130049   4.581   0.431  12.039 -0.8384 -0.9430  0.9558
 2878TIP3    H230050   4.470   0.509  11.972  2.4563  0.6591 -2.8987
 2879TIP3   OH230051   4.191   4.487  10.885 -0.1317 -0.1378 -0.4378
 2879TIP3    H130052   4.220   4.549  10.953 -0.9996 -0.8260  0.5749
 2879TIP3    H230053   4.247   4.507  10.810 -0.3176  1.8113 -0.1053
 2880TIP3   OH230054   5.336   4.104  11.108  0.4556 -0.0511 -0.6696
 2880TIP3    H130055   5.357   4.197  11.118  1.1985 -0.3005  0.1130
 2880TIP3    H230056   5.334   4.070  11.197 -0.2185 -0.7105 -0.9279
 2881TIP3   OH230057   1.329   5.394  10.815 -0.2229 -0.6397 -0.0108
 2881TIP3    H130058   1.281   5.336  10.756  0.5901  0.4201 -1.7573
 2881TIP3    H230059   1.416   5.401  10.776  0.6668 -0.8034  1.9297
 2882TIP3   OH230060   2.118   0.078  10.326  0.1453  0.0107  0.1998
 2882TIP3    H130061   2.094  -0.013  10.310  0.9087 -0.1866  0.1490
 2882TIP3    H230062   2.079   0.126  10.253  2.3442 -0.6881 -1.4893
 2883TIP3   OH230063   4.534   5.859  10.527 -0.1987  0.4204 -0.1321
 2883TIP3    H130064   4.458   5.807  10.501 -2.6044  2.1728  2.9717
 2883TIP3    H230065   4.505   5.950  10.515  2.5198  1.1190 -1.7449
 2884TIP3   OH230066   5.022   4.704  10.298 -0.6534  0.5230  0.0034
 2884TIP3    H130067   4.985   4.744  10.220  1.1583 -1.8764 -2.1453
 2884TIP3    H230068   5.108   4.745  10.308 -0.3142 -0.1681 -0.0569
 2885TIP3   OH230069   4.608   6.147  11.452 -0.1600 -0.0310 -0.3651
 2885TIP3    H130070   4.662   6.210  11.500  1.0335 -0.9970 -0.4246
 2885TIP3    H230071   4.562   6.098  11.521 -0.2114  0.1255 -0.2868
 2886TIP3   OH230072   4.999   0.178   9.795 -0.2534  0.0642 -0.2991
 2886TIP3    H130073   5.048   0.097   9.808 -0.8340 -0.4393 -1.2343
 2886TIP3    H230074   5.042   0.220   9.720 -0.0037  0.5799  0.1331
 2887TIP3   OH230075   2.751   4.922  12.569  0.3521  0.2454 -0.0719
 2887TIP3    H130076   2.710   5.004  12.540  0.1402 -0.0585 -0.6255
 2887TIP3    H230077   2.685   4.855  12.552  0.6898 -0.1030 -0.0058
 2888TIP3   OH230078   3.879   6.219   9.898  0.5437 -0.5597  0.3257
 2888TIP3    H130079   3.901   6.218   9.805  0.7767 -2.6998  0.3687
 2888TIP3    H230080   3.814   6.288   9.907  0.4241 -0.4240 -1.4646
 2889TIP3   OH230081   4.888   0.102  12.300  0.4771 -0.1147  0.4210
 2889TIP3    H130082   4.892   0.155  12.220 -2.2848 -0.2897  0.1312
 2889TIP3    H230083   4.910   0.013  12.271  2.2020  0.3068  0.3804
 2890TIP3   OH230084   4.840   1.084  10.283 -0.2867 -0.1940 -0.7501
 2890TIP3    H130085   4.780   1.017  10.314  1.9832 -1.1091  1.8339
 2890TIP3    H230086   4.919   1.037  10.258  1.2422  1.4181  0.8391
 2891TIP3   OH230087   1.982   0.011  10.058  0.4949 -0.5946 -0.1923
 2891TIP3    H130088   2.029   0.094  10.055  0.9421 -0.8302  0.2787
 2891TIP3    H230089   1.890   0.035  10.043  0.8883 -0.2621 -2.1715
 2892TIP3   OH230090   2.876   0.281  11.099  0.1810 -0.6743 -0.2894
 2892TIP3    H130091   2.851   0.309  11.011  0.5992 -0.0256 -0.2003
 2892TIP3    H230092   2.800   0.302  11.154  0.4830  0.2570 -0.2272
 2893TIP3   OH230093   4.868   7.173  12.174 -0.2562 -0.0386  0.4775
 2893TIP3    H130094   4.921   7.100  12.141  0.4943  0.5429  0.3811
 2893TIP3    H230095   4.864   7.234  12.099  2.2416  1.7347  1.6873
 2894TIP3   OH230096   6.652   1.407  11.396 -0.1685  0.3391  0.1434
 2894TIP3    H130097   6.656   1.395  11.491 -0.5158 -3.2290 -0.2437
 2894TIP3    H230098   6.574   1.359  11.369 -0.0207  1.2508 -1.9706
 2895TIP3   OH230099   4.716   6.986  12.361  0.0017 -0.5435  0.2943
 2895TIP3    H130100   4.654   7.042  12.408 -0.9387 -0.5340 -0.8966
 2895TIP3    H230101   4.777   7.047  12.320 -1.0661 -0.3401 -1.0640
 2896TIP3   OH230102   4.309   5.730  10.376 -0.0577 -0.1653 -0.3915
 2896TIP3    H130103   4.216   5.750  10.363  0.3104  0.8244 -1.6065
 2896TIP3    H230104   4.351   5.763  10.297  1.4717  0.3545  0.6241
 2897TIP3   OH230105   4.296   5.583  11.342  0.8325  0.0720 -0.3657
 2897TIP3    H130106   4.311   5.563  11.434  1.2795  0.1009 -0.4314
 2897TIP3    H230107   4.374   5.549  11.297  0.4048 -0.3559 -0.7853
 2898TIP3   OH230108   0.384   4.100  12.215  0.1836  0.5018  0.3533
 2898TIP3    H130109   0.457   4.160  12.233  0.6879  0.3776 -1.2604
 2898TIP3    H230110   0.409   4.055  12.135 -1.3666 -0.0390  0.1628
 2899TIP3   OH230111   3.962   0.075  13.776 -0.0984  0.4656  0.2372
 2899TIP3    H130112   4.003   0.131  13.710  1.3911 -0.5490  0.2892
 2899TIP3    H230113   3.910   0.013  13.726 -1.1796  1.4159  0.1528
 2900TIP3   OH230114   4.278   7.281  12.308  0.2749  1.0245  0.5639
 2900TIP3    H130115   4.339   7.238  12.248  1.0073 -0.4363  2.3240
 2900TIP3    H230116   4.220   7.210  12.338  1.3518  1.2477  3.3178
 2901TIP3   OH230117   6.180   1.071  11.878 -0.0553  0.1979  0.3479
 2901TIP3    H130118   6.128   0.995  11.902 -0.4335  0.4946  0.4780
 2901TIP3    H230119   6.121   1.145  11.892  1.0295  0.7037  2.3954
 2902TIP3   OH230120   4.425   0.766  12.897 -0.2578 -0.3620 -0.6671
 2902TIP3    H130121   4.380   0.711  12.961  0.9859 -1.0397 -0.3489
 2902TIP3    H230122   4.496   0.807  12.947  0.5334 -0.6582 -1.5315
 2903TIP3   OH230123   2.318   4.778  11.775 -0.4031 -0.3518  0.7860
 2903TIP3    H130124   2.225   4.785  11.754 -0.5223 -0.2338  1.3456
 2903TIP3    H230125   2.336   4.853  11.832  0.3472  0.3905 -0.4191
 2904TIP3   OH230126   3.758   6.836  12.742 -0.0011 -0.2353  0.0038
 2904TIP3    H130127   3.681   6.815  12.689 -0.6432 -2.0420  1.5905
 2904TIP3    H230128   3.808   6.754  12.745  0.3039 -0.0076  1.6989
 2905TIP3   OH230129   5.967   5.895  12.738 -0.0292  0.1474  0.3836
 2905TIP3    H130130   5.919   5.885  12.656  1.5284 -0.3846 -0.4668
 2905TIP3    H230131   5.927   5.972  12.779 -2.1545 -0.7576  0.0870
 2906TIP3   OH230132   6.049   7.160   9.900  0.6697 -0.0307  0.6209
 2906TIP3    H130133   6.131   7.176   9.853  0.8913 -1.3977  0.5219
 2906TIP3    H230134   6.005   7.092   9.849 -0.1138  0.0494  1.1773
 2907TIP3   OH230135   2.082   5.437  11.763  0.3886 -0.1258  0.3855
 2907TIP3    H130136   2.000   5.411  11.723  1.0322 -1.1893 -0.2570
 2907TIP3    H230137   2.064   5.523  11.801 -0.8709 -0.1331 -0.1860
 2908TIP3   OH230138   3.603   5.800  12.012  0.0340  0.1455  0.0043
 2908TIP3    H130139   3.648   5.721  11.985  0.0044  0.0191  0.3244
 2908TIP3    H230140   3.603   5.797  12.107  1.6872  1.4609  0.0639
 2909TIP3   OH230141   4.091   0.427  11.580  0.3652  0.3420  0.2001
 2909TIP3    H130142   4.086   0.353  11.519 -1.5104  1.3883 -0.9928
 2909TIP3    H230143   4.158   0.485  11.543 -0.6100  0.8645 -0.7935
 2910TIP3   OH230144   5.428   0.318  10.724 -0.4807 -0.6270 -0.0246
 2910TIP3    H130145   5.374   0.373  10.667 -0.2428 -0.5603 -0.1845
 2910TIP3    H230146   5.409   0.228  10.695  0.1578 -0.5588 -0.6654
 2911TIP3   OH230147   6.428   4.317  11.446 -0.2181 -0.6558 -0.1722
 2911TIP3    H130148   6.466   4.346  11.529 -1.1431  0.6651 -0.1927
 2911TIP3    H230149   6.503   4.292  11.392  0.5802  1.2028  0.0491
 2912TIP3   OH230150   3.760   6.510  10.448 -0.0298  0.1570 -0.3219
 2912TIP3    H130151   3.734   6.421  10.471 -0.6719  0.1313 -1.0856
 2912TIP3    H230152   3.807   6.543  10.524  1.1801 -1.2217 -0.4651
 2913TIP3   OH230153   4.137   1.119  10.460 -0.1588 -0.1114 -0.1170
 2913TIP3    H130154   4.053   1.087  10.493  0.2056 -1.5046 -0.5093
 2913TIP3    H230155   4.132   1.108  10.365 -0.0963  1.1956 -0.2827
 2914TIP3   OH230156   4.167   0.587  12.607  0.2756  0.3079  0.3216
 2914TIP3    H130157   4.223   0.662  12.587  0.1929  0.0491 -0.9145
 2914TIP3    H230158   4.227   0.512  12.610  0.0549  0.0879 -0.6327
 2915TIP3   OH230159   3.815   6.214  10.459  0.1178 -0.1684  0.6460
 2915TIP3    H130160   3.895   6.175  10.424  0.7008  0.1545  1.5849
 2915TIP3    H230161   3.750   6.143  10.456  0.4540 -0.4416 -0.0819
 2916TIP3   OH230162   2.566   6.399  11.113  0.5455 -0.4496  0.3195
 2916TIP3    H130163   2.555   6.349  11.033 -0.9967 -1.8837  1.3950
 2916TIP3    H230164   2.660   6.402  11.127  0.7923 -0.6833 -1.2196
 2917TIP3   OH230165   2.332   6.333  11.634 -0.1976  0.5254 -0.6669
 2917TIP3    H130166   2.355   6.324  11.541 -2.6555 -0.3895 -1.2392
 2917TIP3    H230167   2.392   6.274  11.679  0.8069  0.7322 -1.7122
 2918TIP3   OH230168   4.766   5.463  10.468 -0.4284  0.3834  0.6230
 2918TIP3    H130169   4.676   5.480  10.441 -0.3467  0.0832  0.1721
 2918TIP3    H230170   4.779   5.370  10.451 -0.1184  0.3667  0.9387
 2919TIP3   OH230171   5.170   4.081  10.093  0.4513  0.0701 -0.0836
 2919TIP3    H130172   5.118   4.143  10.144 -4.4541 -2.0421 -2.2587
 2919TIP3    H230173   5.164   4.114  10.003  0.0387 -2.0408 -0.8476
 2920TIP3   OH230174   5.134   7.094  11.293 -0.2425  0.0298  0.2176
 2920TIP3    H130175   5.125   7.146  11.213  1.8003 -0.0001 -0.0615
 2920TIP3    H230176   5.082   7.016  11.277 -1.1026  0.7342 -0.4716
 2921TIP3   OH230177   3.685   6.593  10.938 -0.2477 -0.3349  0.9603
 2921TIP3    H130178   3.695   6.616  10.846 -0.5669  0.5951  1.1514
 2921TIP3    H230179   3.765   6.624  10.979 -0.5516  0.1856  1.1687
 2922TIP3   OH230180   4.332   6.640  12.040 -0.1764 -0.4580  0.7695
 2922TIP3    H130181   4.333   6.732  12.066 -1.0098 -0.4310  0.6968
 2922TIP3    H230182   4.371   6.639  11.953  2.0556 -0.4725  1.7122
 2923TIP3   OH230183   4.124   6.592  10.541  0.3216 -0.0420  0.1803
 2923TIP3    H130184   4.063   6.584  10.614  0.8137 -0.5964  0.5269
 2923TIP3    H230185   4.089   6.665  10.489 -1.2098 -1.0084 -0.1805
 2924TIP3   OH230186   4.199   0.488  11.820  0.2474  0.5523  0.4074
 2924TIP3    H130187   4.166   0.446  11.742 -0.0596  2.7609 -0.7014
 2924TIP3    H230188   4.202   0.419  11.886 -3.6425 -0.3898 -0.3149
 2925TIP3   OH230189   6.581   0.121  10.691  0.4754  0.4681 -0.1683
 2925TIP3    H130190   6.492   0.130  10.657  0.1122 -1.7150  0.1325
 2925TIP3    H230191   6.632   0.185  10.641 -1.4300  2.4698  0.3654
 2926TIP3   OH230192   5.366   0.317  10.422  0.4352 -0.7931 -0.0493
 2926TIP3    H130193   5.323   0.325  10.337  1.5515 -0.7024 -0.6135
 2926TIP3    H230194   5.317   0.377  10.479 -0.1754 -0.6841 -0.6781
 2927TIP3   OH230195   4.181   6.082   9.927  0.2047  0.2546  0.1640
 2927TIP3    H130196   4.173   6.074   9.832 -1.9779  1.3474  0.2112
 2927TIP3    H230197   4.241   6.155   9.940 -0.1661  0.6689 -0.3997
 2928TIP3   OH230198   5.392   0.302  11.774  0.9712  0.3911 -0.1715
 2928TIP3    H130199   5.379   0.263  11.688 -0.4441  0.4341  0.0147
 2928TIP3    H230200   5.335   0.378  11.775  0.4472 -0.0006  1.0512
 2929TIP3   OH230201   2.931   6.906  11.971  0.4332 -0.1104  0.3717
 2929TIP3    H130202   2.992   6.979  11.965  2.2676 -1.6694 -0.5295
 2929TIP3    H230203   2.986   6.830  11.990 -1.5829 -1.0449  2.7210
 2930TIP3   OH230204   3.996   5.275  11.784  0.4083  0.0945 -0.2173
 2930TIP3    H130205   4.077   5.268  11.734  1.0434  1.4312  0.5941
 2930TIP3    H230206   3.936   5.325  11.727  0.7216  0.5613 -0.1376
 2931TIP3   OH230207   1.629   4.773  11.339  0.2940 -0.5067  0.1006
 2931TIP3    H130208   1.535   4.787  11.354  0.4376 -0.4861  0.9836
 2931TIP3    H230209   1.648   4.823  11.260 -0.9119 -2.2998 -1.3771
 2932TIP3   OH230210   5.211   5.659  11.777 -0.1864 -0.5087  0.2928
 2932TIP3    H130211   5.305   5.673  11.784  0.4171 -3.4723 -1.1961
 2932TIP3    H230212   5.174   5.715  11.846  2.3231  3.3214 -1.2884
 2933TIP3   OH230213   4.691   1.874  11.300  0.8854 -0.1594 -0.2101
 2933TIP3    H130214   4.661   1.919  11.221  1.1281  0.7322  0.2075
 2933TIP3    H230215   4.641   1.914  11.371 -0.6339 -2.1832 -0.1010
 2934TIP3   OH230216   5.231   7.292   9.786 -0.3722 -0.2200  0.8414
 2934TIP3    H130217   5.263   7.283   9.696  0.8820  0.4508  1.2112
 2934TIP3    H230218   5.284   7.231   9.837 -0.5040  0.0154  1.2690
 2935TIP3   OH230219   5.597   6.826  11.326  0.2034  0.0363 -0.2054
 2935TIP3    H130220   5.537   6.853  11.395  1.2198  2.1946 -0.1329
 2935TIP3    H230221   5.549   6.845  11.245  0.4557  0.9167 -0.1421
 2936TIP3   OH230222   5.290   6.482  11.290 -0.2306  0.1911 -0.3420
 2936TIP3    H130223   5.233   6.559  11.292  0.5246  0.7046  2.2043
 2936TIP3    H230224   5.251   6.421  11.353  0.1377 -0.8388 -1.0918
 2937TIP3   OH230225   4.141   4.417  12.027  0.7787 -0.8688  0.5273
 2937TIP3    H130226   4.119   4.509  12.012 -0.8884 -1.5279 -1.3394
 2937TIP3    H230227   4.058   4.375  12.046  1.1596 -2.4517 -1.2001
 2938TIP3   OH230228   4.807   0.343  14.636 -0.3892  0.4901  0.2314
 2938TIP3    H130229   4.865   0.417  14.655 -0.1581  0.8283 -1.6251
 2938TIP3    H230230   4.719   0.382  14.632 -0.3949  0.4843  0.3129
 2939TIP3   OH230231   5.901   5.125  12.976  0.1847 -0.3515 -0.2409
 2939TIP3    H130232   5.947   5.165  13.050 -1.6729 -0.8661  1.2112
 2939TIP3    H230233   5.904   5.191  12.907  1.5386  0.3067  0.4380
 2940TIP3   OH230234   2.892   4.371  10.143  0.2691  0.1344  0.0399
 2940TIP3    H130235   2.916   4.366  10.050 -0.6871  0.6465 -0.2377
 2940TIP3    H230236   2.812   4.320  10.150 -1.0667  2.1894  0.0880
 2941TIP3   OH230237   3.704   5.763  11.018 -0.1495  0.5572  0.0638
 2941TIP3    H130238   3.732   5.707  10.946  1.6669  0.9013  0.4640
 2941TIP3    H230239   3.704   5.852  10.982 -1.3479  0.4955 -0.0993
 2942TIP3   OH230240   3.428   6.419  11.308 -0.6462 -0.2865 -0.2682
 2942TIP3    H130241   3.386   6.445  11.390 -0.8251  0.2949 -0.5424
 2942TIP3    H230242   3.410   6.491  11.248  0.6395 -0.0748 -0.4216
 2943TIP3   OH230243   5.498   5.598  11.524  0.0790  0.3886  0.0496
 2943TIP3    H130244   5.585   5.593  11.486  0.0399  0.9634 -0.1291
 2943TIP3    H230245   5.502   5.674  11.583  0.0292 -0.2669  0.9074
 2944TIP3   OH230246   5.134   6.268  12.901  0.0016  0.0466  0.2156
 2944TIP3    H130247   5.198   6.316  12.849 -0.2935  1.9679  1.5790
 2944TIP3    H230248   5.150   6.296  12.991 -1.4832 -0.9239  0.8065
 2945TIP3   OH230249   4.836   3.922  13.246 -0.5939  0.3602 -0.0029
 2945TIP3    H130250   4.885   3.879  13.316  1.0295  0.7239 -0.9122
 2945TIP3    H230251   4.807   3.849  13.190 -0.8822  0.1744  0.3791
 2946TIP3   OH230252   3.004   5.857  13.192  0.5605 -0.2221  0.3284
 2946TIP3    H130253   3.075   5.829  13.250 -0.3329 -0.3127  1.4025
 2946TIP3    H230254   2.928   5.862  13.249 -0.2569  0.0649 -0.7774
 2947TIP3   OH230255   3.785   7.147  12.388 -0.3320  0.1457 -0.5534
 2947TIP3    H130256   3.802   7.118  12.478 -0.6275 -1.9453 -1.1384
 2947TIP3    H230257   3.717   7.214  12.397 -0.9119 -0.5843  0.7199
 2948TIP3   OH230258   6.617   2.159  11.373 -0.2191 -0.1739 -0.0657
 2948TIP3    H130259   6.650   2.069  11.380 -0.9856 -0.5704 -1.4162
 2948TIP3    H230260   6.525   2.149  11.349  0.0381  0.9741 -1.5821
 2949TIP3   OH230261   4.346   6.066  10.563  0.0404  0.4638 -0.3603
 2949TIP3    H130262   4.336   6.157  10.535 -2.1910  0.4032  0.1765
 2949TIP3    H230263   4.390   6.071  10.648 -0.1856  1.0527 -0.2759
 2950TIP3   OH230264   3.770   4.530  10.886  0.0842  0.0930 -0.6765
 2950TIP3    H130265   3.830   4.463  10.918 -1.1446 -1.0530 -0.7670
 2950TIP3    H230266   3.815   4.568  10.810  0.4619 -1.1208 -1.0690
 2951TIP3   OH230267   2.365   6.630  11.983  0.1473 -0.0765  0.0738
 2951TIP3    H130268   2.404   6.713  11.955  1.1368 -0.7090 -0.4727
 2951TIP3    H230269   2.274   6.651  12.002  1.1103  1.8662  3.0815
 2952TIP3   OH230270   4.700   6.251  10.908  0.1362 -0.3120 -0.1543
 2952TIP3    H130271   4.613   6.289  10.923 -0.2827 -0.8683 -1.1997
 2952TIP3    H230272   4.725   6.280  10.820  1.8117  1.3753  0.8284
 2953TIP3   OH230273   5.508   0.616  11.910  0.2176 -0.9024 -0.1375
 2953TIP3    H130274   5.423   0.575  11.922  0.5711 -1.5404  0.2592
 2953TIP3    H230275   5.514   0.633  11.816  0.1030 -1.8718 -0.3220
 2954TIP3   OH230276   5.578   6.224  12.537  0.2686  0.1078 -0.2390
 2954TIP3    H130277   5.555   6.132  12.525 -0.3168  0.0028  1.5566
 2954TIP3    H230278   5.515   6.272  12.483 -0.8962 -0.4351  0.6400
 2955TIP3   OH230279   3.096   6.321  10.690 -0.5122 -0.1416  0.2909
 2955TIP3    H130280   3.051   6.237  10.702 -2.0365  0.4782 -0.8983
 2955TIP3    H230281   3.162   6.303  10.624 -1.2851 -0.2637 -0.4621
 2956TIP3   OH230282   3.996   7.065   9.881 -0.0057  0.5215  0.4418
 2956TIP3    H130283   3.913   7.109   9.901  0.0073  0.7581 -0.0153
 2956TIP3    H230284   4.063   7.119   9.924 -0.1560 -0.1135  1.4874
 2957TIP3   OH230285   6.578   0.879  12.919 -0.4573 -0.2631 -0.0348
 2957TIP3    H130286   6.665   0.865  12.957 -0.3848 -0.2197 -0.1820
 2957TIP3    H230287   6.557   0.796  12.876 -0.0280  0.0803 -0.9125
 2958TIP3   OH230288   3.388   5.601  10.698  0.0011 -0.8085 -0.3034
 2958TIP3    H130289   3.373   5.592  10.604 -1.9273 -2.2637  0.0996
 2958TIP3    H230290   3.450   5.532  10.720 -0.8168 -1.5442 -0.2579
 2959TIP3   OH230291   4.075   5.438  11.312 -0.0049 -0.8129  0.2855
 2959TIP3    H130292   4.139   5.508  11.319 -1.0286  0.1570 -0.0033
 2959TIP3    H230293   4.092   5.382  11.388  1.0068 -0.4189  0.3435
 2960TIP3   OH230294   5.932   0.314  11.294  0.0567  1.1477 -0.0316
 2960TIP3    H130295   5.973   0.400  11.292  0.2238  1.0483 -0.9908
 2960TIP3    H230296   5.884   0.308  11.212  3.8407 -1.5050 -2.2264
 2961TIP3   OH230297   4.507   5.235  10.637 -0.2794  0.3725  0.1854
 2961TIP3    H130298   4.580   5.209  10.581 -0.0620  2.8328 -0.7317
 2961TIP3    H230299   4.544   5.304  10.693 -1.5686  0.7571  0.5687
 2962TIP3   OH230300   5.985   1.023  11.203 -0.0507  0.6218 -0.3233
 2962TIP3    H130301   6.072   1.055  11.227  0.0997  0.8645 -1.1640
 2962TIP3    H230302   5.925   1.070  11.261  0.4782 -0.6381  1.2944
 2963TIP3   OH230303   4.501   5.502  10.418  0.2472 -0.0199 -0.4337
 2963TIP3    H130304   4.446   5.437  10.376 -0.1598  0.5754 -0.8351
 2963TIP3    H230305   4.440   5.571  10.446  0.6411  0.0838  0.1812
 2964TIP3   OH230306   4.896   1.620  12.499  0.0443 -0.0464 -0.0237
 2964TIP3    H130307   4.822   1.680  12.508  0.1818  0.2026 -0.5446
 2964TIP3    H230308   4.972   1.672  12.525 -0.0177 -0.4368  0.9486
 2965TIP3   OH230309   4.289   6.464  12.252  0.1947  0.3230 -0.0042
 2965TIP3    H130310   4.347   6.389  12.260  0.1317  0.3297  0.4898
 2965TIP3    H230311   4.336   6.524  12.193  0.8513  0.4854  0.6767
 2966TIP3   OH230312   3.986   4.900  11.606  0.4388 -0.9072  0.1615
 2966TIP3    H130313   4.067   4.883  11.654  0.1656  0.5567  1.1596
 2966TIP3    H230314   3.969   4.818  11.558  3.1328 -0.8458 -1.0153
 2967TIP3   OH230315   5.077   5.381   9.477 -0.3847 -0.3786  0.1746
 2967TIP3    H130316   5.158   5.331   9.484 -0.3493 -0.2673  0.6009
 2967TIP3    H230317   5.061   5.413   9.566 -0.5458  0.1444 -0.0367
 2968TIP3   OH230318   4.333   6.323   9.891 -0.5116  0.1638  0.2536
 2968TIP3    H130319   4.426   6.303   9.908 -0.5990 -1.7281 -1.2169
 2968TIP3    H230320   4.331   6.418   9.880  1.2416  0.2532  0.4228
 2969TIP3   OH230321   4.604   6.279  12.726 -0.3585  0.5033 -0.0820
 2969TIP3    H130322   4.538   6.211  12.718  1.0976 -0.9204 -0.1962
 2969TIP3    H230323   4.569   6.340  12.791 -1.5723 -0.4689  0.1779
 2970TIP3   OH230324   3.481   4.592  10.836 -0.1144 -0.1241  0.0253
 2970TIP3    H130325   3.574   4.573  10.827 -0.1047 -0.4180  0.6862
 2970TIP3    H230326   3.446   4.519  10.888 -0.6639  0.1038 -0.0167
 2971TIP3   OH230327   4.781   4.480  10.221  0.1370  0.2222 -0.1259
 2971TIP3    H130328   4.773   4.553  10.160  0.4295  0.7512  0.4535
 2971TIP3    H230329   4.691   4.453  10.240  0.0373  0.2794 -0.5223
 2972TIP3   OH230330   5.130   6.583  11.726  0.5528 -0.3454 -0.0919
 2972TIP3    H130331   5.090   6.661  11.764  1.9809 -0.0886  0.9475
 2972TIP3    H230332   5.076   6.562  11.650 -1.0232  0.4742  0.7908
 2973TIP3   OH230333   5.439   1.178  11.029 -0.1536  0.3234 -0.7953
 2973TIP3    H130334   5.510   1.224  10.985  1.7893 -1.1855  0.7070
 2973TIP3    H230335   5.422   1.101  10.974  1.0740 -0.6217  0.1227
 2974TIP3   OH230336   3.462   0.229  10.349  0.1088 -0.6349 -0.5833
 2974TIP3    H130337   3.519   0.244  10.273  0.5691  0.3391 -0.0657
 2974TIP3    H230338   3.373   0.241  10.315  0.3759  1.6325 -0.6163
 2975TIP3   OH230339   4.715   5.187  10.441  0.1560  0.3580 -0.0808
 2975TIP3    H130340   4.771   5.114  10.469 -0.1339 -0.3473 -1.2962
 2975TIP3    H230341   4.692   5.166  10.351 -2.7226  0.2255  0.6365
 2976TIP3   OH230342   3.758   7.006  13.000 -0.2625 -0.7208 -0.0571
 2976TIP3    H130343   3.753   6.958  12.917 -0.5627 -1.5299  0.4199
 2976TIP3    H230344   3.684   6.974  13.050 -1.6951  1.7783 -0.5029
 2977TIP3   OH230345   3.943   6.092  10.151 -0.2231  0.5045 -0.9106
 2977TIP3    H130346   4.036   6.074  10.142 -0.6278 -1.9120 -0.5770
 2977TIP3    H230347   3.915   6.121  10.064  0.7512  0.8728 -1.1025
 2978TIP3   OH230348   5.179   4.780  14.545  0.3783  0.4160  0.2520
 2978TIP3    H130349   5.099   4.734  14.518  0.0343  1.5823 -0.7640
 2978TIP3    H230350   5.239   4.711  14.570 -1.3304 -0.4604  2.1248
 2979TIP3   OH230351   7.118   5.953  10.729  0.1461 -0.0053 -0.2824
 2979TIP3    H130352   7.054   5.883  10.748  0.4187 -0.6648 -1.7365
 2979TIP3    H230353   7.161   5.924  10.649 -0.0737  2.0784 -1.1694
 2980TIP3   OH230354   5.573   6.524  11.851  0.4321  0.5348 -0.7353
 2980TIP3    H130355   5.524   6.449  11.817  0.5219  0.0360  0.2138
 2980TIP3    H230356   5.551   6.596  11.792  1.4113 -0.5471 -2.4844
 2981TIP3   OH230357   3.099   4.354  10.455 -0.7131  0.8376 -0.3084
 2981TIP3    H130358   3.099   4.272  10.405  0.8267  0.3574  0.4398
 2981TIP3    H230359   3.153   4.413  10.402 -0.4661  0.8516 -0.0403
 2982TIP3   OH230360   4.906   5.797  11.397 -0.4951  0.3919  1.0759
 2982TIP3    H130361   4.933   5.762  11.311 -0.8798  1.0421  0.6873
 2982TIP3    H230362   4.885   5.888  11.379  1.4435  1.1024  2.2639
 2983TIP3   OH230363   4.342   4.677  11.106  0.3935  0.2685  0.2445
 2983TIP3    H130364   4.375   4.594  11.142  1.4214 -0.0213 -1.2733
 2983TIP3    H230365   4.364   4.743  11.171  1.0778 -0.4197  0.7133
 2984TIP3   OH230366   4.992   5.352  13.321  0.4381  0.2042 -0.1199
 2984TIP3    H130367   5.076   5.319  13.289  1.0511  1.2222  0.4229
 2984TIP3    H230368   4.927   5.291  13.285  1.5139 -1.3450  0.5186
 2985TIP3   OH230369   1.366   5.805  11.795 -0.0111  0.2753 -0.6229
 2985TIP3    H130370   1.388   5.887  11.839 -0.9937 -1.1123  2.6104
 2985TIP3    H230371   1.450   5.767  11.770  0.7376  0.0701  2.0714
 2986TIP3   OH230372   5.016   5.862  11.862  0.6711  1.0260  1.4989
 2986TIP3    H130373   4.945   5.801  11.883  0.3232  0.5406 -0.9322
 2986TIP3    H230374   4.992   5.943  11.907 -1.2165  0.7342  1.0585
 2987TIP3   OH230375   7.160   4.156  12.222  0.6022 -0.4001 -0.0144
 2987TIP3    H130376   7.222   4.133  12.291 -1.6000  0.2657  2.2374
 2987TIP3    H230377   7.208   4.219  12.168  2.3918 -1.0113  0.8265
 2988TIP3   OH230378   6.068   6.691  11.567 -0.3320  0.5245 -0.1579
 2988TIP3    H130379   6.082   6.763  11.505 -0.1633 -1.1064 -2.0837
 2988TIP3    H230380   5.996   6.641  11.529  0.7439 -1.3357  0.1641
 2989TIP3   OH230381   0.399   0.140  10.372  0.4245 -0.1201  0.3272
 2989TIP3    H130382   0.393   0.092  10.290 -1.3061 -0.9350  0.9098
 2989TIP3    H230383   0.354   0.223  10.355 -1.2120 -0.8795  0.8538
 2990TIP3   OH230384   0.174   0.609  12.343  0.4942  0.2018  0.5697
 2990TIP3    H130385   0.101   0.636  12.287  2.1205  0.1584 -1.6422
 2990TIP3    H230386   0.232   0.560  12.284  2.0349 -0.2612  2.4250
 2991TIP3   OH230387   7.076   5.438  11.387  0.0931 -0.1561  0.0796
 2991TIP3    H130388   7.105   5.353  11.353 -0.3901  0.4429 -1.9075
 2991TIP3    H230389   7.145   5.464  11.448 -0.3234 -2.4920  1.5960
 2992TIP3   OH230390   2.907   5.425  10.196 -0.3631  0.3189  0.7065
 2992TIP3    H130391   2.848   5.387  10.131 -0.4728  0.8394  0.4899
 2992TIP3    H230392   2.974   5.358  10.211 -0.7777 -0.1117  0.6414
 2993TIP3   OH230393   6.184   0.370  12.015  0.7166 -0.0092 -0.5194
 2993TIP3    H130394   6.170   0.279  11.986 -1.4308 -0.1786  0.9923
 2993TIP3    H230395   6.256   0.364  12.078  0.4387 -0.7050 -0.2588
 2994TIP3   OH230396   6.346   5.628  11.321 -0.2060 -0.2334 -0.3277
 2994TIP3    H130397   6.252   5.614  11.316 -0.2450  0.0446 -0.3570
 2994TIP3    H230398   6.381   5.546  11.356 -0.6084  0.1743  1.0434
 2995TIP3   OH230399   6.771   6.783  10.156  0.2377  0.2057 -0.0709
 2995TIP3    H130400   6.776   6.693  10.125  2.0450  1.5488 -3.9451
 2995TIP3    H230401   6.744   6.833  10.080  0.1225  3.0908  1.7885
 2996TIP3   OH230402   6.422   1.190  11.275 -0.0646 -0.0776 -0.3687
 2996TIP3    H130403   6.431   1.134  11.352 -1.4809 -0.7851 -0.7067
 2996TIP3    H230404   6.370   1.265  11.304  0.1344  0.0838 -0.4237
 2997TIP3   OH230405   5.030   0.082  12.901  0.0955 -0.4417  0.1779
 2997TIP3    H130406   4.961   0.144  12.924  0.9906  0.4618  0.4553
 2997TIP3    H230407   4.996  -0.003  12.928 -0.8377  0.0103  0.4528
 2998TIP3   OH230408   6.332   6.953  10.937  0.0535 -0.2401  0.7435
 2998TIP3    H130409   6.292   7.038  10.921 -0.1552 -0.3426  0.7244
 2998TIP3    H230410   6.336   6.912  10.851  0.5441 -0.0784  0.6845
 2999TIP3   OH230411   5.417   7.142  11.056 -0.2252 -0.3333 -0.4153
 2999TIP3    H130412   5.402   7.050  11.034  0.7290 -0.4679 -0.5245
 2999TIP3    H230413   5.453   7.180  10.976  0.4516 -0.1262 -0.0127
 3000TIP3   OH230414   7.112   0.790  10.264 -0.1079  0.2322 -0.4513
 3000TIP3    H130415   7.024   0.818  10.235 -0.3874 -2.0977 -1.9843
 3000TIP3    H230416   7.137   0.722  10.201  1.6012 -1.1586  1.6845
 3001TIP3   OH230417   5.803   5.100  13.232 -0.1256 -0.2104 -0.3099
 3001TIP3    H130418   5.821   5.114  13.139 -2.1713  0.4823 -0.6276
 3001TIP3    H230419   5.727   5.042  13.233 -0.7739  0.6389  0.9295
 3002TIP3   OH230420   7.272   5.525  11.551 -0.6859 -0.2792  0.1455
 3002TIP3    H130421   7.320   5.456  11.597 -0.2487  0.3357  0.6086
 3002TIP3    H230422   7.340   5.581  11.514 -1.0428  0.0413 -0.0247
 3003TIP3   OH230423   5.244   6.511  11.980 -0.1999 -0.3652  0.3692
 3003TIP3    H130424   5.305   6.560  12.034  3.1280 -0.4172 -3.0683
 3003TIP3    H230425   5.206   6.576  11.921  0.6837 -1.0907 -1.0588
 3004TIP3   OH230426   7.234   4.207  10.720  0.5204  0.5597  0.5502
 3004TIP3    H130427   7.287   4.130  10.699 -0.2233 -0.4844  2.3453
 3004TIP3    H230428   7.283   4.281  10.685  0.8676 -0.7756 -1.9293
 3005TIP3   OH230429   5.466   6.349  10.305  0.7823 -0.3057  0.4707
 3005TIP3    H130430   5.373   6.333  10.289  1.0020 -1.8105  0.6244
 3005TIP3    H230431   5.492   6.412  10.238 -0.2040 -0.3430  0.0460
 3006TIP3   OH230432   6.682   5.998  11.147  0.8733 -0.3630 -0.0969
 3006TIP3    H130433   6.775   5.990  11.167  0.7225 -0.8223  0.4311
 3006TIP3    H230434   6.641   5.923  11.190  0.0921  0.5260  0.7617
 3007TIP3   OH230435   5.744   0.543  12.107 -0.0454 -0.3428 -0.6193
 3007TIP3    H130436   5.827   0.540  12.061 -0.2900 -1.7696 -0.9883
 3007TIP3    H230437   5.679   0.518  12.041 -1.2748  4.3360 -1.3830
 3008TIP3   OH230438   1.090   6.694  10.248  0.0365  0.1514  0.0597
 3008TIP3    H130439   1.133   6.780  10.249  2.2169 -0.8964 -0.5571
 3008TIP3    H230440   1.102   6.662  10.158 -3.2430  0.3660 -0.5479
 3009TIP3   OH230441   5.269   5.829  12.389  0.1064  0.1680 -0.6147
 3009TIP3    H130442   5.187   5.860  12.426  0.1442 -1.4128  0.8425
 3009TIP3    H230443   5.253   5.826  12.294 -1.7057 -0.6875 -0.2903
 3010TIP3   OH230444   0.587   4.873  12.974  0.9119 -0.0762  0.2037
 3010TIP3    H130445   0.656   4.937  12.990  2.5776 -2.0334  1.2294
 3010TIP3    H230446   0.568   4.836  13.060  0.1506 -1.0794 -0.3784
 3011TIP3   OH230447   6.535   7.093  11.684  0.1909  0.3592  0.5281
 3011TIP3    H130448   6.551   7.161  11.749  0.3066  1.2161 -0.3663
 3011TIP3    H230449   6.615   7.090  11.632  0.7382 -1.4926  1.4552
 3012TIP3   OH230450   6.640   0.311  11.833  0.2006 -1.2074  0.5554
 3012TIP3    H130451   6.638   0.223  11.797 -1.6349 -2.1245  2.8014
 3012TIP3    H230452   6.549   0.340  11.832  0.7321  0.4977  0.2207
 3013TIP3   OH230453   0.428   7.084  11.255 -0.0840  0.0264  0.6084
 3013TIP3    H130454   0.503   7.102  11.199 -1.1252  0.9837 -0.5036
 3013TIP3    H230455   0.380   7.015  11.209  0.5639 -1.2204  1.7578
 3014TIP3   OH230456   6.911   5.965  10.393  0.0353 -0.3943  0.3347
 3014TIP3    H130457   6.939   6.000  10.477 -0.7552 -1.2245  0.9648
 3014TIP3    H230458   6.947   6.025  10.328  0.3370  0.4634  1.2827
 3015TIP3   OH230459   6.061   7.024  10.140  0.4094  0.4907 -0.3326
 3015TIP3    H130460   6.045   7.095  10.078  2.0721  1.5638  0.4408
 3015TIP3    H230461   6.119   6.964  10.093 -1.2423 -0.5460 -1.0987
 3016TIP3   OH230462   0.777   7.053  11.785  0.5464  0.0656  0.2545
 3016TIP3    H130463   0.864   7.021  11.763  0.6194  0.4199  0.0225
 3016TIP3    H230464   0.778   7.145  11.760 -0.4726 -0.3502 -1.3946
 3017TIP3   OH230465   5.535   6.397   9.433 -0.2942 -0.2814  0.0663
 3017TIP3    H130466   5.594   6.468   9.459 -0.3441 -0.6554  1.2698
 3017TIP3    H230467   5.588   6.317   9.444 -0.4878 -0.4877 -0.5056
 3018TIP3   OH230468   4.626   0.271  10.402 -0.3661  0.3853  0.2398
 3018TIP3    H130469   4.707   0.252  10.449 -0.6450 -0.8231  0.2577
 3018TIP3    H230470   4.579   0.187  10.400 -2.2483  1.3608  1.4771
 3019TIP3   OH230471   5.867   0.055   9.986  0.3625 -0.4086 -0.1224
 3019TIP3    H130472   5.917   0.135   9.970 -2.0859  0.9792 -1.0781
 3019TIP3    H230473   5.918  -0.015   9.945  0.9513  1.1318 -2.0699
 3020TIP3   OH230474   1.731   7.179  11.587 -0.4008 -0.5028  0.1569
 3020TIP3    H130475   1.795   7.215  11.526 -0.2986 -0.1570  0.4630
 3020TIP3    H230476   1.647   7.212  11.556 -0.4316 -0.9532 -0.2434
 3021TIP3   OH230477   5.002   4.288  10.192  0.0222 -0.1123  0.6017
 3021TIP3    H130478   5.057   4.336  10.254 -0.5828  0.5416  0.6396
 3021TIP3    H230479   4.936   4.351  10.165  1.2330  0.1078 -1.9520
 3022TIP3   OH230480   5.599   7.251  11.584  0.0497  0.2362 -0.2123
 3022TIP3    H130481   5.683   7.291  11.565 -0.5311  1.3103 -0.5683
 3022TIP3    H230482   5.537   7.297  11.527 -0.6353 -1.1361 -0.5935
 3023TIP3   OH230483   6.848   6.722   9.791  0.2047  0.0424  0.5328
 3023TIP3    H130484   6.829   6.632   9.815 -0.1686 -0.5728 -1.9275
 3023TIP3    H230485   6.940   6.735   9.815  0.7127 -1.4988 -0.5029
 3024TIP3   OH230486   7.120   1.102  11.975  0.3533  0.2665  0.4166
 3024TIP3    H130487   7.054   1.111  12.044 -0.8490  1.3262 -0.8304
 3024TIP3    H230488   7.163   1.187  11.971  1.4280 -0.2540  0.8496
 3025TIP3   OH230489   5.161   5.881  10.329 -0.0870  0.5298 -0.0430
 3025TIP3    H130490   5.117   5.965  10.339 -1.5360 -0.2379  0.1360
 3025TIP3    H230491   5.132   5.847  10.244  1.2764  0.6504 -0.5804
 3026TIP3   OH230492   5.761   6.921  13.284 -0.4201  0.4290 -0.8031
 3026TIP3    H130493   5.680   6.871  13.296  0.6106 -1.0250  0.4020
 3026TIP3    H230494   5.732   7.007  13.254 -2.3043 -0.5810 -2.0144
 3027TIP3   OH230495   5.412   0.918  12.344 -0.0165  0.6717  0.1353
 3027TIP3    H130496   5.341   0.908  12.408 -0.0735 -0.1298 -0.0345
 3027TIP3    H230497   5.367   0.924  12.260  0.1499 -1.3359 -0.1265
 3028TIP3   OH230498   7.129   0.964  13.483  0.0584  0.2357  0.2507
 3028TIP3    H130499   7.221   0.975  13.506 -0.0230 -0.8050  1.0997
 3028TIP3    H230500   7.096   1.054  13.472  0.9583  0.6351  0.7919
 3029TIP3   OH230501   6.553   6.404  10.879  0.3753  0.3847  0.1599
 3029TIP3    H130502   6.596   6.337  10.932  1.0183  1.1387  0.5908
 3029TIP3    H230503   6.623   6.465  10.856 -0.2641  1.0465 -0.0223
 3030TIP3   OH230504   4.718   0.992  10.660 -0.2930  0.4842 -0.4147
 3030TIP3    H130505   4.736   0.951  10.576 -0.6181  0.3688 -0.4285
 3030TIP3    H230506   4.639   0.949  10.692  1.1940 -1.2105  1.1023
 3031TIP3   OH230507   1.324   6.470  10.582 -0.3669  0.9345  0.6055
 3031TIP3    H130508   1.230   6.478  10.564 -0.4919 -1.0656  0.2415
 3031TIP3    H230509   1.365   6.465  10.496 -0.4840 -3.5115  0.6572
 3032TIP3   OH230510   1.738   4.075  12.146 -0.6269 -0.1733 -0.2754
 3032TIP3    H130511   1.787   3.993  12.157  0.1654  0.2525 -0.6154
 3032TIP3    H230512   1.650   4.047  12.122 -0.3706 -0.9333 -0.3380
 3033TIP3   OH230513   7.080   0.365  13.464  0.3591  0.4251 -0.9437
 3033TIP3    H130514   7.045   0.439  13.415 -0.7553  0.2335 -0.4592
 3033TIP3    H230515   7.009   0.300  13.464  1.2049 -0.5098 -1.0936
 3034TIP3   OH230516   0.015   6.699  10.921 -0.0366  0.5255  0.2556
 3034TIP3    H130517   0.026   6.792  10.903  0.2047  0.9071  2.1948
 3034TIP3    H230518   0.080   6.680  10.989 -0.9550 -0.7336  0.8088
 3035TIP3   OH230519   3.972   5.165  11.439 -0.7497 -0.1451  0.1735
 3035TIP3    H130520   3.913   5.161  11.364 -2.2309 -0.0967  1.2835
 3035TIP3    H230521   3.950   5.087  11.491 -0.8899  0.6492  1.3403
 3036TIP3   OH230522   5.270   0.448  12.483 -0.0392 -1.1327  0.0418
 3036TIP3    H130523   5.262   0.376  12.420  1.4611  0.0745 -1.5993
 3036TIP3    H230524   5.229   0.523  12.440 -0.8193 -0.7808  1.3665
 3037TIP3   OH230525   1.260   6.178  13.547  0.4785  0.1035  0.6185
 3037TIP3    H130526   1.228   6.227  13.471  1.0068 -1.3147 -0.5458
 3037TIP3    H230527   1.183   6.168  13.603  0.1417  1.3967  0.4024
 3038TIP3   OH230528   4.436   6.748  11.221 -0.3348  0.2157 -0.4317
 3038TIP3    H130529   4.496   6.809  11.264  0.4539  0.1195 -1.3715
 3038TIP3    H230530   4.456   6.757  11.127 -2.2934  0.7069 -0.8101
 3039TIP3   OH230531   7.101   0.031  11.133  0.0225 -0.0324 -0.3363
 3039TIP3    H130532   7.008   0.032  11.110  0.1541 -1.6835 -1.0575
 3039TIP3    H230533   7.116   0.114  11.178 -1.9600 -0.0533  0.4170
 3040TIP3   OH230534   6.135   7.202  10.338 -0.1664  0.1965  0.2290
 3040TIP3    H130535   6.106   7.133  10.279  1.2339 -0.2761  0.0666
 3040TIP3    H230536   6.178   7.266  10.281  0.6944  0.0099  0.6554
 3041TIP3   OH230537   6.360   5.555  10.701  0.3242  0.2633 -0.5359
 3041TIP3    H130538   6.340   5.589  10.788 -0.5599 -0.9273 -0.2578
 3041TIP3    H230539   6.423   5.485  10.716 -0.0958 -0.1808 -0.8061
 3042TIP3   OH230540   5.012   5.815  10.131  0.3906 -0.6444 -0.1805
 3042TIP3    H130541   5.066   5.863  10.069  2.5983 -0.1449  2.0245
 3042TIP3    H230542   4.983   5.737  10.083  0.9583  0.3687 -2.2089
 3043TIP3   OH230543   6.948   5.554  11.183 -0.8045  0.0580 -0.2314
 3043TIP3    H130544   6.981   5.499  11.254 -1.0326 -1.2266 -1.0931
 3043TIP3    H230545   6.913   5.632  11.226 -0.2081 -0.3418  0.9921
 3044TIP3   OH230546   0.663   3.644  11.078 -0.2058  0.1665 -0.1208
 3044TIP3    H130547   0.611   3.589  11.019  0.9816  1.3340 -2.3451
 3044TIP3    H230548   0.744   3.595  11.092 -0.5033 -0.1265  0.5726
 3045TIP3   OH230549   5.875   5.119  10.822 -0.2022  0.5505 -0.8771
 3045TIP3    H130550   5.835   5.108  10.736  1.2057 -0.9737 -1.3601
 3045TIP3    H230551   5.954   5.065  10.819 -0.0504  0.5996  1.3251
 3046TIP3   OH230552   6.113   6.234   9.979  0.1958  0.4026 -0.5089
 3046TIP3    H130553   6.080   6.154   9.938 -0.7931  1.1905 -1.2808
 3046TIP3    H230554   6.037   6.271  10.024  0.7584  0.6745  0.2217
 3047TIP3   OH230555   0.871   5.181  10.337 -0.7285 -0.2554 -0.0107
 3047TIP3    H130556   0.917   5.194  10.254 -0.2792  2.3022  0.5865
 3047TIP3    H230557   0.913   5.242  10.397 -1.1245 -2.0045  2.0778
 3048TIP3   OH230558   5.375   6.541   9.599 -0.1111  0.4660 -0.7592
 3048TIP3    H130559   5.399   6.488   9.523 -1.6567 -1.3495 -0.0351
 3048TIP3    H230560   5.458   6.575   9.632  1.0730 -2.4146 -0.6176
 3049TIP3   OH230561   5.346   4.049  10.550 -0.4839 -0.7639  0.2405
 3049TIP3    H130562   5.402   4.094  10.487  0.9373 -2.1927  0.4350
 3049TIP3    H230563   5.272   4.018  10.499  0.6432 -1.8967 -0.7455
 3050TIP3   OH230564   6.974   7.040  11.287  0.0851 -0.7064 -0.1300
 3050TIP3    H130565   6.953   7.101  11.216 -0.3128  0.1640  0.7218
 3050TIP3    H230566   6.975   6.954  11.245  0.3290 -0.1554 -1.2825
 3051TIP3   OH230567   6.491   6.208  11.340 -0.4612 -0.4757  0.3042
 3051TIP3    H130568   6.400   6.185  11.327 -0.5888  0.3520 -0.3063
 3051TIP3    H230569   6.539   6.161  11.272 -0.6402  0.4686 -0.4899
 3052TIP3   OH230570   0.052   1.468  11.804  0.0104  0.3821  1.0471
 3052TIP3    H130571  -0.036   1.446  11.774 -0.0271 -0.1149  1.5200
 3052TIP3    H230572   0.069   1.555  11.767  0.7269 -1.0013 -2.0697
 3053TIP3   OH230573   5.209   6.513  10.546  0.4287 -0.3772  0.0400
 3053TIP3    H130574   5.236   6.478  10.461 -1.1554  1.8534 -1.4272
 3053TIP3    H230575   5.128   6.467  10.567 -0.4767  0.7808 -0.8435
 3054TIP3   OH230576   6.403   6.669  11.378  0.0715  0.0998  0.6796
 3054TIP3    H130577   6.366   6.612  11.311 -0.1400  0.0577  0.8322
 3054TIP3    H230578   6.367   6.755  11.359  0.9603  0.3344  0.0110
 3055TIP3   OH230579   5.690   0.362  11.768  0.5354  0.8064  0.3182
 3055TIP3    H130580   5.598   0.338  11.762  0.3780  0.9123  2.0652
 3055TIP3    H230581   5.732   0.312  11.698 -0.6487 -0.1719  0.2871
 3056TIP3   OH230582   6.141   6.522  12.403  0.0522 -0.1675  0.0579
 3056TIP3    H130583   6.147   6.517  12.307  3.8916  2.1541  0.0862
 3056TIP3    H230584   6.178   6.440  12.434 -0.3837 -0.5462 -0.4093
 3057TIP3   OH230585   5.449   5.950  10.263  0.1841  0.1585 -1.0927
 3057TIP3    H130586   5.368   5.921  10.305  0.3919  0.6305 -0.3505
 3057TIP3    H230587   5.420   5.990  10.181 -0.3169  0.1194 -0.9401
 3058TIP3   OH230588   0.028   6.211  10.556  0.1016  0.1955  0.5158
 3058TIP3    H130589   0.022   6.282  10.620 -0.0161  0.8973 -0.2675
 3058TIP3    H230590  -0.056   6.214  10.509  0.6892  0.5028 -0.5202
 3059TIP3   OH230591   3.937   4.656  11.204 -0.3782 -0.2771  0.2895
 3059TIP3    H130592   4.001   4.600  11.160 -0.4534 -0.3850  0.3175
 3059TIP3    H230593   3.892   4.701  11.132 -2.5870 -2.7149  0.0705
 3060TIP3   OH230594   5.604   6.053  13.053 -0.1770 -0.0746  0.1793
 3060TIP3    H130595   5.539   6.106  13.007 -0.5356  0.0434  0.8242
 3060TIP3    H230596   5.566   5.965  13.056  1.4770 -1.0159 -3.0971
 3061TIP3   OH230597   7.033   6.627  11.314  0.2096 -0.0837 -0.8058
 3061TIP3    H130598   7.076   6.627  11.228  1.5480  1.5393 -0.1494
 3061TIP3    H230599   7.103   6.650  11.376 -1.4503  2.0592  0.3386
 3062TIP3   OH230600   6.854   4.613  12.499  0.0869 -0.4072  0.2101
 3062TIP3    H130601   6.844   4.613  12.404  3.0014  0.3493 -0.1276
 3062TIP3    H230602   6.842   4.522  12.524 -1.2074 -0.5359 -0.8164
 3063TIP3   OH230603   5.248   0.555  11.909 -0.3433  0.0539 -0.0266
 3063TIP3    H130604   5.224   0.646  11.931 -2.2916 -0.8498  1.7359
 3063TIP3    H230605   5.167   0.516  11.877 -0.0347 -1.6278  1.1699
 3064TIP3   OH230606   5.204   6.655   9.819 -0.1746 -0.2342  0.1202
 3064TIP3    H130607   5.237   6.619   9.737 -0.1511  1.6486 -0.7244
 3064TIP3    H230608   5.268   6.721   9.844 -0.0888 -0.9155  1.7649
 3065TIP3   OH230609   6.609   6.971  10.490  0.2050  0.2060 -0.4014
 3065TIP3    H130610   6.664   6.921  10.550  0.0775  1.7713  1.0533
 3065TIP3    H230611   6.576   6.906  10.428 -0.2981 -1.6057  1.6975
 3066TIP3   OH230612   0.050   6.152  11.533  0.5733  0.5786  0.4694
 3066TIP3    H130613   0.056   6.071  11.483  0.5416  0.8758 -0.0265
 3066TIP3    H230614   0.031   6.124  11.622  0.5479  0.0437  0.2992
 3067TIP3   OH230615   1.220   4.025  12.456 -0.0689  0.0814  0.3992
 3067TIP3    H130616   1.294   4.075  12.492 -0.0085  1.3616 -1.4058
 3067TIP3    H230617   1.145   4.055  12.506  0.5225 -0.7735  1.8353
 3068TIP3   OH230618   0.415   4.865  10.341  0.1256  0.2013 -0.2779
 3068TIP3    H130619   0.375   4.796  10.287  0.6220 -0.8106  0.6270
 3068TIP3    H230620   0.502   4.831  10.363  0.9254  1.7325 -0.9719
 3069TIP3   OH230621   7.176   5.648  10.583  0.0775 -0.0680 -0.1124
 3069TIP3    H130622   7.160   5.591  10.508  0.6294  0.2113 -0.4427
 3069TIP3    H230623   7.210   5.729  10.545  0.1786  0.1422  0.4239
 3070TIP3   OH230624   0.902   3.654  12.069  0.3509  0.2025 -0.0300
 3070TIP3    H130625   0.834   3.599  12.030  0.8156  0.4163 -1.1631
 3070TIP3    H230626   0.961   3.674  11.996  1.6576 -0.0307  0.9513
 3071TIP3   OH230627   5.441   5.944  11.191  0.2667 -0.3628  0.2165
 3071TIP3    H130628   5.386   6.017  11.220  1.1153  0.0520  0.8311
 3071TIP3    H230629   5.381   5.872  11.177 -0.4931  0.2375  0.3677
 3072TIP3   OH230630   5.734   6.197   9.453  0.0015 -0.1657  0.5456
 3072TIP3    H130631   5.807   6.192   9.515  0.1890  1.6983  0.5054
 3072TIP3    H230632   5.688   6.114   9.464  1.0686 -0.6043  1.8981
 3073TIP3   OH230633   7.122   4.343  11.659 -0.3146 -0.1670  0.6224
 3073TIP3    H130634   7.149   4.403  11.729  0.8484  0.0682 -0.0147
 3073TIP3    H230635   7.032   4.367  11.640  1.0412  3.3352 -1.6223
 3074TIP3   OH230636   5.982   5.229  11.105 -0.5398  0.4506 -0.2455
 3074TIP3    H130637   5.960   5.212  11.013  1.1644  0.4673 -0.6879
 3074TIP3    H230638   6.020   5.147  11.136  0.2267  0.8866 -0.0014
 3075TIP3   OH230639   6.251   0.022  10.083 -0.0602 -0.0674  0.2486
 3075TIP3    H130640   6.244  -0.007   9.992 -1.4669  0.8311  0.0658
 3075TIP3    H230641   6.214   0.110  10.083  1.9258  0.8050  1.2798
 3076TIP3   OH230642   4.989   4.818  10.923  0.0472 -0.1022  0.2819
 3076TIP3    H130643   5.001   4.911  10.941  1.9841 -0.0388 -1.1708
 3076TIP3    H230644   4.961   4.815  10.832  1.0275 -0.9818 -0.0004
 3077TIP3   OH230645   6.920   6.373  11.357 -0.0296 -0.7284 -0.5287
 3077TIP3    H130646   6.974   6.452  11.353  1.5378 -1.6722  1.2059
 3077TIP3    H230647   6.934   6.331  11.272 -0.0108  0.2961 -1.0448
 3078TIP3   OH230648   5.301   5.983  11.836 -0.7998  0.2710  0.5453
 3078TIP3    H130649   5.228   6.045  11.835 -0.2427  0.9266 -1.2613
 3078TIP3    H230650   5.305   5.949  11.747 -0.0095 -1.0901  1.0863
 3079TIP3   OH230651   6.681   6.902   9.921  0.2281  0.3620 -0.3460
 3079TIP3    H130652   6.743   6.856   9.865  1.4889  2.0661 -0.4071
 3079TIP3    H230653   6.626   6.951   9.859 -0.1528  0.0957 -0.2189
 3080TIP3   OH230654   6.319   5.235  11.115  0.3285 -0.2267  0.1217
 3080TIP3    H130655   6.387   5.169  11.129 -0.1710 -0.8586 -0.4078
 3080TIP3    H230656   6.243   5.185  11.085  0.0328  0.6242 -0.5575
 3081TIP3   OH230657   0.878   5.680  11.131  0.5340 -0.6495  0.0137
 3081TIP3    H130658   0.861   5.756  11.187  0.4053 -0.3174 -0.4763
 3081TIP3    H230659   0.964   5.698  11.092  0.4817 -0.7323 -0.1405
 3082TIP3   OH230660   4.897   6.778  11.103 -0.2530  0.6607 -0.2686
 3082TIP3    H130661   4.805   6.796  11.083 -0.1756  1.4445  0.0616
 3082TIP3    H230662   4.917   6.698  11.054 -1.0417  0.6210 -0.5344
 3083TIP3   OH230663   5.746   5.794   9.874  0.5522  0.2770 -0.2712
 3083TIP3    H130664   5.829   5.767   9.913 -0.0861 -1.5876 -0.1442
 3083TIP3    H230665   5.771   5.833   9.790  1.6058  0.3573  0.0714
 3084TIP3   OH230666   6.336   6.509   9.754  0.2032 -0.2360  0.5017
 3084TIP3    H130667   6.359   6.602   9.759 -1.8018  0.2680  0.6249
 3084TIP3    H230668   6.330   6.491   9.660  1.5731 -0.5167  0.4495
 3085TIP3   OH230669   4.584   6.919  11.363  0.1925 -0.1571  0.0865
 3085TIP3    H130670   4.521   6.991  11.364  0.9476  0.5091  0.5945
 3085TIP3    H230671   4.639   6.935  11.439 -0.2972 -1.8798  0.8256
 3086TIP3   OH230672   6.463   6.770   9.678  0.4001  0.0359  0.2968
 3086TIP3    H130673   6.393   6.835   9.675 -0.7794 -1.2623 -1.0226
 3086TIP3    H230674   6.534   6.809   9.626  0.9773  1.6892  2.2873
 3087TIP3   OH230675   0.216   6.599  11.116  0.0772 -0.4045  0.3594
 3087TIP3    H130676   0.256   6.515  11.142  2.0260  0.2587 -0.4145
 3087TIP3    H230677   0.288   6.649  11.078 -0.8508  1.9974  1.6368
 3088TIP3   OH230678   4.542   4.239  11.327  0.0649 -0.1422  0.0010
 3088TIP3    H130679   4.627   4.208  11.296 -0.0400  0.0684 -0.4935
 3088TIP3    H230680   4.547   4.229  11.423  1.0157  0.8061  0.0582
 3089TIP3   OH230681   7.048   0.538  11.285  0.3626 -0.0422  0.2560
 3089TIP3    H130682   6.986   0.575  11.347  0.8203 -0.1783  0.8053
 3089TIP3    H230683   7.082   0.460  11.330  1.3723  0.3717  0.2158
 3090TIP3   OH230684   0.694   5.140  10.557 -0.2078  0.0762  0.1899
 3090TIP3    H130685   0.760   5.151  10.488 -0.5454 -1.2038 -0.3628
 3090TIP3    H230686   0.629   5.208  10.540  0.5725  0.8342  0.2576
 3091TIP3   OH230687   7.233   0.717  10.821  0.1437 -0.1451 -0.3824
 3091TIP3    H130688   7.212   0.805  10.793  0.0523 -0.1446 -0.3166
 3091TIP3    H230689   7.172   0.701  10.894 -0.5286 -0.6275 -1.0391
 3092TIP3   OH230690   5.819   6.401  11.113  0.0569 -0.5545  0.1071
 3092TIP3    H130691   5.810   6.479  11.168  1.3227 -0.9050  0.8257
 3092TIP3    H230692   5.830   6.435  11.024  0.5907  0.0898  0.4161
 3093TIP3   OH230693   6.938   4.120  12.556 -0.0356  0.7236 -0.1854
 3093TIP3    H130694   6.967   4.032  12.579  1.5368  1.6227  1.4154
 3093TIP3    H230695   7.014   4.160  12.514 -1.5527  0.5123 -3.3035
 3094TIP3   OH230696   4.774   0.464  10.709 -0.3314 -0.0058 -0.3622
 3094TIP3    H130697   4.735   0.435  10.792 -0.2739 -0.3434 -0.4516
 3094TIP3    H230698   4.808   0.383  10.669 -0.4298  0.1455 -0.7516
 3095TIP3   OH230699   7.226   7.224  10.916 -0.2514  0.0638  0.3588
 3095TIP3    H130700   7.186   7.281  10.981  0.3504 -1.5009  2.1590
 3095TIP3    H230701   7.158   7.160  10.896 -0.7965  1.1542 -1.3706
 3096TIP3   OH230702   0.407   4.402  11.365 -0.5095  0.0420 -0.1185
 3096TIP3    H130703   0.405   4.492  11.398  0.9265  0.3242 -0.7680
 3096TIP3    H230704   0.460   4.354  11.428  1.2948  0.3392 -1.3572
 3097TIP3   OH230705   4.894   5.899   9.798 -0.0135  0.2571 -0.1380
 3097TIP3    H130706   4.832   5.961   9.835  0.1022  0.3351 -0.0749
 3097TIP3    H230707   4.973   5.909   9.852  0.0639  0.1776 -0.2347
 3098TIP3   OH230708   7.167   0.287  11.361 -0.2465 -0.5839  0.3695
 3098TIP3    H130709   7.097   0.255  11.418  0.2975 -0.9500  0.8423
 3098TIP3    H230710   7.240   0.226  11.375  0.3851  0.1544  0.3596
 3099TIP3   OH230711   5.875   4.979  11.936 -0.0843 -0.1407 -0.1938
 3099TIP3    H130712   5.784   5.005  11.951  0.2444  0.9501 -0.0337
 3099TIP3    H230713   5.915   4.979  12.022  0.1746 -0.2333 -0.3126
 3100TIP3   OH230714   7.097   4.496  12.093 -0.2515 -0.2903  0.4903
 3100TIP3    H130715   7.004   4.472  12.088 -0.0983 -0.7768 -0.2231
 3100TIP3    H230716   7.123   4.508  12.001  0.6287 -1.1180  0.6235
 3101TIP3   OH230717   6.513   0.119  10.963 -0.2349 -0.3383 -0.1351
 3101TIP3    H130718   6.549   0.031  10.965  1.1488  0.1580 -2.0297
 3101TIP3    H230719   6.545   0.157  10.881 -0.9699  1.8560  0.5411
 3102TIP3   OH230720   7.182   4.644  12.303 -0.1079 -0.2745  0.4237
 3102TIP3    H130721   7.170   4.706  12.231 -0.3412  0.6975  1.2920
 3102TIP3    H230722   7.155   4.559  12.266  1.7697 -0.1711 -1.2719
 3103TIP3   OH230723   7.200   4.921  10.132  0.1947 -0.5730 -0.3647
 3103TIP3    H130724   7.115   4.901  10.093  0.5825 -1.5784 -0.7034
 3103TIP3    H230725   7.247   4.838  10.130  0.5294 -0.4502  1.4737
 3104TIP3   OH230726   0.668   5.290  14.504  0.2222 -0.2401 -0.5872
 3104TIP3    H130727   0.710   5.205  14.510 -0.1315 -0.3022  1.1410
 3104TIP3    H230728   0.627   5.303  14.590 -1.8490  0.5561 -1.6639
 3105TIP3   OH230729   0.313   5.812  10.451 -0.3023 -0.0201 -0.2515
 3105TIP3    H130730   0.281   5.886  10.502 -0.0448  0.5443 -0.8994
 3105TIP3    H230731   0.292   5.834  10.360  1.3484  0.0858 -0.6327
 3106TIP3   OH230732   5.944   6.631  12.572 -0.1985  0.2665  0.1029
 3106TIP3    H130733   5.990   6.640  12.655  0.5382  0.4616 -0.3206
 3106TIP3    H230734   6.005   6.581  12.516 -1.2088 -0.9963  0.0963
 3107TIP3   OH230735   5.027   5.084  10.883 -0.1015 -0.1918 -0.2142
 3107TIP3    H130736   5.002   5.159  10.830 -1.3671  0.1045  0.7821
 3107TIP3    H230737   5.065   5.122  10.962 -0.2831 -0.6118  0.0731
 3108TIP3   OH230738   4.019   5.951  11.883  0.0886  0.0876  0.1390
 3108TIP3    H130739   3.989   5.865  11.851 -2.6874  2.4790 -4.1352
 3108TIP3    H230740   3.941   5.989  11.923  0.6654  1.6227 -0.1968
 3109TIP3   OH230741   0.800   1.026  12.746  0.5060 -0.0588  0.2941
 3109TIP3    H130742   0.777   0.958  12.683  3.5999 -1.0194  0.1143
 3109TIP3    H230743   0.757   1.105  12.713 -1.1774 -1.4024 -0.8096
 3110TIP3   OH230744   6.387   5.785  11.681  0.3554 -0.7446 -0.1025
 3110TIP3    H130745   6.408   5.812  11.591  1.7150 -1.7446 -0.1084
 3110TIP3    H230746   6.449   5.833  11.735  0.0151 -0.6947  0.2467
 3111TIP3   OH230747   0.088   4.392  11.445 -0.3980 -0.0436  0.4028
 3111TIP3    H130748   0.069   4.476  11.487 -0.1276 -0.2676  0.9689
 3111TIP3    H230749   0.079   4.327  11.514 -0.4527 -0.4710  0.0023
 3112TIP3   OH230750   5.955   0.759  11.262 -0.2787  0.4858  0.1655
 3112TIP3    H130751   5.923   0.759  11.352  2.2374  1.5254  1.1002
 3112TIP3    H230752   5.974   0.851  11.244  1.7958 -0.0538 -0.4926
 3113TIP3   OH230753   7.121   6.164   9.938 -0.7582  0.6350 -1.2547
 3113TIP3    H130754   7.135   6.241   9.994  1.7969 -0.5842 -0.1037
 3113TIP3    H230755   7.093   6.095   9.999 -0.5095  0.0007 -1.8541
 3114TIP3   OH230756   6.804   5.326  11.377 -0.2827  0.6282  0.1562
 3114TIP3    H130757   6.898   5.325  11.393 -0.3976  1.1803  0.8630
 3114TIP3    H230758   6.781   5.234  11.364 -0.2302  0.1097  3.4369
 3115TIP3   OH230759   0.741   5.798  10.826 -0.0863  0.1382 -0.1497
 3115TIP3    H130760   0.732   5.864  10.895 -2.4906  0.2937 -0.5522
 3115TIP3    H230761   0.712   5.716  10.868 -1.3745  0.2003 -0.9016
 3116TIP3   OH230762   6.185   5.557   9.969 -0.0324  0.2062 -0.4225
 3116TIP3    H130763   6.097   5.527   9.995  0.3181 -0.0233  0.5147
 3116TIP3    H230764   6.212   5.615  10.040  0.6999  0.0368 -0.5674
 3117TIP3   OH230765   6.930   6.022  11.961 -0.4660 -0.4011 -0.1862
 3117TIP3    H130766   6.980   6.006  11.881  0.8048 -2.3722  0.9628
 3117TIP3    H230767   6.849   6.065  11.931  0.6448  0.2291 -2.3499
 3118TIP3   OH230768   6.853   5.839  10.094 -0.1873 -0.2912 -0.0435
 3118TIP3    H130769   6.935   5.881  10.067 -0.1869 -0.6382 -0.5867
 3118TIP3    H230770   6.786   5.907  10.081 -0.1591 -0.3972 -0.7371
 3119TIP3   OH230771   5.791   6.272  11.862  0.2012 -0.3660  0.1567
 3119TIP3    H130772   5.819   6.294  11.773 -1.0921 -0.9162 -0.3956
 3119TIP3    H230773   5.696   6.258  11.855  0.0975 -0.4879  1.6049
 3120TIP3   OH230774   5.552   6.267  10.580 -0.1164 -0.5743  0.4495
 3120TIP3    H130775   5.519   6.274  10.490  0.2507 -1.4134  0.2454
 3120TIP3    H230776   5.646   6.282  10.572 -0.1219 -0.3751  0.7374
 3121TIP3   OH230777   4.306   5.849  10.079 -0.1688  0.5815 -0.1612
 3121TIP3    H130778   4.281   5.915  10.014  0.4040  0.7862 -0.1798
 3121TIP3    H230779   4.332   5.773  10.027  2.9174  1.6547 -0.3037
 3122TIP3   OH230780   5.875   0.249  13.233 -0.6071 -0.5316 -0.1613
 3122TIP3    H130781   5.850   0.210  13.150  1.4399 -0.8882 -0.6416
 3122TIP3    H230782   5.892   0.174  13.290  0.6160 -0.3154 -0.2394
 3123TIP3   OH230783   4.862   0.220  10.540  0.1100  0.6182 -0.1377
 3123TIP3    H130784   4.942   0.252  10.498  0.4284  2.8016  2.0127
 3123TIP3    H230785   4.891   0.141  10.587  0.7685  0.7764 -0.2665
 3124TIP3   OH230786   0.465   6.652  10.893 -0.2452 -0.0971 -0.4678
 3124TIP3    H130787   0.500   6.616  10.811  1.1855  0.1319  0.0120
 3124TIP3    H230788   0.449   6.744  10.873  2.8824  0.6898  0.2761
 3125TIP3   OH230789   0.539   7.228  12.774  0.4037 -0.3402 -0.5430
 3125TIP3    H130790   0.521   7.251  12.865 -0.2256 -1.0133 -0.4936
 3125TIP3    H230791   0.475   7.159  12.753  0.5675 -0.2170 -1.4767
 3126TIP3   OH230792   5.645   5.196  10.295  0.2147  0.7300 -0.6047
 3126TIP3    H130793   5.562   5.158  10.265  0.2345  0.7266 -0.6570
 3126TIP3    H230794   5.673   5.252  10.223 -0.3918  1.7447 -0.0441
 3127TIP3   OH230795   0.096   6.058  10.801  0.1282 -0.0419 -0.2326
 3127TIP3    H130796   0.107   6.072  10.707 -1.9023 -0.7140 -0.5987
 3127TIP3    H230797   0.007   6.088  10.819 -0.3382 -2.0723  1.0342
 3128TIP3   OH230798   6.814   5.191  10.356 -0.5419  0.7992 -0.4718
 3128TIP3    H130799   6.849   5.109  10.390  0.2037  0.6071 -1.6880
 3128TIP3    H230800   6.731   5.167  10.315 -0.2339  0.6214 -0.9912
 3129TIP3   OH230801   5.482   5.778   9.687  0.1588 -0.1667 -0.0560
 3129TIP3    H130802   5.432   5.859   9.673  1.1907  0.7471  1.4028
 3129TIP3    H230803   5.430   5.728   9.750  0.1447 -0.0782  0.0021
 3130TIP3   OH230804   6.355   5.090  11.440  0.3674  0.5506 -0.0628
 3130TIP3    H130805   6.295   5.165  11.440 -0.6471 -0.2510  0.1665
 3130TIP3    H230806   6.399   5.096  11.355 -1.7310 -0.1674 -1.2427
 3131TIP3   OH230807   0.410   5.812   9.958  0.0420 -0.1010 -0.9988
 3131TIP3    H130808   0.463   5.891   9.963  0.1263 -0.1694 -0.7961
 3131TIP3    H230809   0.468   5.746   9.919 -0.1524  0.0405 -1.5340
 3132TIP3   OH230810   6.859   5.929   9.798 -0.3709  0.5023 -0.0732
 3132TIP3    H130811   6.829   6.013   9.833  1.5499  0.6642  1.2453
 3132TIP3    H230812   6.944   5.915   9.838 -0.6711 -2.1048 -0.2467
 3133TIP3   OH230813   6.655   6.035  10.065 -0.3205 -0.1386 -0.2733
 3133TIP3    H130814   6.559   6.039  10.072 -0.2788 -1.3061  1.0564
 3133TIP3    H230815   6.683   6.127  10.066 -1.3561  0.1787  0.3619
 3134TIP3   OH230816   0.233   6.949  10.443 -0.3631 -0.1266  0.3960
 3134TIP3    H130817   0.162   6.896  10.479  0.2969 -1.7087 -0.5737
 3134TIP3    H230818   0.230   7.031  10.494 -2.2679 -0.5300  0.9846
 3135TIP3   OH230819   5.991   5.307  12.733  0.5930 -0.4950 -0.4848
 3135TIP3    H130820   6.024   5.342  12.815  0.5507 -3.2018  0.7399
 3135TIP3    H230821   6.070   5.287  12.682  0.6363  0.2276 -0.7101
 3136TIP3   OH230822   0.237   5.224   9.538  0.5023 -0.2130  0.0116
 3136TIP3    H130823   0.315   5.205   9.486  0.8822 -1.7276  1.0733
 3136TIP3    H230824   0.263   5.294   9.597  0.6722  0.1556 -0.5023
 3137TIP3   OH230825   5.193   6.742  12.210 -0.5950 -0.1138 -0.1675
 3137TIP3    H130826   5.208   6.734  12.304 -0.2700  1.2278 -0.0817
 3137TIP3    H230827   5.103   6.713  12.197 -1.1036  0.9895  0.7742
 3138TIP3   OH230828   5.475   6.185  12.835  0.0382 -0.3925  0.0098
 3138TIP3    H130829   5.506   6.169  12.746 -1.3970 -1.7376 -0.2798
 3138TIP3    H230830   5.443   6.275  12.834 -3.5792 -1.5832 -1.9812
 3139TIP3   OH230831   1.747   2.151  12.547 -0.1673  0.2776  0.1042
 3139TIP3    H130832   1.654   2.161  12.528 -0.5940  0.4247  2.1396
 3139TIP3    H230833   1.766   2.222  12.608  0.9112 -0.7239  0.9534
 3140TIP3   OH230834   6.366   6.578  14.509 -0.0080  0.0412  0.5131
 3140TIP3    H130835   6.362   6.625  14.592 -0.1918  0.1770  0.4268
 3140TIP3    H230836   6.381   6.487  14.533 -0.0354  0.0858  0.6943
 3141TIP3   OH230837   6.854   2.554  15.002 -0.0708 -0.0154  0.1351
 3141TIP3    H130838   6.843   2.605  14.922  2.8655  0.3327 -0.0849
 3141TIP3    H230839   6.774   2.502  15.008 -1.0812  1.2005 -2.0991
 3142TIP3   OH230840   0.883   0.403  13.187 -0.4837 -0.2182 -0.0642
 3142TIP3    H130841   0.894   0.475  13.249 -1.9353 -1.0841  1.2455
 3142TIP3    H230842   0.971   0.385  13.155  0.1804  0.7409  1.1859
 3143TIP3   OH230843   6.695   1.894  11.432  0.3664 -0.4121  0.2601
 3143TIP3    H130844   6.783   1.886  11.470 -0.5424 -0.8459  2.3094
 3143TIP3    H230845   6.703   1.852  11.346  2.1476 -0.4909  0.4378
 3144TIP3   OH230846   2.039   6.763  12.915  0.0314  0.6523  0.0473
 3144TIP3    H130847   2.118   6.744  12.964  0.1168  2.2343  0.5585
 3144TIP3    H230848   1.994   6.830  12.966 -2.4080 -1.2818  0.5618
 3145TIP3   OH230849   0.236   3.650  12.124 -0.0825 -0.0787  0.2886
 3145TIP3    H130850   0.313   3.632  12.070 -0.5302  0.3804 -0.5026
 3145TIP3    H230851   0.162   3.621  12.071 -0.4218 -1.0914  1.2966
 3146TIP3   OH230852   1.170   2.526  13.632  0.7010  0.0359 -0.2864
 3146TIP3    H130853   1.197   2.560  13.547 -1.8627  0.1333 -1.0976
 3146TIP3    H230854   1.122   2.446  13.612  0.3422 -0.1040  1.0905
 3147TIP3   OH230855   1.738   1.146  11.945 -0.1309  0.1109  0.2093
 3147TIP3    H130856   1.655   1.169  11.984  0.1238  0.6778  0.4181
 3147TIP3    H230857   1.768   1.070  11.995 -1.4435 -1.3181 -1.1185
 3148TIP3   OH230858   1.242   0.135  12.359  0.0963  0.1866 -0.3224
 3148TIP3    H130859   1.206   0.048  12.340  1.0874 -0.0829 -1.0373
 3148TIP3    H230860   1.337   0.123  12.353  0.2949  0.9382  1.2802
 3149TIP3   OH230861   1.368   1.176  12.664 -0.0061  0.1006  0.2723
 3149TIP3    H130862   1.456   1.213  12.659  0.1692 -0.2042  0.9876
 3149TIP3    H230863   1.314   1.248  12.695 -0.1380  0.4863 -0.8481
 3150TIP3   OH230864   1.084   6.069  13.035  0.2728  0.0821  0.1387
 3150TIP3    H130865   1.068   6.145  13.091 -1.0788  0.7368 -1.0724
 3150TIP3    H230866   1.010   6.011  13.053  0.7239 -0.4413  0.2690
 3151TIP3   OH230867   2.316   0.784  11.366  0.4408  0.1144 -0.0058
 3151TIP3    H130868   2.295   0.793  11.459  1.7202  3.3387  0.0280
 3151TIP3    H230869   2.317   0.873  11.332  0.2620 -0.9762 -3.1013
 3152TIP3   OH230870   0.880   1.942  13.368 -0.3986 -0.0349  0.2107
 3152TIP3    H130871   0.880   1.968  13.276 -1.1740 -2.4020 -0.4832
 3152TIP3    H230872   0.792   1.965  13.399 -0.7122 -0.8090 -0.1029
 3153TIP3   OH230873   0.010   6.532  12.498 -0.4992  0.2294  0.0427
 3153TIP3    H130874  -0.024   6.547  12.410 -2.6498 -1.3163  0.5640
 3153TIP3    H230875   0.042   6.442  12.497 -1.2169 -0.0594  1.0118
 3154TIP3   OH230876   0.914   7.069  11.287 -0.1345 -0.3177 -0.5083
 3154TIP3    H130877   0.842   7.081  11.350  0.0963 -0.7890 -0.1481
 3154TIP3    H230878   0.907   7.144  11.228  1.5143  1.7860  1.8725
 3155TIP3   OH230879   0.903   1.854  13.930 -0.2515  0.2810  0.2667
 3155TIP3    H130880   0.836   1.887  13.871 -0.6149 -0.4555  0.2652
 3155TIP3    H230881   0.891   1.759  13.931  0.7041  0.1468  0.3700
 3156TIP3   OH230882   1.030   2.799  11.969 -0.4921 -0.4216 -0.6775
 3156TIP3    H130883   1.006   2.712  11.939 -0.7452 -0.7143  0.3389
 3156TIP3    H230884   0.957   2.826  12.025  0.3749 -0.2813  0.4058
 3157TIP3   OH230885   2.126   2.452  13.641 -0.3658  0.1379  0.2352
 3157TIP3    H130886   2.033   2.443  13.622 -0.4361  1.0593  0.1538
 3157TIP3    H230887   2.134   2.536  13.686  0.4740  0.2024 -0.0231
 3158TIP3   OH230888   2.997   1.357  11.346  0.0698  0.0518  0.0518
 3158TIP3    H130889   2.973   1.267  11.369  0.8016 -0.8736 -2.6042
 3158TIP3    H230890   2.955   1.411  11.412 -1.1859 -2.1973  1.1291
 3159TIP3   OH230891   1.504   3.825  14.029  0.2781 -0.5405  0.0022
 3159TIP3    H130892   1.582   3.880  14.028  1.0536 -1.5989  0.4147
 3159TIP3    H230893   1.505   3.780  13.945 -1.9745  2.2596 -1.5639
 3160TIP3   OH230894   6.605   0.515  12.713 -0.8987  0.2418 -0.3625
 3160TIP3    H130895   6.555   0.596  12.706 -1.8921 -0.3939 -0.8888
 3160TIP3    H230896   6.565   0.469  12.787 -0.1282  0.3772  0.1376
 3161TIP3   OH230897   0.565   2.304  11.641  0.5031 -0.8435  0.4313
 3161TIP3    H130898   0.494   2.254  11.600  0.7961 -1.2614  0.4242
 3161TIP3    H230899   0.643   2.253  11.621  0.8708 -0.1286  0.0208
 3162TIP3   OH230900   2.319   2.169  14.068 -0.3944 -0.2805  0.2238
 3162TIP3    H130901   2.301   2.188  13.976 -0.2915 -2.9855 -0.3798
 3162TIP3    H230902   2.233   2.158  14.107 -0.4362  0.8138  0.4651
 3163TIP3   OH230903   3.273   1.677  10.659 -0.5421  0.9893  0.1728
 3163TIP3    H130904   3.206   1.656  10.724  0.1939 -0.3069  0.5378
 3163TIP3    H230905   3.356   1.659  10.703 -0.0498 -1.9056 -1.7287
 3164TIP3   OH230906   1.329   6.801  12.819  0.2635 -0.2218 -0.2088
 3164TIP3    H130907   1.338   6.713  12.784  1.8208  0.1097 -0.6768
 3164TIP3    H230908   1.391   6.854  12.769 -0.2389  1.0285  0.4542
 3165TIP3   OH230909   1.261   2.652  12.817  0.4187  0.0984  0.3753
 3165TIP3    H130910   1.318   2.722  12.847  1.6365 -0.7728  0.1299
 3165TIP3    H230911   1.204   2.694  12.753  1.2052  0.8433  0.1495
 3166TIP3   OH230912   2.550   7.033  13.284 -0.1007  0.4592  0.0384
 3166TIP3    H130913   2.604   7.101  13.245  1.8504 -0.5629  0.8354
 3166TIP3    H230914   2.538   6.968  13.214  0.1134  0.4666 -0.0047
 3167TIP3   OH230915   1.332   6.967  12.472 -0.2151 -0.4057  0.3546
 3167TIP3    H130916   1.388   6.960  12.549 -1.2187 -1.0764  1.0259
 3167TIP3    H230917   1.282   7.048  12.486  1.4834  0.8951 -0.8581
 3168TIP3   OH230918   1.811   0.490  14.428  0.3519 -0.0236  0.6619
 3168TIP3    H130919   1.830   0.573  14.471 -2.1282  0.0823  1.6252
 3168TIP3    H230920   1.825   0.507  14.335 -1.0608  1.7755  0.7546
 3169TIP3   OH230921   1.173   5.292  11.396  0.1068  0.2469  0.3295
 3169TIP3    H130922   1.254   5.253  11.430  2.1427  2.1266 -2.1566
 3169TIP3    H230923   1.177   5.383  11.425 -0.5025  0.6634 -0.8926
 3170TIP3   OH230924   2.518   2.530  13.146  0.6148  0.4065  0.2697
 3170TIP3    H130925   2.568   2.529  13.227  2.0268  0.4052 -0.5838
 3170TIP3    H230926   2.508   2.623  13.126 -0.4100  0.4299  0.8362
 3171TIP3   OH230927   2.483   0.567  12.704 -0.0564  0.4121  0.3919
 3171TIP3    H130928   2.405   0.617  12.728 -1.4897 -1.9279  0.8331
 3171TIP3    H230929   2.469   0.481  12.745  2.4442 -0.2569 -0.0970
 3172TIP3   OH230930   6.281   0.207  12.687  0.0627 -0.3015 -0.2330
 3172TIP3    H130931   6.279   0.303  12.689 -0.9866 -0.3233  0.8342
 3172TIP3    H230932   6.192   0.183  12.662 -0.3015 -1.0216  1.6965
 3173TIP3   OH230933   1.132   3.885  11.007 -0.0916  0.1442 -0.2966
 3173TIP3    H130934   1.061   3.918  10.951 -0.0416  0.3865 -0.2178
 3173TIP3    H230935   1.144   3.795  10.979 -0.2378  0.1882 -0.5071
 3174TIP3   OH230936   1.165   0.961  11.033 -0.1538 -0.8977  0.3616
 3174TIP3    H130937   1.230   0.924  10.973  0.2498  2.2419 -1.2565
 3174TIP3    H230938   1.213   1.030  11.079 -1.6415 -0.3773  1.1459
 3175TIP3   OH230939   0.882   0.748  11.561 -0.2810 -0.3815  0.2938
 3175TIP3    H130940   0.918   0.824  11.514 -4.6681  1.5709 -0.2190
 3175TIP3    H230941   0.905   0.764  11.653  1.6755 -0.1781 -0.2056
 3176TIP3   OH230942   1.007   1.995  11.946 -0.2346  0.0213 -0.2149
 3176TIP3    H130943   1.071   2.029  11.883  0.5955  0.5516  0.8891
 3176TIP3    H230944   0.974   2.073  11.990  0.0494 -0.4318  0.8056
 3177TIP3   OH230945   5.591   0.321  13.444  0.3242 -0.1598 -0.4626
 3177TIP3    H130946   5.637   0.262  13.504 -0.4850  0.6881  1.0327
 3177TIP3    H230947   5.657   0.348  13.381  1.1782 -1.1432 -0.0066
 3178TIP3   OH230948   0.531   6.992  11.856 -0.1168  0.2664  0.6886
 3178TIP3    H130949   0.623   7.005  11.831 -0.2161  1.9474  1.1114
 3178TIP3    H230950   0.531   6.997  11.951 -0.7590  1.0500  0.6515
 3179TIP3   OH230951   7.169   3.063  15.254 -0.0902 -0.0536  0.2510
 3179TIP3    H130952   7.100   3.123  15.284 -0.9369 -0.6313 -0.5032
 3179TIP3    H230953   7.156   3.058  15.159  0.7138 -0.5186  0.1664
 3180TIP3   OH230954   2.675   3.072  12.792 -0.5782  0.1367 -0.3531
 3180TIP3    H130955   2.722   3.042  12.870 -2.0177 -0.4265  0.3190
 3180TIP3    H230956   2.738   3.128  12.746  1.0098 -1.2571  0.0877
 3181TIP3   OH230957   7.153   1.972  12.643 -0.1024 -0.1036 -0.5129
 3181TIP3    H130958   7.199   2.032  12.703  0.3662  1.6504 -2.5690
 3181TIP3    H230959   7.089   2.027  12.600 -0.9269 -1.5246 -1.1107
 3182TIP3   OH230960   2.529   0.733  11.728 -0.7106 -0.0028  0.4676
 3182TIP3    H130961   2.438   0.705  11.728 -1.0868  1.1785 -0.7318
 3182TIP3    H230962   2.528   0.819  11.687  0.9777 -0.0750  0.2215
 3183TIP3   OH230963   1.385   1.583  12.793  0.2328  0.2137  0.4395
 3183TIP3    H130964   1.301   1.626  12.810 -0.8284 -0.6834 -2.2044
 3183TIP3    H230965   1.406   1.539  12.876 -1.8158  0.6103  1.2080
 3184TIP3   OH230966   0.900   3.247  12.419  0.2914 -0.2894  0.4688
 3184TIP3    H130967   0.902   3.318  12.355  0.1671 -0.7345 -0.0284
 3184TIP3    H230968   0.933   3.170  12.372  1.4011 -0.3368  1.2957
 3185TIP3   OH230969   0.071   1.957  14.564  0.2754 -0.0099  0.3541
 3185TIP3    H130970   0.048   1.942  14.656  0.7285  0.3075  0.5178
 3185TIP3    H230971  -0.009   1.993  14.525  0.4056  0.8311  0.8617
 3186TIP3   OH230972   2.024   2.814  13.708 -0.0619 -0.0784  0.0547
 3186TIP3    H130973   2.002   2.779  13.794  0.8857 -0.2093  0.2446
 3186TIP3    H230974   2.083   2.888  13.726  0.5088 -0.3957 -0.5007
 3187TIP3   OH230975   0.795   1.922  12.267  0.9279  0.1020 -0.2707
 3187TIP3    H130976   0.835   1.932  12.353 -0.7155 -1.4018  0.6935
 3187TIP3    H230977   0.720   1.982  12.269  0.7329 -0.1316 -0.5444
 3188TIP3   OH230978   6.301   6.845  13.692  0.1124  0.1047  0.1964
 3188TIP3    H130979   6.215   6.874  13.722 -0.7396 -3.4297  1.4557
 3188TIP3    H230980   6.363   6.882  13.755 -0.5321  2.0397 -0.2871
 3189TIP3   OH230981   0.019   3.372  10.500 -0.2786  0.2133 -0.0916
 3189TIP3    H130982  -0.010   3.383  10.590  2.0944 -1.3906  0.9410
 3189TIP3    H230983  -0.041   3.307  10.463 -0.9844  0.5415  0.4786
 3190TIP3   OH230984   0.872   2.393  12.615  0.3686  0.7728 -0.1813
 3190TIP3    H130985   0.892   2.342  12.536  1.0474 -0.2757  0.6501
 3190TIP3    H230986   0.949   2.382  12.671  0.0398  1.7933  0.4779
 3191TIP3   OH230987   1.425   6.769  10.736  0.1671 -0.6626 -0.3335
 3191TIP3    H130988   1.443   6.706  10.806 -1.7149 -0.8321  0.0302
 3191TIP3    H230989   1.463   6.851  10.768 -0.2336 -0.8607  0.6678
 3192TIP3   OH230990   1.813   2.724  10.467 -0.2216  0.4748  1.0658
 3192TIP3    H130991   1.814   2.662  10.393  0.5488  0.0031  1.4743
 3192TIP3    H230992   1.727   2.711  10.507 -0.3867  0.2655  0.6513
 3193TIP3   OH230993   6.433   0.476  15.139  0.2350 -0.0479  0.5221
 3193TIP3    H130994   6.432   0.467  15.234 -0.0861 -0.4779  0.4778
 3193TIP3    H230995   6.479   0.398  15.107 -0.9463 -0.6419  0.2457
 3194TIP3   OH230996   7.129   1.542  14.115 -0.3805 -0.1529 -0.1752
 3194TIP3    H130997   7.089   1.609  14.058  0.2869  0.7652  0.4278
 3194TIP3    H230998   7.063   1.473  14.119 -1.4883  0.8785 -0.0482
 3195TIP3   OH230999   0.070   0.049  11.405 -0.3474  0.1993 -0.0732
 3195TIP3    H131000   0.153   0.008  11.431  0.3141  1.6599  0.1763
 3195TIP3    H231001   0.036  -0.007  11.335 -0.5115 -1.9445  1.6675
 3196TIP3   OH231002   2.311   5.945  12.483 -0.4780 -0.1683  0.6181
 3196TIP3    H131003   2.277   5.858  12.504  1.2844 -1.3002 -1.0815
 3196TIP3    H231004   2.405   5.933  12.474 -0.2768  1.7981 -0.2275
 3197TIP3   OH231005   0.485   1.438  13.130 -0.0773 -0.3996 -0.2358
 3197TIP3    H131006   0.448   1.513  13.177  0.0957 -0.5507  0.1432
 3197TIP3    H231007   0.461   1.362  13.183  2.5234 -0.3175  1.1320
 3198TIP3   OH231008   0.875   1.368  10.656 -0.5095  0.0045 -0.2564
 3198TIP3    H131009   0.958   1.359  10.609 -0.9678  0.5143 -1.1923
 3198TIP3    H231010   0.854   1.280  10.685  0.2447 -0.1683 -0.2096
 3199TIP3   OH231011   2.560   6.942  10.362 -0.0552  0.1501  0.2518
 3199TIP3    H131012   2.598   7.017  10.317 -1.6365  1.2693  0.7558
 3199TIP3    H231013   2.538   6.881  10.292 -0.2694  0.8436 -0.2881
 3200TIP3   OH231014   0.490   1.701  11.465 -0.3897  0.2246  0.2912
 3200TIP3    H131015   0.431   1.633  11.432 -0.1275  0.3130 -0.3800
 3200TIP3    H231016   0.575   1.681  11.426  0.6861 -1.4316  3.3682
 3201TIP3   OH231017   6.704   5.784  13.075 -0.2794  0.0275  0.0745
 3201TIP3    H131018   6.720   5.873  13.043  1.2009  0.1080  1.0019
 3201TIP3    H231019   6.619   5.789  13.119  1.0491  1.6623  2.5637
 3202TIP3   OH231020   0.509   0.249  10.621  0.1871 -0.1230 -0.0867
 3202TIP3    H131021   0.600   0.269  10.596 -0.5386  1.1765 -1.7896
 3202TIP3    H231022   0.466   0.335  10.623 -0.8623 -0.6790  1.3166
 3203TIP3   OH231023   4.833   2.638  11.955 -0.1698 -0.0024 -0.4710
 3203TIP3    H131024   4.832   2.547  11.982  0.3426  0.0217 -0.3638
 3203TIP3    H231025   4.756   2.648  11.898 -1.1233 -0.1132  0.7755
 3204TIP3   OH231026   6.307   6.074  15.057  0.2665  0.3640  0.6327
 3204TIP3    H131027   6.385   6.077  15.112  0.6648 -4.0018  0.5527
 3204TIP3    H231028   6.236   6.055  15.117 -0.1847  1.1163  0.3310
 3205TIP3   OH231029   1.293   7.042  14.172  0.3476 -0.3651 -0.0310
 3205TIP3    H131030   1.293   6.946  14.175 -0.2467 -0.3094  2.3351
 3205TIP3    H231031   1.338   7.069  14.252  0.4522  1.3413 -0.6422
 3206TIP3   OH231032   1.100   6.334  11.926 -0.5197 -0.0164  0.2920
 3206TIP3    H131033   1.134   6.299  12.009 -0.7705 -0.1527  0.3377
 3206TIP3    H231034   1.082   6.426  11.945  0.5748  0.2622  0.0427
 3207TIP3   OH231035   0.760   1.569  12.071  0.5520 -0.5417 -0.6704
 3207TIP3    H131036   0.746   1.649  12.020  1.4373  1.0302  1.4628
 3207TIP3    H231037   0.855   1.564  12.082  0.5531 -2.2666 -1.3568
 3208TIP3   OH231038   7.155   7.075  11.971  0.2525  0.1612 -0.3772
 3208TIP3    H131039   7.149   7.160  12.014 -1.4789 -0.8745  1.5113
 3208TIP3    H231040   7.247   7.048  11.983  0.1990  0.6388  1.2367
 3209TIP3   OH231041   0.801   6.998  14.632  0.2849  0.5060 -0.4283
 3209TIP3    H131042   0.778   6.926  14.573  1.4831 -1.9718  2.0521
 3209TIP3    H231043   0.802   7.076  14.575 -1.2871 -1.3492 -3.1059
 3210TIP3   OH231044   1.151   2.142  13.354 -0.1106  0.1945  0.0363
 3210TIP3    H131045   1.146   2.124  13.448 -1.6648 -0.4656 -0.1502
 3210TIP3    H231046   1.161   2.056  13.314 -0.6365  0.3668 -0.4663
 3211TIP3   OH231047   2.277   2.054  13.136  0.0920  0.1534  0.0380
 3211TIP3    H131048   2.361   2.016  13.161  0.7802  1.9943  0.5862
 3211TIP3    H231049   2.276   2.141  13.177 -2.3489 -0.0781  0.5552
 3212TIP3   OH231050   1.333   0.880  13.165  0.5013  0.3776 -0.3797
 3212TIP3    H131051   1.402   0.919  13.218  0.1621 -0.2230  0.5090
 3212TIP3    H231052   1.289   0.817  13.223 -0.1611  0.0367 -1.2229
 3213TIP3   OH231053   1.803   1.207  11.123 -0.3235 -0.1723  0.4001
 3213TIP3    H131054   1.895   1.221  11.144 -1.1170  0.0930  4.0378
 3213TIP3    H231055   1.757   1.275  11.172 -2.4409  0.2937 -2.1158
 3214TIP3   OH231056   2.277   6.911  13.234 -0.3977  0.0036 -0.0033
 3214TIP3    H131057   2.320   6.934  13.316  0.5666  3.0588 -1.3172
 3214TIP3    H231058   2.265   6.994  13.188 -1.3287 -1.5807 -2.7580
 3215TIP3   OH231059   0.427   1.984  15.144 -0.6630 -0.4486  0.1138
 3215TIP3    H131060   0.416   1.890  15.140 -0.6575 -0.3620 -3.3646
 3215TIP3    H231061   0.510   1.996  15.190  0.2194 -2.2194 -0.9687
 3216TIP3   OH231062   6.469   2.119  15.351 -0.6644 -0.0764  0.0948
 3216TIP3    H131063   6.545   2.067  15.325 -1.8994 -1.5156 -0.7089
 3216TIP3    H231064   6.505   2.188  15.406  1.0606 -1.5431  0.8570
 3217TIP3   OH231065   6.921   1.522  10.763 -0.0742  0.2490 -0.0445
 3217TIP3    H131066   6.855   1.575  10.717  0.1376 -1.6003 -2.5509
 3217TIP3    H231067   6.892   1.432  10.752  2.3325 -0.5282 -0.3317
 3218TIP3   OH231068   1.461   7.264  11.534 -0.2988 -0.1038  0.6842
 3218TIP3    H131069   1.370   7.240  11.550 -1.1122  2.1622 -0.3355
 3218TIP3    H231070   1.474   7.253  11.440  0.1563  0.6100  0.6530
 3219TIP3   OH231071   6.763   1.626  14.603 -0.4311  0.0145  0.0539
 3219TIP3    H131072   6.839   1.629  14.544  0.7194  0.2322  1.5278
 3219TIP3    H231073   6.801   1.610  14.689 -1.8276  2.8777  1.2310
 3220TIP3   OH231074   0.779   1.343  11.118  0.4847  0.1033  0.0455
 3220TIP3    H131075   0.866   1.362  11.152  0.7903 -0.8332 -0.1790
 3220TIP3    H231076   0.728   1.317  11.195  0.1702  1.4622  0.2958
 3221TIP3   OH231077   1.243   3.985  12.167  0.2467  0.2530  0.1381
 3221TIP3    H131078   1.245   3.987  12.263 -0.3343 -1.2656  0.2060
 3221TIP3    H231079   1.266   3.894  12.145 -0.4752  0.3628 -1.1208
 3222TIP3   OH231080   6.950   3.043  13.264  0.2976  0.3566 -0.1991
 3222TIP3    H131081   7.030   3.075  13.221  1.2726 -0.3620  1.0338
 3222TIP3    H231082   6.978   2.963  13.308 -1.1622  0.0077  0.0951
 3223TIP3   OH231083   5.793   1.290  10.461 -0.2500  0.5542 -0.3496
 3223TIP3    H131084   5.871   1.315  10.511 -0.3292  1.5671 -0.7238
 3223TIP3    H231085   5.787   1.354  10.391 -1.2939  0.3529 -0.4644
 3224TIP3   OH231086   2.393   2.387  10.709 -0.0458 -1.0926  0.3943
 3224TIP3    H131087   2.402   2.481  10.695  1.2013 -1.0988  1.0894
 3224TIP3    H231088   2.338   2.357  10.637 -0.8660  0.2451  0.4567
 3225TIP3   OH231089   0.785   0.038  11.818 -0.2322  0.2646 -0.0630
 3225TIP3    H131090   0.771   0.012  11.909  0.0701  1.6484  0.3853
 3225TIP3    H231091   0.719   0.105  11.801  2.5860  3.3156  0.5760
 3226TIP3   OH231092   2.046   6.846  11.013  0.4199  0.3292  0.4535
 3226TIP3    H131093   2.128   6.889  10.988  0.3864 -1.1542 -2.3221
 3226TIP3    H231094   2.073   6.775  11.072  1.0351  0.4121  0.2725
 3227TIP3   OH231095   7.048   1.632  11.323 -0.1591 -0.1353 -0.7674
 3227TIP3    H131096   7.031   1.725  11.333  3.2548  0.3509  1.2341
 3227TIP3    H231097   7.068   1.621  11.230 -2.4030  0.7447 -1.3876
 3228TIP3   OH231098   6.411   2.518  13.064  0.5434  0.2753  0.2833
 3228TIP3    H131099   6.349   2.551  13.128 -1.4979  1.1069 -2.0292
 3228TIP3    H231100   6.455   2.596  13.030  0.3960  0.0341 -0.4928
 3229TIP3   OH231101   0.783   6.103  12.052  0.0341  0.5837  0.0408
 3229TIP3    H131102   0.746   6.087  12.139 -3.9785 -0.0037 -1.6345
 3229TIP3    H231103   0.781   6.199  12.043 -1.7875  0.5412 -0.2496
 3230TIP3   OH231104   1.729   2.916  10.937 -0.0297 -0.2447  0.3980
 3230TIP3    H131105   1.708   2.855  10.867  2.2955 -0.9980  0.3232
 3230TIP3    H231106   1.662   2.899  11.004 -2.0523  0.2416 -1.4533
 3231TIP3   OH231107   1.396   2.229  14.317 -0.2952 -0.7426 -0.3507
 3231TIP3    H131108   1.305   2.202  14.326  0.2372 -3.6386 -2.5437
 3231TIP3    H231109   1.424   2.190  14.234  2.4219  1.6360 -0.6485
 3232TIP3   OH231110   1.892   1.290  11.755  0.3815  0.2695  0.0542
 3232TIP3    H131111   1.815   1.262  11.805 -1.1076  0.1940 -2.2138
 3232TIP3    H231112   1.896   1.230  11.681  1.9370  1.0063 -0.4691
 3233TIP3   OH231113   1.901   6.946  13.049  0.3834 -0.0036  0.4640
 3233TIP3    H131114   1.881   6.957  13.142  1.3652  1.4018  0.5154
 3233TIP3    H231115   1.843   7.008  13.004  0.8007  0.2140  0.2280
 3234TIP3   OH231116   1.856   2.060  12.972 -0.6919  0.0438 -0.2038
 3234TIP3    H131117   1.891   1.974  12.947  0.8552 -0.0087  1.9228
 3234TIP3    H231118   1.893   2.120  12.909  0.0480 -0.5723 -0.3654
 3235TIP3   OH231119   0.470   2.422  12.472 -0.2986 -0.0284 -0.1948
 3235TIP3    H131120   0.495   2.429  12.380  1.4546  1.3492  0.3506
 3235TIP3    H231121   0.379   2.452  12.475 -0.6276 -0.8625 -1.5807
 3236TIP3   OH231122   1.784   0.621  10.667  0.0984 -0.2300  0.1293
 3236TIP3    H131123   1.747   0.673  10.739  0.6577  1.7292 -0.9787
 3236TIP3    H231124   1.853   0.677  10.630  1.9536 -2.4930  0.0517
 3237TIP3   OH231125   1.001   0.562  11.123  0.2882 -0.5053  0.3150
 3237TIP3    H131126   1.083   0.518  11.147  0.5286 -0.9960 -1.2959
 3237TIP3    H231127   0.967   0.598  11.205  2.5611  0.4367  0.8895
 3238TIP3   OH231128   2.244   0.717  12.004  0.1144 -0.2017 -0.1860
 3238TIP3    H131129   2.221   0.625  11.990 -1.4892  0.1874 -0.2238
 3238TIP3    H231130   2.253   0.725  12.099 -0.6645 -0.1983 -0.1087
 3239TIP3   OH231131   7.157   6.585  15.005  0.0135 -0.3696 -0.0434
 3239TIP3    H131132   7.203   6.566  15.087 -0.6832 -0.5122  0.3228
 3239TIP3    H231133   7.105   6.506  14.988 -1.0847  0.2758  0.2393
 3240TIP3   OH231134   1.038   0.989  12.856  0.2866  0.0791 -0.5191
 3240TIP3    H131135   1.115   0.978  12.801  0.0075 -1.5112 -0.6285
 3240TIP3    H231136   0.975   1.034  12.801  0.1249 -1.2074 -1.4033
 3241TIP3   OH231137   0.082   2.419  10.612 -0.3673 -0.1720 -0.2905
 3241TIP3    H131138   0.097   2.328  10.637 -0.3583 -0.7498 -2.3021
 3241TIP3    H231139   0.139   2.434  10.536  0.6527  1.9351  0.8451
 3242TIP3   OH231140   0.990   3.263  11.179 -0.8289 -0.3568 -0.6722
 3242TIP3    H131141   1.065   3.288  11.126 -1.1840 -0.8226 -1.4027
 3242TIP3    H231142   0.952   3.188  11.133  1.8195 -4.1338  2.9102
 3243TIP3   OH231143   6.283   1.216  13.056  0.2637  0.5238  0.0521
 3243TIP3    H131144   6.315   1.220  12.965  0.4105 -0.3225  0.0602
 3243TIP3    H231145   6.356   1.177  13.105 -0.2739 -0.1386  0.3218
 3244TIP3   OH231146   2.038   0.746  10.629  0.2446 -0.1427  0.5977
 3244TIP3    H131147   2.075   0.790  10.553 -1.9570 -0.5007 -0.7234
 3244TIP3    H231148   2.067   0.798  10.704  0.0812  1.8657 -0.7086
 3245TIP3   OH231149   0.495   2.426  12.191 -0.2839  0.5873  0.0667
 3245TIP3    H131150   0.473   2.389  12.106 -0.7904 -1.0849  0.8910
 3245TIP3    H231151   0.487   2.521  12.180 -1.6539  0.3190 -1.3744
 3246TIP3   OH231152   7.153   1.712  12.088 -0.3266  0.0206 -0.4326
 3246TIP3    H131153   7.211   1.769  12.037  1.3651  0.6404  2.1186
 3246TIP3    H231154   7.065   1.745  12.069  0.2752  0.5198 -2.5705
 3247TIP3   OH231155   2.586   2.593  11.293  0.1939  0.3727 -0.2281
 3247TIP3    H131156   2.619   2.681  11.275 -2.2419  0.9440 -2.2264
 3247TIP3    H231157   2.617   2.540  11.219 -1.2139  0.3604 -0.8257
 3248TIP3   OH231158   2.792   2.051  10.987 -0.2646 -0.1306  0.1242
 3248TIP3    H131159   2.791   1.972  10.933  0.3674 -0.5275  0.6875
 3248TIP3    H231160   2.726   2.107  10.947  1.6680  0.4630 -2.4186
 3249TIP3   OH231161   0.384   3.989  14.257 -0.2088 -0.5858  0.3747
 3249TIP3    H131162   0.385   3.923  14.187  0.4479 -0.6203  0.4170
 3249TIP3    H231163   0.291   4.008  14.270 -0.4340 -1.8174  0.6498
 3250TIP3   OH231164   0.522   0.335  14.265 -0.5229  0.3235 -0.3002
 3250TIP3    H131165   0.435   0.355  14.229 -0.6992 -0.4434 -0.3212
 3250TIP3    H231166   0.575   0.312  14.189 -0.6272 -0.3413 -0.1793
 3251TIP3   OH231167   0.935   4.003  10.860 -0.5624  0.2635 -0.0381
 3251TIP3    H131168   0.980   4.084  10.882 -1.0897  0.5158  0.1020
 3251TIP3    H231169   0.844   4.017  10.886 -0.6720 -0.3421 -0.0809
 3252TIP3   OH231170   0.401   2.744  12.198 -0.3437  0.3020  0.6058
 3252TIP3    H131171   0.491   2.724  12.222 -0.1569  0.8005  0.3379
 3252TIP3    H231172   0.384   2.830  12.238  0.3827  1.7311 -2.0370
 3253TIP3   OH231173   5.292   1.269  12.959 -0.0930  0.5384 -0.0717
 3253TIP3    H131174   5.346   1.191  12.953  0.0656  0.6597 -0.2219
 3253TIP3    H231175   5.207   1.243  12.923  0.5035  0.9387 -1.7989
 3254TIP3   OH231176   1.212   1.570  13.293  0.1853  0.0818  0.4959
 3254TIP3    H131177   1.251   1.483  13.295  1.0120  0.4340 -0.1217
 3254TIP3    H231178   1.118   1.554  13.301  0.3022 -0.8886  0.0545
 3255TIP3   OH231179   2.108   1.658  11.218  0.7082 -0.4852 -0.0922
 3255TIP3    H131180   2.120   1.674  11.124 -1.8618 -0.2332 -0.4119
 3255TIP3    H231181   2.182   1.702  11.259  1.3836  0.1718 -1.9375
 3256TIP3   OH231182   6.867   2.666  13.504 -0.4263 -0.2270  0.2829
 3256TIP3    H131183   6.934   2.726  13.472  0.0827 -1.1381 -0.3696
 3256TIP3    H231184   6.810   2.650  13.428 -1.0113  0.0257  0.6604
 3257TIP3   OH231185   0.620   5.253  12.285  0.6776 -0.0909  0.1016
 3257TIP3    H131186   0.698   5.308  12.281  2.3792 -2.5370 -3.0632
 3257TIP3    H231187   0.631   5.191  12.212 -3.7647 -1.1163  0.1759
 3258TIP3   OH231188   7.251   6.141  14.413 -0.3893 -0.4933 -0.4424
 3258TIP3    H131189   7.283   6.179  14.331  1.6109 -0.3720  0.3739
 3258TIP3    H231190   7.156   6.141  14.403 -0.2021 -0.0231 -2.5590
 3259TIP3   OH231191   6.206   3.631  13.056  0.1926 -0.3053  0.3388
 3259TIP3    H131192   6.217   3.591  12.970  1.8678  1.2501 -0.1944
 3259TIP3    H231193   6.242   3.566  13.117  1.0172 -0.4984 -0.3387
 3260TIP3   OH231194   2.633   0.327  11.239  0.1238 -0.0950 -0.4744
 3260TIP3    H131195   2.679   0.346  11.321  0.3914  1.9297 -1.0681
 3260TIP3    H231196   2.541   0.342  11.259  0.1554  0.0534 -0.4354
 3261TIP3   OH231197   1.913   1.636  12.863 -0.6010  0.1775 -0.0708
 3261TIP3    H131198   2.001   1.601  12.854 -0.9577 -1.0763  1.1982
 3261TIP3    H231199   1.926   1.731  12.865  0.5386  0.0678 -1.6748
 3262TIP3   OH231200   1.454   1.010  13.966 -0.1148 -0.2072  1.3655
 3262TIP3    H131201   1.536   0.980  14.004  0.3671 -0.0986  0.4161
 3262TIP3    H231202   1.408   1.053  14.038  1.4334  1.3006  1.4641
 3263TIP3   OH231203   0.848   2.255  11.010  0.4548 -0.2451 -0.5502
 3263TIP3    H131204   0.837   2.169  11.050 -1.4639  0.6167  0.8330
 3263TIP3    H231205   0.854   2.238  10.916  0.1278 -1.8850 -0.2807
 3264TIP3   OH231206   4.794   0.946  13.323 -0.3690 -0.0105 -0.4646
 3264TIP3    H131207   4.843   0.864  13.320  2.4316  1.5308  1.4490
 3264TIP3    H231208   4.728   0.932  13.392  2.0800  0.3313  2.0405
 3265TIP3   OH231209   6.022   7.149  15.115 -0.4443  0.3256  0.2853
 3265TIP3    H131210   5.936   7.176  15.083 -0.0780 -1.0230 -1.9659
 3265TIP3    H231211   6.043   7.071  15.064  1.8690  0.3023  1.2053
 3266TIP3   OH231212   2.452   1.364  12.631 -0.2211 -0.2067 -0.9471
 3266TIP3    H131213   2.396   1.438  12.608  1.3096  0.0771 -4.1258
 3266TIP3    H231214   2.393   1.289  12.632 -1.0949  0.4484 -1.9143
 3267TIP3   OH231215   1.028   1.734  12.139  0.1751 -0.4759  0.6113
 3267TIP3    H131216   1.062   1.819  12.110  2.5519 -1.3106  0.8601
 3267TIP3    H231217   0.987   1.752  12.224  0.6215  0.4311  0.6383
 3268TIP3   OH231218   2.465   1.227  11.277  0.5586 -0.3799 -0.1635
 3268TIP3    H131219   2.397   1.163  11.299  0.7645 -0.2942  0.7501
 3268TIP3    H231220   2.448   1.249  11.185 -1.8249  1.1100  0.5940
 3269TIP3   OH231221   6.353   0.540  13.694  0.0497 -0.4192  0.2390
 3269TIP3    H131222   6.343   0.448  13.670  0.3711 -0.1746 -0.8410
 3269TIP3    H231223   6.270   0.580  13.669 -0.4124 -0.5698  1.4843
 3270TIP3   OH231224   0.578   1.558  10.376  0.4852  0.7628  0.1487
 3270TIP3    H131225   0.554   1.483  10.321  0.4794  2.0553 -1.6804
 3270TIP3    H231226   0.595   1.521  10.462  1.0168 -1.4068 -0.8593
 3271TIP3   OH231227   7.211   1.509  15.709  0.1024  0.6397  0.4197
 3271TIP3    H131228   7.162   1.429  15.690  1.7574 -0.6609  1.5240
 3271TIP3    H231229   7.144   1.578  15.708 -1.5420 -0.8945  0.6357
 3272TIP3   OH231230   0.826   2.000  10.345 -0.0527 -0.1591  0.3686
 3272TIP3    H131231   0.896   2.054  10.309 -0.6045  0.1182 -0.2958
 3272TIP3    H231232   0.809   2.038  10.432  0.3919 -0.0249  0.4002
 3273TIP3   OH231233   1.862   7.233  11.881 -0.2444 -0.2001 -0.0021
 3273TIP3    H131234   1.819   7.215  11.797 -1.0969  0.6210  0.2469
 3273TIP3    H231235   1.950   7.262  11.857 -0.9132  1.2933 -0.6818
 3274TIP3   OH231236   6.611   1.505   0.494 -0.8953  0.0861 -0.0003
 3274TIP3    H131237   6.618   1.575   0.558 -0.7084 -0.9008  1.0801
 3274TIP3    H231238   6.697   1.463   0.494 -1.0297 -0.1958 -0.5654
 3275TIP3   OH231239   2.752   6.751  10.184 -0.0341 -0.1258  0.6496
 3275TIP3    H131240   2.813   6.679  10.200 -0.4685 -0.2912  1.5842
 3275TIP3    H231241   2.666   6.709  10.177 -0.3432  0.3300  1.6003
 3276TIP3   OH231242   0.296   0.133  13.320 -0.1715  0.0116 -0.2466
 3276TIP3    H131243   0.219   0.190  13.323  0.3881  0.8340 -1.1271
 3276TIP3    H231244   0.261   0.045  13.330 -1.4402  0.2163 -2.5441
 3277TIP3   OH231245   0.890   0.908  12.074  0.3197  0.2652 -0.0225
 3277TIP3    H131246   0.865   1.000  12.084  0.0146  0.5167 -2.8031
 3277TIP3    H231247   0.829   0.861  12.131 -1.9380  1.4968 -1.3147
 3278TIP3   OH231248   2.722   2.394  13.850  0.4498 -0.2002  0.9296
 3278TIP3    H131249   2.641   2.411  13.801  0.5908  1.8804  1.3740
 3278TIP3    H231250   2.777   2.344  13.790  0.1268  1.2309 -0.5816
 3279TIP3   OH231251   3.419   2.841  11.868  0.9126 -0.1691 -0.2456
 3279TIP3    H131252   3.438   2.779  11.938  0.9020  0.4712  0.3335
 3279TIP3    H231253   3.481   2.818  11.799  1.3534 -0.4051  0.2203
 3280TIP3   OH231254   1.136   0.840  14.209  0.8797 -0.7513  0.2420
 3280TIP3    H131255   1.210   0.779  14.216  0.2344 -1.7753 -1.4152
 3280TIP3    H231256   1.129   0.858  14.115  1.1567  2.0487  0.7241
 3281TIP3   OH231257   1.193   1.105  13.032  0.1612  0.2351  1.0515
 3281TIP3    H131258   1.118   1.091  12.974  0.0130  0.7745  1.1080
 3281TIP3    H231259   1.228   1.018  13.047 -0.8827 -0.1035  1.5787
 3282TIP3   OH231260   6.026   6.751  12.822 -0.1303  0.2850 -0.5112
 3282TIP3    H131261   6.014   6.722  12.912  1.2246  0.8031 -0.1520
 3282TIP3    H231262   6.111   6.795  12.822 -0.9507  1.9172 -1.6330
 3283TIP3   OH231263   1.887   2.347  11.953  0.1844 -0.3666 -0.2463
 3283TIP3    H131264   1.882   2.375  11.862  0.1331 -0.9894 -0.4346
 3283TIP3    H231265   1.797   2.349  11.984  0.1680 -0.4355 -0.2902
 3284TIP3   OH231266   3.348   7.123  12.493  0.3095  0.2627  0.0871
 3284TIP3    H131267   3.270   7.138  12.546 -0.0118 -0.9272 -0.0309
 3284TIP3    H231268   3.318   7.065  12.422  1.1411  0.3598 -0.3463
 3285TIP3   OH231269   0.483   2.771   0.412 -0.0427 -0.4367  0.0466
 3285TIP3    H131270   0.407   2.732   0.370  0.5202  0.0792 -1.5294
 3285TIP3    H231271   0.558   2.737   0.362  0.7185 -0.4850  1.1926
 3286TIP3   OH231272   7.110   5.971  12.368 -0.3828 -0.6858  0.1281
 3286TIP3    H131273   7.174   5.966  12.440 -0.1087 -2.8389 -0.2131
 3286TIP3    H231274   7.154   6.021  12.300 -0.3978  0.8235  1.2085
 3287TIP3   OH231275   6.003   0.467  14.105 -0.5930 -0.2256  0.5535
 3287TIP3    H131276   6.012   0.474  14.010 -0.3786 -1.8466  0.4284
 3287TIP3    H231277   6.082   0.508  14.140  0.0270 -0.8905 -0.0319
 3288TIP3   OH231278   2.449   6.423  12.149  1.0093  0.2901  0.3603
 3288TIP3    H131279   2.544   6.416  12.145  1.0940  1.5631 -0.2745
 3288TIP3    H231280   2.428   6.498  12.093 -0.3237  0.3211  0.8685
 3289TIP3   OH231281   7.247   1.772  14.311 -0.5560  0.0001  0.0014
 3289TIP3    H131282   7.188   1.792  14.239 -0.6350  0.2285  0.1300
 3289TIP3    H231283   7.329   1.815  14.288 -0.1317 -1.1244 -0.6509
 3290TIP3   OH231284   6.586   0.984  14.940 -0.6751 -0.4508  0.3075
 3290TIP3    H131285   6.675   0.950  14.936 -0.8715 -0.7979 -4.3999
 3290TIP3    H231286   6.530   0.908  14.920 -1.7236  0.6384 -0.9999
 3291TIP3   OH231287   4.444   0.031  14.060 -0.0337 -0.3564 -0.2495
 3291TIP3    H131288   4.468  -0.047  14.111 -1.2559 -0.4855  0.1404
 3291TIP3    H231289   4.348   0.030  14.059 -0.0368  0.6105 -1.0758
 3292TIP3   OH231290   2.034   5.546  13.851  0.2739  0.7309 -0.1280
 3292TIP3    H131291   2.005   5.464  13.813  0.8478  0.0826  0.8073
 3292TIP3    H231292   2.050   5.526  13.943  0.3426  1.9053  0.1325
 3293TIP3   OH231293   2.259   2.668  10.526 -0.5103  0.3902 -0.1589
 3293TIP3    H131294   2.269   2.703  10.437  1.6230 -0.6719 -0.3697
 3293TIP3    H231295   2.187   2.605  10.518  0.3412 -0.4557 -1.3795
 3294TIP3   OH231296   6.249   4.788  11.124  0.1824  0.0324 -0.1420
 3294TIP3    H131297   6.223   4.725  11.190  0.2024  0.5427  0.3594
 3294TIP3    H231298   6.332   4.823  11.155 -0.2159  0.8792 -0.0123
 3295TIP3   OH231299   1.880   1.864  13.558  0.9222 -0.4178 -0.2107
 3295TIP3    H131300   1.858   1.957  13.562 -0.1045 -0.6423 -0.6314
 3295TIP3    H231301   1.936   1.849  13.634  1.9922  0.7843 -0.7532
 3296TIP3   OH231302   6.817   2.623  12.217  0.2749 -0.1253  0.0214
 3296TIP3    H131303   6.727   2.654  12.211 -0.0971 -1.3337 -0.8624
 3296TIP3    H231304   6.835   2.584  12.131  1.8506  0.6370 -0.0303
 3297TIP3   OH231305   2.165   6.518  10.869 -0.4626  0.1268 -0.1014
 3297TIP3    H131306   2.210   6.439  10.838  1.5374  0.4132  1.9125
 3297TIP3    H231307   2.209   6.590  10.824  0.8010  0.3727  1.4831
 3298TIP3   OH231308   0.548   0.892  13.234  0.7737 -0.2963 -0.4218
 3298TIP3    H131309   0.560   0.930  13.147  1.6879 -0.8201 -0.5312
 3298TIP3    H231310   0.532   0.799  13.217 -0.9836 -0.0679 -0.1270
 3299TIP3   OH231311   0.800   1.978  12.604 -0.3611  0.0939  0.1216
 3299TIP3    H131312   0.794   1.883  12.608 -0.8800  0.0149 -1.9623
 3299TIP3    H231313   0.865   2.001  12.670  0.1604 -1.7391  0.2684
 3300TIP3   OH231314   0.868   0.349  10.116 -0.3997  0.4275  0.1729
 3300TIP3    H131315   0.778   0.370  10.139 -0.0886  0.0487  1.8472
 3300TIP3    H231316   0.865   0.259  10.086 -0.1251 -0.6981  3.3425
 3301TIP3   OH231317   2.169   0.138  13.644 -0.2688 -0.0553  0.1673
 3301TIP3    H131318   2.236   0.098  13.588 -1.4781 -1.7378 -0.1038
 3301TIP3    H231319   2.146   0.219  13.599 -0.0858 -0.6172 -0.9731
 3302TIP3   OH231320   1.985   3.295  12.195  0.6273 -0.4328 -0.3801
 3302TIP3    H131321   1.991   3.242  12.275 -0.0020  0.6734  0.4171
 3302TIP3    H231322   2.049   3.256  12.136  1.0550 -1.3174  0.6430
 3303TIP3   OH231323   0.196   0.182  15.280  0.2993  0.1975 -0.8011
 3303TIP3    H131324   0.239   0.166  15.364 -0.5783 -0.5944 -0.4919
 3303TIP3    H231325   0.220   0.272  15.258 -1.1368  1.1579  1.3406
 3304TIP3   OH231326   2.016   6.556  12.035 -0.0069 -0.1454  0.6107
 3304TIP3    H131327   2.013   6.486  12.101  1.2869 -0.0435  0.7950
 3304TIP3    H231328   1.941   6.612  12.056 -0.5628 -1.0089  0.9796
 3305TIP3   OH231329   0.464   0.534  10.638  0.7521 -0.5062 -0.1391
 3305TIP3    H131330   0.495   0.595  10.570 -0.1882  0.9616  0.7287
 3305TIP3    H231331   0.499   0.569  10.720 -1.7828  0.2827  0.6695
 3306TIP3   OH231332   1.141   0.170  11.297 -0.4503 -1.2098  0.2270
 3306TIP3    H131333   1.129   0.218  11.215  2.2763 -0.7717  0.0377
 3306TIP3    H231334   1.057   0.177  11.341 -2.2337 -2.1443 -2.8722
 3307TIP3   OH231335   6.310   1.504  12.587  0.3658 -0.4877  0.1566
 3307TIP3    H131336   6.234   1.490  12.530  0.5405 -2.8187  0.4552
 3307TIP3    H231337   6.321   1.421  12.634  4.0313 -0.7586 -0.9946
 3308TIP3   OH231338   2.111   1.403  14.765  0.2993  0.0907 -0.4895
 3308TIP3    H131339   2.122   1.490  14.728 -2.5924  1.2115  1.1108
 3308TIP3    H231340   2.156   1.345  14.704  2.3575  2.6788 -1.5414
 3309TIP3   OH231341   3.500   3.942  14.121  0.1202  1.2525  0.4745
 3309TIP3    H131342   3.530   3.868  14.173  0.6051  1.9949  1.2623
 3309TIP3    H231343   3.577   3.966  14.068 -0.2455  0.7593 -0.2945
 3310TIP3   OH231344   3.122   5.946  12.349  0.2200  0.0571  0.2326
 3310TIP3    H131345   3.118   6.035  12.383 -2.5740  0.3491 -0.7047
 3310TIP3    H231346   3.100   5.955  12.256 -0.1856 -1.6152  0.1601
 3311TIP3   OH231347   2.492   7.003  12.822 -0.2678 -0.1716 -0.4077
 3311TIP3    H131348   2.428   7.054  12.872  0.6932  0.7222 -0.0662
 3311TIP3    H231349   2.484   7.035  12.732  1.5991  1.9053  0.1312
 3312TIP3   OH231350   4.249   2.354  13.538 -0.0485  0.2080  0.0116
 3312TIP3    H131351   4.221   2.270  13.501  1.8932  0.0433 -1.1939
 3312TIP3    H231352   4.326   2.332  13.591  1.8796  1.4922 -2.1604
 3313TIP3   OH231353   6.464   0.011  12.068 -0.0810 -0.1150  0.4518
 3313TIP3    H131354   6.454   0.104  12.090  0.7760  0.4890 -1.5857
 3313TIP3    H231355   6.431  -0.035  12.145 -2.3514  1.8588  0.7415
 3314TIP3   OH231356   6.365   7.241  13.922 -0.2777 -0.5094 -0.4641
 3314TIP3    H131357   6.353   7.186  13.999  1.4652 -0.0915  0.1309
 3314TIP3    H231358   6.302   7.313  13.934 -1.0991 -1.2539 -0.2220
 3315TIP3   OH231359   1.741   6.978  12.582  0.4527  0.7688  0.2280
 3315TIP3    H131360   1.785   6.975  12.667  0.5344  0.4654  0.1760
 3315TIP3    H231361   1.804   7.021  12.524  0.3530  1.0774  0.3436
 3316TIP3   OH231362   0.249   2.593  11.210 -0.1058 -0.0422  0.0434
 3316TIP3    H131363   0.233   2.588  11.116  0.2032 -2.4811  0.0762
 3316TIP3    H231364   0.164   2.618  11.247  0.0516  2.0423 -0.9476
 3317TIP3   OH231365   5.220   0.446  14.122  0.4771 -0.4123  0.9372
 3317TIP3    H131366   5.225   0.371  14.061  0.9009  0.5189 -0.1896
 3317TIP3    H231367   5.295   0.500  14.098 -1.2860  1.6950 -0.0104
 3318TIP3   OH231368   1.012   0.107  12.116 -0.3573 -0.2829  0.4380
 3318TIP3    H131369   1.055   0.156  12.046 -0.0824 -1.4852 -0.2565
 3318TIP3    H231370   1.054   0.137  12.196 -0.0335  0.4357  0.0014
 3319TIP3   OH231371   4.048   6.718  13.856  0.4723 -0.6784 -0.2492
 3319TIP3    H131372   4.025   6.737  13.766  1.0545 -0.7466 -0.4150
 3319TIP3    H231373   4.004   6.786  13.908 -1.7241 -1.9577 -0.3702
 3320TIP3   OH231374   2.528   0.550  10.891 -0.0635  0.0828  0.0984
 3320TIP3    H131375   2.621   0.531  10.876 -0.2876  0.1808 -1.4856
 3320TIP3    H231376   2.488   0.464  10.906  0.3464  0.0757  1.1655
 3321TIP3   OH231377   1.460   0.878  12.785 -0.2665 -0.0452 -0.0710
 3321TIP3    H131378   1.511   0.846  12.710  0.6036  2.5570 -0.6600
 3321TIP3    H231379   1.457   0.973  12.772  0.4706  0.5306  3.5369
 3322TIP3   OH231380   0.793   3.755  12.875 -0.4175 -0.2666 -0.3635
 3322TIP3    H131381   0.866   3.765  12.814 -0.9145 -0.9095 -1.0651
 3322TIP3    H231382   0.715   3.764  12.822 -0.8646  1.1522  0.5163
 3323TIP3   OH231383   6.237   1.429  13.525  0.5205 -0.1433 -0.9557
 3323TIP3    H131384   6.331   1.427  13.507  0.9524  2.5054  0.7302
 3323TIP3    H231385   6.212   1.336  13.527  3.0602 -0.9044 -1.5124
 3324TIP3   OH231386   5.389   2.011  12.395  0.0420  0.6261  0.3275
 3324TIP3    H131387   5.383   2.063  12.475 -0.3577  1.1365 -0.0362
 3324TIP3    H231388   5.417   1.924  12.426 -0.0226  0.8419  1.0102
 3325TIP3   OH231389   6.592   3.782  14.311 -0.2791  0.0102 -0.5392
 3325TIP3    H131390   6.517   3.788  14.251  0.3335 -0.7874 -1.4048
 3325TIP3    H231391   6.618   3.690  14.307  0.5956  0.2296 -0.0622
 3326TIP3   OH231392   0.101   6.994  10.830  0.1881 -0.0966  0.2704
 3326TIP3    H131393   0.053   6.960  10.754  0.6543 -0.6802  0.2277
 3326TIP3    H231394   0.057   7.076  10.852  0.0217  0.0542 -0.6106
 3327TIP3   OH231395   1.150   2.031  13.646  0.5240  0.2757  0.0824
 3327TIP3    H131396   1.100   2.089  13.704 -0.8142  1.0487 -1.8230
 3327TIP3    H231397   1.155   1.948  13.694  0.5273  1.2739  1.8501
 3328TIP3   OH231398   1.469   4.892  11.079  0.2581 -0.4391 -0.5417
 3328TIP3    H131399   1.403   4.927  11.139  0.4641  1.4042 -1.3417
 3328TIP3    H231400   1.420   4.850  11.009  0.0032 -1.6661  0.3525
 3329TIP3   OH231401   3.682   2.046  12.440  0.6904 -0.2104 -0.2554
 3329TIP3    H131402   3.621   2.102  12.392  0.5028 -0.8905 -0.8170
 3329TIP3    H231403   3.743   2.107  12.481  0.3573  0.4184 -0.6816
 3330TIP3   OH231404   6.807   2.660  15.610 -0.4457  0.1342  0.5363
 3330TIP3    H131405   6.716   2.634  15.598 -0.4452  0.1007  0.6017
 3330TIP3    H231406   6.803   2.755  15.623 -0.3858  0.2586 -0.3410
 3331TIP3   OH231407   7.005   1.205  13.837  0.9440  0.0570 -0.2250
 3331TIP3    H131408   6.923   1.207  13.886  1.4899  0.5134  0.6771
 3331TIP3    H231409   6.983   1.159  13.756 -0.4433  1.0472 -0.4246
 3332TIP3   OH231410   1.434   1.997  12.728  0.1742  0.2835  0.1120
 3332TIP3    H131411   1.403   1.973  12.641 -0.0426  0.4085  0.1547
 3332TIP3    H231412   1.473   1.916  12.763  0.3370  0.2566 -0.1316
 3333TIP3   OH231413   1.939   7.070  12.303 -0.2838 -0.2490  0.6175
 3333TIP3    H131414   1.930   7.019  12.222  0.7885 -0.0214  0.3506
 3333TIP3    H231415   2.029   7.103  12.301 -0.4979  0.4073  1.5224
 3334TIP3   OH231416   6.120   1.707  12.262  0.2238  0.3652  0.1387
 3334TIP3    H131417   6.175   1.641  12.221  1.2544  0.7391  0.9111
 3334TIP3    H231418   6.112   1.776  12.196 -0.3740 -0.2547 -0.4467
 3335TIP3   OH231419   6.998   0.636  13.765 -0.0335  0.2733 -0.5818
 3335TIP3    H131420   7.014   0.556  13.815  2.6446  0.6219 -0.8158
 3335TIP3    H231421   6.976   0.702  13.831 -1.5358 -0.4480 -0.3317
 3336TIP3   OH231422   1.388   2.191  13.679  0.3454  0.5729 -0.4028
 3336TIP3    H131423   1.450   2.169  13.610 -0.2905  0.8093 -1.0545
 3336TIP3    H231424   1.322   2.122  13.674  1.6454 -0.8914  1.6869
 3337TIP3   OH231425   0.042   0.450  14.527  0.5454  0.4508 -0.5146
 3337TIP3    H131426   0.055   0.480  14.617 -2.7807  0.7999 -0.0763
 3337TIP3    H231427   0.129   0.425  14.496  1.9136  1.5439  2.3626
 3338TIP3   OH231428   1.116   6.888  11.227  0.4225  0.5991  0.0695
 3338TIP3    H131429   1.122   6.798  11.259 -0.0373  0.8497  0.8738
 3338TIP3    H231430   1.037   6.923  11.269 -0.6692  0.6683 -1.9792
 3339TIP3   OH231431   0.546   2.210  12.970  0.7663  0.5642 -0.2956
 3339TIP3    H131432   0.519   2.293  12.932 -1.3880  0.0033 -0.0223
 3339TIP3    H231433   0.626   2.231  13.018  0.0662  2.5326  0.0388
 3340TIP3   OH231434   7.004   6.345  11.088 -0.3311 -0.1702 -0.1828
 3340TIP3    H131435   7.034   6.279  11.025  0.5741  0.4557 -0.4139
 3340TIP3    H231436   7.082   6.397  11.108 -0.9426  0.5712  0.3237
 3341TIP3   OH231437   6.756   6.739  10.477 -0.0810 -0.3714 -0.8568
 3341TIP3    H131438   6.683   6.677  10.473 -1.0643  0.7698 -1.0254
 3341TIP3    H231439   6.771   6.764  10.386  0.3445 -0.4015 -0.7917
 3342TIP3   OH231440   0.096   5.953  12.893  0.1841  0.3327 -0.3122
 3342TIP3    H131441   0.078   5.997  12.976 -0.2275 -0.3876 -0.0149
 3342TIP3    H231442   0.173   5.899  12.910 -0.4657 -0.5380 -0.1322
 3343TIP3   OH231443   0.054   0.394  13.317 -0.0036  0.1527 -0.0144
 3343TIP3    H131444   0.024   0.411  13.227 -0.2009  1.8469  0.3537
 3343TIP3    H231445  -0.027   0.394  13.369  0.1832 -0.0668  0.2762
 3344TIP3   OH231446   7.302   6.907  11.658  0.7531  0.0175  0.3290
 3344TIP3    H131447   7.208   6.926  11.668  0.2806 -2.2367  0.3492
 3344TIP3    H231448   7.334   6.900  11.747  0.4745 -1.4138  0.3187
 3345TIP3   OH231449   0.610   0.242  11.812 -0.1053 -0.1458  0.2819
 3345TIP3    H131450   0.616   0.332  11.845  0.7734 -1.1526  3.0216
 3345TIP3    H231451   0.518   0.219  11.820 -0.1633  0.1724  0.5334
 3346TIP3   OH231452   5.154   0.228  14.316  0.0502 -0.1855  0.6235
 3346TIP3    H131453   5.191   0.317  14.308  0.6451 -0.3983  0.9349
 3346TIP3    H231454   5.176   0.186  14.233  1.7010 -0.7373  1.3082
 3347TIP3   OH231455   2.998   2.586  11.090 -0.3016 -0.3830  0.1453
 3347TIP3    H131456   2.999   2.498  11.128 -0.7631 -0.4363  0.0326
 3347TIP3    H231457   3.071   2.631  11.132  0.8147 -1.2515 -0.8239
 3348TIP3   OH231458   1.425   7.247  10.265 -0.4939 -0.2955 -0.3864
 3348TIP3    H131459   1.395   7.233  10.175  2.1866  0.3181 -1.4193
 3348TIP3    H231460   1.395   7.336  10.287 -0.9481 -0.3570 -0.7554
 3349TIP3   OH231461   3.499   2.360  11.768 -0.9093 -0.0860 -0.4510
 3349TIP3    H131462   3.519   2.393  11.681  2.3922  1.3346  0.7575
 3349TIP3    H231463   3.516   2.266  11.763  1.8605  0.3861 -0.6910
 3350TIP3   OH231464   6.028   5.672  13.299  0.2555  0.4140 -0.0785
 3350TIP3    H131465   5.950   5.706  13.345 -0.3327 -0.0363 -0.7317
 3350TIP3    H231466   6.021   5.707  13.211  0.1025 -0.6951 -0.5130
 3351TIP3   OH231467   6.762   5.508  15.288 -0.1352  0.6532  0.2784
 3351TIP3    H131468   6.692   5.527  15.227  0.6277  0.7740 -0.5763
 3351TIP3    H231469   6.828   5.462  15.236  0.1227 -0.0683  1.2169
 3352TIP3   OH231470   6.852   0.786  10.165 -0.4496  0.6997 -0.1393
 3352TIP3    H131471   6.757   0.781  10.169 -0.4647  1.1067  0.0784
 3352TIP3    H231472   6.879   0.707  10.119 -0.8272  0.0750  0.7066
 3353TIP3   OH231473   2.334   0.872  14.079  0.4557 -0.5764  0.3668
 3353TIP3    H131474   2.390   0.801  14.047  1.4112 -0.3691  1.5451
 3353TIP3    H231475   2.394   0.943  14.100 -0.4246  0.3206 -0.0920
 3354TIP3   OH231476   0.990   0.213  13.441 -0.3862 -0.1739 -0.2849
 3354TIP3    H131477   0.946   0.264  13.372 -0.8071  1.3164  1.0432
 3354TIP3    H231478   1.045   0.277  13.486  0.0036 -1.1702  0.6679
 3355TIP3   OH231479   3.213   0.061  11.954 -0.1455  0.0507  0.2107
 3355TIP3    H131480   3.287   0.119  11.934 -0.5911  0.8850  0.9320
 3355TIP3    H231481   3.179   0.093  12.038  0.9400 -2.6073  1.7441
 3356TIP3   OH231482   1.464   6.661  13.627 -0.3937  0.5917  0.2710
 3356TIP3    H131483   1.531   6.728  13.639  0.5676 -0.1952 -0.6755
 3356TIP3    H231484   1.492   6.612  13.550 -0.8533 -1.1858  1.2199
 3357TIP3   OH231485   2.557   1.340  14.591 -0.2684  0.1360  0.3795
 3357TIP3    H131486   2.635   1.390  14.566  0.4890 -1.5741 -0.7211
 3357TIP3    H231487   2.554   1.347  14.687  2.3809 -1.4739  0.6110
 3358TIP3   OH231488   2.880   1.134  10.656  0.3031  0.3672 -0.3414
 3358TIP3    H131489   2.952   1.197  10.651  0.0578  0.6476 -0.3752
 3358TIP3    H231490   2.887   1.083  10.575 -0.4905  1.4411 -1.1018
 3359TIP3   OH231491   3.462   0.018  14.046  0.5791 -0.4342  0.1362
 3359TIP3    H131492   3.391   0.038  13.984  0.6639 -0.7083 -0.0495
 3359TIP3    H231493   3.488   0.103  14.081 -0.2186 -0.3783  0.6161
 3360TIP3   OH231494   2.007   1.114  11.564  0.3920  0.5981  0.2111
 3360TIP3    H131495   2.041   1.025  11.570 -1.6460 -0.1362  1.1724
 3360TIP3    H231496   2.085   1.170  11.572  1.6809 -1.0836 -0.3901
 3361TIP3   OH231497   0.578   1.006  11.690 -0.1996 -0.8678 -0.2594
 3361TIP3    H131498   0.612   1.059  11.763  1.6101  0.0960 -1.7826
 3361TIP3    H231499   0.483   1.014  11.699  0.0178  0.8436  0.8507
 3362TIP3   OH231500   2.009   7.149  13.279 -0.6051 -0.3349 -0.3490
 3362TIP3    H131501   1.989   7.158  13.186  2.9529 -1.1339 -1.2666
 3362TIP3    H231502   1.981   7.060  13.301 -1.2190 -0.2320 -0.7127
 3363TIP3   OH231503   4.165   0.793  11.200 -0.3119  0.1152  0.3608
 3363TIP3    H131504   4.232   0.735  11.238 -0.3861 -0.2935 -0.1391
 3363TIP3    H231505   4.174   0.782  11.106 -1.5058 -0.4076  0.3014
 3364TIP3   OH231506   3.685   2.324  12.886 -0.0724 -0.0977  0.3025
 3364TIP3    H131507   3.697   2.330  12.981 -0.1363  0.8173  0.2531
 3364TIP3    H231508   3.619   2.390  12.867 -1.1920 -1.3297 -0.1704
 3365TIP3   OH231509   6.876   0.177  12.745 -0.3796 -0.1952 -0.0098
 3365TIP3    H131510   6.880   0.272  12.742 -1.1986 -0.1497  0.1588
 3365TIP3    H231511   6.965   0.148  12.728 -0.0053  0.6158  0.5765
 3366TIP3   OH231512   2.727   7.146  10.687 -0.5604 -0.3573  0.3791
 3366TIP3    H131513   2.740   7.171  10.596 -1.2462 -0.1244  0.3416
 3366TIP3    H231514   2.719   7.051  10.685 -2.3917 -0.2112 -0.0368
 3367TIP3   OH231515   2.371   7.041  14.274 -0.7565 -0.1457 -0.1964
 3367TIP3    H131516   2.375   6.950  14.244 -0.4081  0.3797 -1.7606
 3367TIP3    H231517   2.310   7.084  14.213 -0.6640  0.7479  0.3285
 3368TIP3   OH231518   3.683   0.064  15.083 -0.0273  0.4015 -0.0120
 3368TIP3    H131519   3.712  -0.027  15.078 -0.0730  0.3254  0.9426
 3368TIP3    H231520   3.749   0.107  15.139  1.1547  1.4360 -2.1306
 3369TIP3   OH231521   1.572   1.826  13.972 -0.4618 -0.1110  0.3968
 3369TIP3    H131522   1.481   1.856  13.970 -0.1844  0.7672 -1.8542
 3369TIP3    H231523   1.566   1.731  13.981 -1.6698 -0.1841 -0.8494
 3370TIP3   OH231524   1.087   1.965  13.020  0.2178 -0.4986  0.4442
 3370TIP3    H131525   1.009   1.945  13.072  1.0119 -1.4268  1.3034
 3370TIP3    H231526   1.147   1.892  13.038  1.0100 -0.1536 -0.7563
 3371TIP3   OH231527   3.359   5.286  13.966  0.5988  0.0942 -0.1357
 3371TIP3    H131528   3.418   5.345  14.015  0.4533 -0.3324  0.5617
 3371TIP3    H231529   3.289   5.267  14.028  1.0976 -1.5207 -0.0484
 3372TIP3   OH231530   2.551   7.082  14.696  0.5340  0.0975  0.0509
 3372TIP3    H131531   2.495   7.013  14.663  0.7522  0.9477 -2.1538
 3372TIP3    H231532   2.631   7.037  14.724  0.7290 -0.5443 -1.5077
 3373TIP3   OH231533   1.985   0.340  13.046  0.7789 -0.6291 -0.9528
 3373TIP3    H131534   1.930   0.378  12.978 -2.6957 -3.1285  0.3237
 3373TIP3    H231535   1.993   0.409  13.112 -1.5907 -0.5176 -0.7540
 3374TIP3   OH231536   4.076   0.763  10.928  0.2752 -0.1973  0.3950
 3374TIP3    H131537   4.008   0.752  10.863 -1.3592  0.3207  1.9865
 3374TIP3    H231538   4.139   0.823  10.887 -1.0459  0.6303 -0.4746
 3375TIP3   OH231539   7.292   1.154  13.828  0.1414 -0.0883 -0.1270
 3375TIP3    H131540   7.203   1.181  13.847 -0.6476 -2.4640 -0.2621
 3375TIP3    H231541   7.302   1.169  13.734 -0.0495  0.3436 -0.0793
 3376TIP3   OH231542   0.665   0.234  14.029 -0.7123 -0.0743  0.3495
 3376TIP3    H131543   0.595   0.228  13.964 -0.2820 -0.5535 -0.0786
 3376TIP3    H231544   0.638   0.176  14.099 -0.6502 -0.4282  0.0864
 3377TIP3   OH231545   2.156   7.089  10.923  0.5044 -0.2317  0.0725
 3377TIP3    H131546   2.249   7.098  10.940  0.8756 -2.1682 -0.8390
 3377TIP3    H231547   2.151   7.044  10.838 -1.2614  1.1209 -0.5938
 3378TIP3   OH231548   4.756   5.929  12.770  0.6062  0.0247 -0.2138
 3378TIP3    H131549   4.767   5.845  12.816 -0.6813 -0.5278 -0.9151
 3378TIP3    H231550   4.813   5.989  12.818 -0.7091 -0.5366  2.1509
 3379TIP3   OH231551   4.899   0.723  14.331  0.0121  0.1333 -0.3254
 3379TIP3    H131552   4.981   0.699  14.288  0.6957  1.5649  0.1085
 3379TIP3    H231553   4.845   0.759  14.261 -0.0877 -0.4356 -0.5419
 3380TIP3   OH231554   2.251   5.100  11.661  0.1885 -0.2313 -0.1282
 3380TIP3    H131555   2.303   5.067  11.588  0.0085 -0.7208 -0.0415
 3380TIP3    H231556   2.170   5.048  11.658  0.2723 -0.4100  0.5495
 3381TIP3   OH231557   3.668   2.941  12.432 -0.5377  0.3310  0.3244
 3381TIP3    H131558   3.608   2.948  12.506  1.6289  0.6063  2.1047
 3381TIP3    H231559   3.628   2.876  12.375 -0.4342 -2.7002  3.5323
 3382TIP3   OH231560   3.856   2.518  12.547  0.2050  0.3913 -0.9128
 3382TIP3    H131561   3.815   2.586  12.601  0.2788 -1.0266  1.0060
 3382TIP3    H231562   3.783   2.474  12.505 -0.1085 -0.5466  0.5692
 3383TIP3   OH231563   3.188   1.750  12.256  0.1431 -0.0637  0.2685
 3383TIP3    H131564   3.148   1.815  12.197 -0.5594 -2.0498 -1.5325
 3383TIP3    H231565   3.125   1.740  12.327 -0.1973  0.5298  0.0541
 3384TIP3   OH231566   4.206   3.981  12.493  0.3988  0.1069  0.2522
 3384TIP3    H131567   4.207   4.044  12.421 -1.4415 -0.2584 -0.1049
 3384TIP3    H231568   4.154   3.908  12.461 -0.4257 -0.0823  1.9176
 3385TIP3   OH231569   3.732   6.929  11.712  0.2812 -0.5010 -0.2070
 3385TIP3    H131570   3.652   6.924  11.766 -0.5607 -3.1244 -1.6055
 3385TIP3    H231571   3.717   7.003  11.653 -0.3196  0.1496  0.7385
 3386TIP3   OH231572   3.153   1.907  12.684 -0.1542  0.1062  0.1150
 3386TIP3    H131573   3.112   1.878  12.602  1.0684 -1.2710 -0.0217
 3386TIP3    H231574   3.099   1.867  12.752 -0.5981  0.4614 -0.0230
 3387TIP3   OH231575   6.492   1.935  11.799  0.2786  0.1879  0.2938
 3387TIP3    H131576   6.448   1.850  11.803  1.2953 -0.3419  0.2358
 3387TIP3    H231577   6.473   1.968  11.712  1.5709 -0.8970 -0.4216
 3388TIP3   OH231578   4.495   0.836  11.325 -0.9796  0.4194  0.0843
 3388TIP3    H131579   4.451   0.894  11.387 -2.2288 -0.5816  0.1435
 3388TIP3    H231580   4.578   0.815  11.368 -0.6444  1.9014  0.1998
 3389TIP3   OH231581   5.227   6.788  11.351 -0.3760  0.2001 -0.4259
 3389TIP3    H131582   5.137   6.817  11.339 -0.5103 -0.4296 -0.9577
 3389TIP3    H231583   5.270   6.862  11.395 -0.6360  1.3358 -2.0259
 3390TIP3   OH231584   1.051   4.605  10.736 -0.1664 -0.1029 -0.0433
 3390TIP3    H131585   1.079   4.663  10.665 -0.3073  0.0614  0.0317
 3390TIP3    H231586   0.967   4.641  10.764 -0.0116 -0.0408  0.3497
 3391TIP3   OH231587   0.583   0.239  12.766 -0.3825 -0.2281  0.1863
 3391TIP3    H131588   0.631   0.267  12.688  2.2305 -0.9200  1.5011
 3391TIP3    H231589   0.569   0.145  12.753 -1.3156 -0.0551 -0.1322
 3392TIP3   OH231590   2.773   1.250  13.050 -0.2851  0.2482 -0.0544
 3392TIP3    H131591   2.739   1.166  13.082 -0.2853  0.0711 -0.5074
 3392TIP3    H231592   2.695   1.304  13.037 -0.2684  0.3893  0.4400
 3393TIP3   OH231593   6.429   2.256  12.106  0.3643  0.0105 -0.0394
 3393TIP3    H131594   6.401   2.171  12.072 -0.7428  0.2191  0.3449
 3393TIP3    H231595   6.413   2.250  12.200 -0.3504  0.8864 -0.1018
 3394TIP3   OH231596   4.940   0.489  13.577  0.1248  0.1274 -0.5114
 3394TIP3    H131597   4.934   0.449  13.490  0.3544 -0.7330 -0.1324
 3394TIP3    H231598   5.020   0.542  13.573  0.2421 -0.0649 -0.7619
 3395TIP3   OH231599   2.208   2.763  13.000 -0.2732  0.6154  0.1014
 3395TIP3    H131600   2.183   2.712  13.078 -0.9548  0.9703  0.1201
 3395TIP3    H231601   2.164   2.847  13.012  0.4810  1.0461 -0.1539
 3396TIP3   OH231602   3.676   0.219  10.498 -0.3980  0.1578 -0.5414
 3396TIP3    H131603   3.719   0.300  10.526  0.6332 -0.5971  0.1214
 3396TIP3    H231604   3.596   0.247  10.455 -0.3692  1.5049  0.2668
 3397TIP3   OH231605   2.228   2.812  14.653 -0.3158  0.1775 -0.4269
 3397TIP3    H131606   2.297   2.756  14.618 -0.6794 -0.2074 -0.5377
 3397TIP3    H231607   2.148   2.780  14.612 -0.6675  0.0784  0.3319
 3398TIP3   OH231608   3.262   0.025  11.106 -0.2034  0.6604  0.0185
 3398TIP3    H131609   3.180   0.002  11.063  0.0533  0.8613 -0.5897
 3398TIP3    H231610   3.236   0.072  11.185 -0.7098 -0.6529  0.6490
 3399TIP3   OH231611   2.954   1.542  10.397  0.3029  0.0147  0.0552
 3399TIP3    H131612   2.932   1.630  10.368 -0.1343 -0.0681  0.1312
 3399TIP3    H231613   2.999   1.502  10.322 -0.7139 -0.1586 -0.4703
 3400TIP3   OH231614   2.714   2.254  10.557 -0.3303 -0.6022 -0.4397
 3400TIP3    H131615   2.695   2.196  10.483  0.8178 -1.5833  0.0013
 3400TIP3    H231616   2.809   2.248  10.567 -0.5096 -0.7432  1.3139
 3401TIP3   OH231617   7.080   7.204  11.479  0.1279  0.5785 -0.0584
 3401TIP3    H131618   7.120   7.125  11.515 -1.2529 -0.2523 -0.3195
 3401TIP3    H231619   7.051   7.179  11.392  1.8869  2.0840 -1.1281
 3402TIP3   OH231620   2.929   2.023  14.329 -0.3632 -0.1562  0.5406
 3402TIP3    H131621   2.989   2.056  14.396 -1.0985  1.5281  0.3921
 3402TIP3    H231622   2.843   2.024  14.371 -0.7288  0.2934 -0.1947
 3403TIP3   OH231623   4.239   3.195   0.254 -0.3456  0.1609  0.1635
 3403TIP3    H131624   4.319   3.235   0.221  0.0847 -1.2552 -0.5552
 3403TIP3    H231625   4.229   3.115   0.202 -2.1790  0.2772  0.2985
 3404TIP3   OH231626   1.397   6.526  13.857  0.5862  0.4639  0.1946
 3404TIP3    H131627   1.435   6.564  13.778  1.6633 -1.8621 -0.4366
 3404TIP3    H231628   1.468   6.476  13.898 -1.2687 -2.6297 -0.1534
 3405TIP3   OH231629   3.100   2.625  11.625  0.2478 -0.1325  0.0577
 3405TIP3    H131630   3.166   2.579  11.677  0.0682  0.0073  0.4132
 3405TIP3    H231631   3.063   2.689  11.685 -1.5054 -1.4415  0.3922
 3406TIP3   OH231632   2.977   6.785  12.230  0.1721 -0.1056 -0.4918
 3406TIP3    H131633   2.942   6.844  12.163  0.0725  0.9474  0.4623
 3406TIP3    H231634   2.923   6.707  12.225  0.4263 -0.1929 -1.9134
 3407TIP3   OH231635   3.602   5.373  11.726  0.1401 -0.0066 -0.0059
 3407TIP3    H131636   3.513   5.389  11.757 -0.0728 -0.6580 -0.2705
 3407TIP3    H231637   3.593   5.302  11.663  0.8683 -0.1544  0.0507
 3408TIP3   OH231638   1.955   0.476  11.933 -0.4865  0.0328 -0.6535
 3408TIP3    H131639   1.904   0.468  12.014 -1.6535  0.9651 -1.2810
 3408TIP3    H231640   1.922   0.556  11.893 -0.0081 -0.5047 -2.1222
 3409TIP3   OH231641   4.170   1.179  12.705 -0.0139 -0.7157  0.6154
 3409TIP3    H131642   4.226   1.251  12.733 -0.0277 -0.8045  0.8766
 3409TIP3    H231643   4.196   1.105  12.760 -0.4525 -0.7324  0.8050
 3410TIP3   OH231644   2.194   3.148  13.477  0.6384 -0.4861  0.4787
 3410TIP3    H131645   2.162   3.118  13.392  0.8468 -0.2570  0.3188
 3410TIP3    H231646   2.266   3.208  13.456 -1.0908  1.7524  0.6921
 3411TIP3   OH231647   3.919   5.756  11.434 -0.1797  0.3264 -0.1349
 3411TIP3    H131648   3.906   5.845  11.402 -2.6134 -0.0292 -0.2132
 3411TIP3    H231649   3.911   5.701  11.355 -1.2988 -0.1584  0.3055
 3412TIP3   OH231650   4.003   6.990  13.161 -0.7942 -0.0765 -0.1589
 3412TIP3    H131651   4.081   7.043  13.174 -1.0511  0.4867 -0.8441
 3412TIP3    H231652   3.954   7.037  13.093 -1.9648 -0.1454  0.6199
 3413TIP3   OH231653   1.872   6.439  14.844 -0.0156  0.2079 -0.2522
 3413TIP3    H131654   1.903   6.425  14.934  2.6177  0.4150 -1.1012
 3413TIP3    H231655   1.900   6.362  14.796 -0.7407  0.4498 -1.0752
 3414TIP3   OH231656   4.074   0.473  11.211  0.7428  0.6743 -0.0504
 3414TIP3    H131657   4.104   0.405  11.271 -0.0908  0.9867  0.7232
 3414TIP3    H231658   4.091   0.437  11.124  1.6371  0.0777  0.3634
 3415TIP3   OH231659   6.868   7.220  12.125 -0.6675  0.3845 -0.5157
 3415TIP3    H131660   6.911   7.306  12.132 -0.3717  0.2422 -0.5865
 3415TIP3    H231661   6.882   7.194  12.034  0.2197 -0.2503 -0.2034
 3416TIP3   OH231662   1.209   1.512  14.292 -0.0721 -0.2188 -0.3289
 3416TIP3    H131663   1.122   1.533  14.259  0.6129  0.1353 -1.9400
 3416TIP3    H231664   1.262   1.498  14.214  2.0386  2.4607  0.5450
 3417TIP3   OH231665   4.281   1.801  11.018 -0.4332 -0.2101 -0.0826
 3417TIP3    H131666   4.314   1.748  10.946  1.0365 -1.0092  1.1602
 3417TIP3    H231667   4.266   1.888  10.980  0.6727 -0.5287 -1.2492
 3418TIP3   OH231668   1.839   0.031  13.400  0.3665 -0.1380  0.1769
 3418TIP3    H131669   1.925   0.006  13.366 -0.1884  0.2694 -1.5490
 3418TIP3    H231670   1.831  -0.018  13.483  2.7082  0.7040  0.9257
 3419TIP3   OH231671   1.721   7.147  13.059  0.2501  0.2481  0.2749
 3419TIP3    H131672   1.683   7.184  12.979  0.8223 -1.5988 -0.8907
 3419TIP3    H231673   1.651   7.153  13.124 -0.2737  1.6526 -0.3992
 3420TIP3   OH231674   3.731   1.357  12.136 -0.0885 -0.1198 -0.1275
 3420TIP3    H131675   3.779   1.280  12.168 -0.5299 -0.1733  0.4102
 3420TIP3    H231676   3.798   1.409  12.091  0.5155 -0.1326  0.7295
 3421TIP3   OH231677   1.035   6.078  13.679  0.0039 -0.4298 -0.5205
 3421TIP3    H131678   1.008   6.037  13.761  1.8342 -2.7720 -1.0337
 3421TIP3    H231679   0.970   6.048  13.615 -0.4825  0.0736 -0.2706
 3422TIP3   OH231680   3.152   1.350  12.043  0.1764  0.4370 -0.3324
 3422TIP3    H131681   3.106   1.266  12.047  0.8689  0.0766  0.2771
 3422TIP3    H231682   3.165   1.375  12.135  0.9177  0.6814 -0.5017
 3423TIP3   OH231683   1.113   2.921  14.289 -0.7472  0.7356  0.4765
 3423TIP3    H131684   1.118   3.010  14.254 -0.0447 -0.2966 -2.1571
 3423TIP3    H231685   1.024   2.914  14.323 -2.0313  1.3042 -2.6066
 3424TIP3   OH231686   2.625   7.281  13.134 -0.3815  0.0175  0.3133
 3424TIP3    H131687   2.688   7.341  13.173  0.3998 -1.0817  0.7550
 3424TIP3    H231688   2.676   7.228  13.073 -0.3680 -2.4466  2.3577
 3425TIP3   OH231689   2.344   4.876  12.802 -0.0775 -0.2580 -0.0109
 3425TIP3    H131690   2.262   4.893  12.850  0.5977  0.0908  1.0518
 3425TIP3    H231691   2.342   4.938  12.729 -0.6678 -0.1041  0.1287
 3426TIP3   OH231692   6.597   0.460  13.220  0.1152  0.9658  0.2046
 3426TIP3    H131693   6.626   0.468  13.311  1.9872  0.3938 -0.3365
 3426TIP3    H231694   6.649   0.524  13.172 -0.3884  0.7949 -0.5814
 3427TIP3   OH231695   3.242   2.025  11.394  0.2382 -0.1613 -1.0828
 3427TIP3    H131696   3.333   2.052  11.397  0.3435 -0.6588  1.1187
 3427TIP3    H231697   3.245   1.929  11.389 -0.1695 -0.1296 -2.1532
 3428TIP3   OH231698   4.779   4.128  13.974  0.2178 -0.1492  0.1321
 3428TIP3    H131699   4.798   4.222  13.963 -1.6683  0.0621 -1.7121
 3428TIP3    H231700   4.710   4.125  14.040  1.2750 -0.3647  1.2444
 3429TIP3   OH231701   1.007   0.077  12.877 -0.1478 -0.2834  0.6385
 3429TIP3    H131702   1.042  -0.003  12.839 -1.5670  0.1529 -1.6988
 3429TIP3    H231703   0.922   0.051  12.914  0.3829 -0.3047  1.8704
 3430TIP3   OH231704   2.887   0.700  10.348  0.0796  0.1956 -0.7368
 3430TIP3    H131705   2.848   0.713  10.262  1.1717 -1.0324 -1.4433
 3430TIP3    H231706   2.892   0.604  10.358 -0.1278  0.3169  0.7284
 3431TIP3   OH231707   3.503   3.319  12.864 -0.3147 -0.0128 -0.2360
 3431TIP3    H131708   3.465   3.288  12.783 -0.4476  0.6833 -0.4469
 3431TIP3    H231709   3.569   3.384  12.837 -0.4946  0.3661  0.2109
 3432TIP3   OH231710   0.074   6.878  13.746  0.4047  0.2162 -0.1709
 3432TIP3    H131711   0.132   6.950  13.767  0.3242  0.4204 -0.6361
 3432TIP3    H231712  -0.011   6.904  13.781  0.6722 -0.2472  0.8371
 3433TIP3   OH231713   2.250   6.578  13.812  0.1714  0.4071  0.0265
 3433TIP3    H131714   2.307   6.638  13.860 -0.3185 -0.2198  1.4130
 3433TIP3    H231715   2.228   6.510  13.876 -1.1389 -0.0092 -0.8553
 3434TIP3   OH231716   3.422   0.735  12.314  0.3136 -0.1349  0.3551
 3434TIP3    H131717   3.481   0.662  12.333 -0.4068 -0.9903 -0.6687
 3434TIP3    H231718   3.346   0.695  12.273 -1.4078  0.8511  2.4873
 3435TIP3   OH231719   2.967   5.822  14.002 -0.2998 -0.5192  0.0538
 3435TIP3    H131720   2.878   5.842  13.975  0.3165  0.4883 -1.2629
 3435TIP3    H231721   3.022   5.854  13.931  1.0665 -1.9619  0.4133
 3436TIP3   OH231722   5.596   0.741  12.495 -0.8045 -0.0724  0.1900
 3436TIP3    H131723   5.657   0.728  12.422  1.3516  0.3645  1.8986
 3436TIP3    H231724   5.540   0.814  12.467 -0.9394 -0.8336 -1.6109
 3437TIP3   OH231725   3.834   2.866  14.033  0.0234 -1.0679  0.1389
 3437TIP3    H131726   3.889   2.932  13.990  0.9805 -2.5636 -0.9675
 3437TIP3    H231727   3.816   2.801  13.965 -4.1826 -0.0455  0.0811
 3438TIP3   OH231728   4.604   5.974  12.553  0.1957  0.1673 -0.1181
 3438TIP3    H131729   4.524   6.025  12.571  0.1730 -0.3100  1.2107
 3438TIP3    H231730   4.663   5.996  12.626  0.3444 -1.3678  0.2486
 3439TIP3   OH231731   1.252   0.393  12.759 -0.0516  0.0604  0.1863
 3439TIP3    H131732   1.211   0.382  12.673  0.6806  0.0750 -0.1689
 3439TIP3    H231733   1.337   0.433  12.740 -0.0867  0.5041  0.9609
 3440TIP3   OH231734   7.188   1.015  11.582  0.0017 -0.2846  0.2583
 3440TIP3    H131735   7.230   0.931  11.560 -0.4895 -0.1958 -1.0502
 3440TIP3    H231736   7.116   0.990  11.639  0.8830 -0.5878  1.2614
 3441TIP3   OH231737   1.411   0.267  13.269 -0.1426  0.9221  0.3146
 3441TIP3    H131738   1.337   0.224  13.228  1.7861 -1.6740 -0.5972
 3441TIP3    H231739   1.433   0.339  13.209 -1.6363  1.4096  0.3573
 3442TIP3   OH231740   2.768   0.930  10.444 -0.3614  0.1022 -0.1020
 3442TIP3    H131741   2.781   0.843  10.408  0.2899 -0.1258  0.6937
 3442TIP3    H231742   2.785   0.989  10.370 -0.3341 -0.4228 -0.5144
 3443TIP3   OH231743   1.793   5.766  11.936  0.5876  0.3622 -0.1431
 3443TIP3    H131744   1.716   5.718  11.905  0.3279 -1.4281  2.9712
 3443TIP3    H231745   1.854   5.765  11.863 -0.6580 -2.0607 -1.1947
 3444TIP3   OH231746   2.262   4.162  11.344 -0.0327 -0.0199  0.0241
 3444TIP3    H131747   2.250   4.192  11.434  3.8949 -1.9143  1.2870
 3444TIP3    H231748   2.198   4.091  11.333 -0.7692  0.4556  1.1733
 3445TIP3   OH231749   1.359   1.265  11.602  0.1851  0.2872 -0.4448
 3445TIP3    H131750   1.266   1.268  11.581 -0.3840 -0.1880  1.8916
 3445TIP3    H231751   1.381   1.356  11.625 -0.0134  0.1666  0.2356
 3446TIP3   OH231752   3.215   0.660  12.115  0.1546  0.8145  0.2251
 3446TIP3    H131753   3.149   0.722  12.085 -0.1927  0.3329 -0.0263
 3446TIP3    H231754   3.288   0.672  12.054 -0.2659  0.3484 -0.3751
 3447TIP3   OH231755   4.344   1.995  14.537 -0.0735 -0.4231  0.1334
 3447TIP3    H131756   4.432   1.963  14.517  0.6106  0.7732  1.1344
 3447TIP3    H231757   4.336   2.075  14.486 -0.9366 -1.0088 -0.6546
 3448TIP3   OH231758   1.292   0.487  11.091 -0.3737 -0.0035  0.2704
 3448TIP3    H131759   1.301   0.542  11.013 -0.1141  0.2187  0.4550
 3448TIP3    H231760   1.314   0.546  11.163  1.1120 -0.6664  0.3878
 3449TIP3   OH231761   3.814   0.105  11.145  0.2244  0.0799  0.4251
 3449TIP3    H131762   3.732   0.129  11.102 -0.1865  0.3884  1.3717
 3449TIP3    H231763   3.804   0.013  11.167  0.3589 -0.0281  0.0428
 3450TIP3   OH231764   4.037   3.667  11.761  0.3028  0.3079 -0.4464
 3450TIP3    H131765   4.102   3.610  11.721  1.3476  0.4925  0.9689
 3450TIP3    H231766   3.975   3.607  11.803 -0.9552  0.1014 -2.4976
 3451TIP3   OH231767   1.633   1.915  10.971  0.2779  0.0987 -1.0856
 3451TIP3    H131768   1.614   1.981  11.037 -1.7984 -1.2555 -0.2769
 3451TIP3    H231769   1.718   1.879  10.996  1.3191  2.2182 -1.3866
 3452TIP3   OH231770   1.763   2.877   9.839 -0.1819 -0.5644  0.4650
 3452TIP3    H131771   1.797   2.788   9.836  1.5793  0.1875 -2.7792
 3452TIP3    H231772   1.833   2.928   9.880 -0.6472 -0.3844  1.0551
 3453TIP3   OH231773   1.070   1.931  14.110  0.0162  0.3887 -0.0238
 3453TIP3    H131774   1.006   1.938  14.039  0.0144  0.1574 -0.0468
 3453TIP3    H231775   1.049   1.848  14.153 -0.3485  0.8031  0.6060
 3454TIP3   OH231776   3.672   2.004  13.711  0.6981  0.0463 -0.0848
 3454TIP3    H131777   3.676   1.915  13.674 -0.0729  0.8297 -2.1464
 3454TIP3    H231778   3.578   2.021  13.721  0.8745  0.2607  1.2637
 3455TIP3   OH231779   3.629   1.133  11.798 -0.2886 -0.0908 -0.2310
 3455TIP3    H131780   3.612   1.140  11.891 -0.0699 -0.4714 -0.1631
 3455TIP3    H231781   3.716   1.170  11.786 -1.3359  2.3496 -0.6529
 3456TIP3   OH231782   7.222   3.743  12.102 -0.0145 -1.2367 -0.4029
 3456TIP3    H131783   7.160   3.671  12.092 -0.9677 -0.3726 -0.8055
 3456TIP3    H231784   7.215   3.792  12.020  0.6808 -0.7361 -0.1663
 3457TIP3   OH231785   2.124   0.623  12.564 -0.0557 -0.4677  0.0473
 3457TIP3    H131786   2.057   0.563  12.597  0.8499 -0.3828  2.1141
 3457TIP3    H231787   2.186   0.566  12.518  1.2704 -1.3161  2.7648
 3458TIP3   OH231788   2.751   1.176  10.954 -0.7666 -0.8441 -0.2795
 3458TIP3    H131789   2.753   1.197  10.861 -2.5942  1.6611  0.1945
 3458TIP3    H231790   2.664   1.202  10.983 -0.1714 -1.4419  2.1799
 3459TIP3   OH231791   2.265   6.861  11.623  1.0029 -0.4690  0.1348
 3459TIP3    H131792   2.237   6.773  11.597 -3.3693  0.6204  0.6984
 3459TIP3    H231793   2.213   6.920  11.567  1.8947  1.7730  1.5989
 3460TIP3   OH231794   2.194   2.650  11.863  0.4038  0.8884 -0.4256
 3460TIP3    H131795   2.106   2.654  11.900  0.4083  1.0664 -0.4356
 3460TIP3    H231796   2.231   2.737  11.878  0.2823  1.0697 -1.1601
 3461TIP3   OH231797   2.991   0.937  13.322  0.2601  0.4152 -0.6290
 3461TIP3    H131798   2.973   0.856  13.274 -0.4316  0.7757 -0.9791
 3461TIP3    H231799   2.982   1.007  13.257 -3.6818  1.2159  0.6153
 3462TIP3   OH231800   3.754   0.085  12.701 -0.3374  0.2946  0.3992
 3462TIP3    H131801   3.819   0.056  12.637 -0.4978  0.0361  0.3517
 3462TIP3    H231802   3.783   0.047  12.784 -1.3260 -1.2129  0.0820
 3463TIP3   OH231803   4.123   3.773  13.076  0.1099  0.3247  0.5167
 3463TIP3    H131804   4.210   3.807  13.056 -0.1960  0.2855 -0.9008
 3463TIP3    H231805   4.064   3.848  13.063 -0.3589 -0.2882 -0.9651
 3464TIP3   OH231806   3.405   1.515  13.592  0.0444 -0.1371 -0.0970
 3464TIP3    H131807   3.464   1.458  13.543 -1.1236 -0.5434 -1.0475
 3464TIP3    H231808   3.317   1.481  13.574 -0.6124  1.5017 -0.0728
 3465TIP3   OH231809   2.463   7.185  10.987  1.0144 -0.0335 -0.2126
 3465TIP3    H131810   2.450   7.202  11.081  1.1948 -1.4002  0.0736
 3465TIP3    H231811   2.542   7.233  10.965  0.7413  0.6315  0.2450
 3466TIP3   OH231812   3.899   1.417  14.055  0.1801  0.1834  0.4562
 3466TIP3    H131813   3.840   1.401  13.982 -0.4331  0.5988  0.8535
 3466TIP3    H231814   3.880   1.506  14.083 -1.3034 -0.7611  2.6500
 3467TIP3   OH231815   1.779   6.734  12.015  0.5542 -0.4162  0.1671
 3467TIP3    H131816   1.715   6.695  11.955  1.6902 -0.7319 -0.8620
 3467TIP3    H231817   1.740   6.723  12.102 -1.9244  1.6100 -0.6265
 3468TIP3   OH231818   3.245   7.004  12.275 -0.1978  0.0394  0.1346
 3468TIP3    H131819   3.151   7.015  12.265  0.0184  2.3510  0.3956
 3468TIP3    H231820   3.283   7.034  12.192  0.3817  0.3379  0.5008
 3469TIP3   OH231821   4.538   0.779  14.459 -0.3692  0.3852 -0.6347
 3469TIP3    H131822   4.472   0.829  14.507  0.9109  1.0913  0.4160
 3469TIP3    H231823   4.522   0.800  14.367 -1.2134  1.0162 -0.3532
 3470TIP3   OH231824   3.109   1.230  10.818 -0.3910  0.1891 -0.8975
 3470TIP3    H131825   3.023   1.217  10.859 -0.2595 -1.4510 -1.1442
 3470TIP3    H231826   3.094   1.299  10.753 -1.3154  0.5416 -0.3208
 3471TIP3   OH231827   1.422   5.471  11.715 -0.1781  0.1525  0.1788
 3471TIP3    H131828   1.443   5.398  11.657 -0.7644  0.2340 -0.1440
 3471TIP3    H231829   1.360   5.524  11.665  2.1546  2.2459 -0.6151
 3472TIP3   OH231830   1.183   1.527  12.195  0.6455  0.1505 -0.0300
 3472TIP3    H131831   1.271   1.562  12.208  0.5725  0.6478 -0.8456
 3472TIP3    H231832   1.133   1.600  12.158  0.1022 -0.3747 -0.3443
 3473TIP3   OH231833   6.753   7.226  12.935  0.0608 -0.2825  0.2428
 3473TIP3    H131834   6.749   7.273  12.852 -4.3183 -0.4663  0.2765
 3473TIP3    H231835   6.749   7.295  13.001  1.2088 -0.2913  0.3370
 3474TIP3   OH231836   2.805   0.696  11.719 -0.7602  0.4068  0.6452
 3474TIP3    H131837   2.726   0.749  11.729 -0.2774  0.8236  2.3755
 3474TIP3    H231838   2.776   0.607  11.738 -1.7456 -0.1677 -3.0182
 3475TIP3   OH231839   1.664   0.273  12.955  0.3552 -0.0175 -0.3905
 3475TIP3    H131840   1.724   0.251  12.883  0.3367 -2.3740  0.2841
 3475TIP3    H231841   1.698   0.225  13.030 -0.3528  1.4542  0.8926
 3476TIP3   OH231842   2.074   0.223  11.287  0.0733 -0.4329 -0.3873
 3476TIP3    H131843   2.100   0.258  11.373 -1.4560 -0.8203  0.2436
 3476TIP3    H231844   2.153   0.232  11.234  1.2507 -0.7648  1.2396
 3477TIP3   OH231845   2.290   1.543  13.353  0.0439 -0.9062  0.2994
 3477TIP3    H131846   2.241   1.609  13.304  1.2316  0.5982  1.0967
 3477TIP3    H231847   2.227   1.509  13.417  0.0785  1.2412  1.5356
 3478TIP3   OH231848   2.032   0.346  13.458  0.2371 -0.1387  0.5120
 3478TIP3    H131849   1.948   0.304  13.439 -0.8668  1.8112  0.8419
 3478TIP3    H231850   2.008   0.438  13.475  2.4470  0.4361  0.5883
 3479TIP3   OH231851   0.334   7.263  10.799 -0.1668 -0.2145 -0.1148
 3479TIP3    H131852   0.274   7.294  10.867  0.3920  0.1187  0.2281
 3479TIP3    H231853   0.408   7.227  10.847 -1.1119 -2.7560 -0.5081
 3480TIP3   OH231854   0.121   7.230  13.200 -0.3077  0.1043  0.2053
 3480TIP3    H131855   0.059   7.241  13.128 -0.6622 -2.2167  0.1031
 3480TIP3    H231856   0.071   7.185  13.268  0.5532  0.5498  1.1427
 3481TIP3   OH231857   1.172   3.536  13.283  1.0636 -0.4436 -0.5504
 3481TIP3    H131858   1.216   3.570  13.205 -0.3182 -2.3434 -2.2190
 3481TIP3    H231859   1.080   3.556  13.269  1.0805  1.7332  1.9827
 3482TIP3   OH231860   2.115   2.658  10.262  0.0300 -0.0620 -0.6091
 3482TIP3    H131861   2.091   2.747  10.240  0.8160 -0.1382 -1.7887
 3482TIP3    H231862   2.077   2.604  10.193 -0.2626 -0.6268 -0.0169
 3483TIP3   OH231863   3.564   2.905  13.237  0.0771  0.6252  0.3073
 3483TIP3    H131864   3.494   2.964  13.209 -0.3613 -0.2031 -0.3551
 3483TIP3    H231865   3.545   2.887  13.329 -0.3855  0.6806  0.2247
 3484TIP3   OH231866   3.306   0.350  12.471  0.0400 -0.1209 -0.3525
 3484TIP3    H131867   3.257   0.420  12.427  0.6192 -0.2349 -1.1837
 3484TIP3    H231868   3.270   0.348  12.560 -0.8084  0.4298 -0.6785
 3485TIP3   OH231869   3.149   0.671  13.688  0.2161 -0.0126  0.3784
 3485TIP3    H131870   3.144   0.744  13.627 -1.3413 -0.2941  0.1324
 3485TIP3    H231871   3.235   0.632  13.673  0.4558  0.8705 -0.5310
 3486TIP3   OH231872   1.860   0.523  14.169  0.0851  0.0233  0.0943
 3486TIP3    H131873   1.906   0.488  14.093  0.2189 -1.6602  0.9317
 3486TIP3    H231874   1.879   0.617  14.167  0.5329 -0.0750 -1.6255
 3487TIP3   OH231875   1.070   7.218  13.431  0.4319  0.3826 -0.1243
 3487TIP3    H131876   1.048   7.303  13.470  2.3889  0.9018 -0.0566
 3487TIP3    H231877   1.091   7.163  13.506  0.2542  0.1739 -0.2289
 3488TIP3   OH231878   3.448   0.693  11.663 -0.0696 -0.0850  0.8433
 3488TIP3    H131879   3.414   0.675  11.576  1.9999  1.1581 -0.2433
 3488TIP3    H231880   3.467   0.786  11.664  0.9134 -0.2757  2.2777
 3489TIP3   OH231881   4.782   6.259  13.837  0.1328 -0.4763 -0.1768
 3489TIP3    H131882   4.871   6.271  13.872 -0.2085  0.5577  0.3404
 3489TIP3    H231883   4.732   6.332  13.873 -1.1929 -1.6311  0.3846
 3490TIP3   OH231884   6.877   7.184  11.863 -0.2328 -0.3020  0.1637
 3490TIP3    H131885   6.841   7.140  11.787 -0.0294  2.0953 -1.3824
 3490TIP3    H231886   6.960   7.139  11.881  0.4105  0.0030 -1.9304
 3491TIP3   OH231887   1.902   2.097  10.539  1.1712 -0.0135  0.4275
 3491TIP3    H131888   1.898   2.011  10.496  0.2761  1.2008 -2.0024
 3491TIP3    H231889   1.832   2.095  10.604  0.1769 -0.5950 -0.6480
 3492TIP3   OH231890   2.667   1.228  11.455 -0.4155  0.1782 -0.3203
 3492TIP3    H131891   2.731   1.177  11.405 -0.0986  1.7065 -1.5021
 3492TIP3    H231892   2.594   1.241  11.394 -1.5848 -0.9592  0.7925
 3493TIP3   OH231893   3.248   1.692  11.330 -0.0064  0.5901 -0.5181
 3493TIP3    H131894   3.199   1.632  11.274 -0.1523  2.5399 -2.5673
 3493TIP3    H231895   3.336   1.655  11.334 -0.0035  0.3876 -2.0240
 3494TIP3   OH231896   2.907   6.987  12.737  0.3144 -0.0618 -0.2144
 3494TIP3    H131897   2.951   6.902  12.744 -2.2864 -1.4881 -0.6549
 3494TIP3    H231898   2.867   6.987  12.650 -2.1596  0.3717  0.8746
 3495TIP3   OH231899   3.396   1.670  10.910 -0.0612  0.5856 -0.6258
 3495TIP3    H131900   3.343   1.741  10.945 -0.2027  0.9955 -1.6473
 3495TIP3    H231901   3.479   1.710  10.886  0.3055  0.1655 -0.0736
 3496TIP3   OH231902   1.486   5.930  12.526 -0.3003  0.2618  0.0335
 3496TIP3    H131903   1.431   5.855  12.501  0.1926  0.1383 -0.6790
 3496TIP3    H231904   1.424   5.997  12.553 -0.9005  0.7105 -2.3612
 3497TIP3   OH231905   2.197   0.439  12.060 -0.4080 -0.4192 -0.0871
 3497TIP3    H131906   2.112   0.436  12.016 -0.8763  0.4372  0.7355
 3497TIP3    H231907   2.228   0.348  12.059 -1.3603 -0.7465 -0.3450
 3498TIP3   OH231908   1.743   7.200  10.471  0.4706  0.3455  0.2814
 3498TIP3    H131909   1.725   7.128  10.411 -1.2076  0.7622  0.2660
 3498TIP3    H231910   1.816   7.169  10.525 -0.8716 -1.7638  0.9216
 3499TIP3   OH231911   2.800   0.531  13.943  0.1040 -0.1517  0.2431
 3499TIP3    H131912   2.857   0.603  13.973 -0.3372 -0.7101  2.4972
 3499TIP3    H231913   2.858   0.455  13.939 -0.6762 -1.0152  3.7847
 3500TIP3   OH231914   1.411   0.133  14.191  0.2467 -0.2085 -0.3573
 3500TIP3    H131915   1.343   0.158  14.129  1.2417 -0.4830 -1.5722
 3500TIP3    H231916   1.402   0.039  14.201  0.8076 -0.3225 -0.9432
 3501TIP3   OH231917   3.210   0.458  12.735  0.0153  0.2040  0.0433
 3501TIP3    H131918   3.179   0.442  12.824  0.5197  2.6551  0.6966
 3501TIP3    H231919   3.299   0.491  12.747  0.4425 -0.3924 -1.4406
 3502TIP3   OH231920   2.549   0.729  12.014  0.7274 -0.0019  0.5088
 3502TIP3    H131921   2.531   0.715  11.921 -0.0883  2.8997  0.1778
 3502TIP3    H231922   2.498   0.662  12.059  1.4813 -1.7086 -1.1412
 3503TIP3   OH231923   2.497   7.293  11.260 -0.0936  0.0095 -0.1349
 3503TIP3    H131924   2.523   7.382  11.236  1.6334  0.4061  2.8946
 3503TIP3    H231925   2.405   7.302  11.285 -0.3192  0.6523 -1.1468
 3504TIP3   OH231926   1.576   0.721  13.486  0.6161  0.0808  0.1288
 3504TIP3    H131927   1.511   0.652  13.471 -0.1533  0.9971 -0.8407
 3504TIP3    H231928   1.580   0.730  13.581 -3.5530  2.6838  0.1340
 3505TIP3   OH231929   0.518   2.861  13.944  0.4681  0.3507  0.5581
 3505TIP3    H131930   0.453   2.929  13.961  0.6055  0.4123  0.8370
 3505TIP3    H231931   0.598   2.909  13.922  0.0068  0.2693 -1.3428
 3506TIP3   OH231932   1.095   7.244  13.800  0.1410  0.1184  0.2980
 3506TIP3    H131933   1.099   7.178  13.869 -1.8060 -0.4843 -0.1301
 3506TIP3    H231934   1.005   7.278  13.805 -0.1071 -0.1149 -2.0924
 3507TIP3   OH231935   1.722   4.596  14.248  0.2108 -0.3658  0.6589
 3507TIP3    H131936   1.688   4.507  14.258  1.2048 -1.1365 -2.4408
 3507TIP3    H231937   1.813   4.585  14.222  0.9126  1.6210  2.0637
 3508TIP3   OH231938   1.046   6.250  14.646  0.0367  0.3846  0.3116
 3508TIP3    H131939   1.024   6.337  14.680  0.1783  0.4503  0.2387
 3508TIP3    H231940   0.977   6.231  14.582  0.9267  1.1820 -0.9324
 3509TIP3   OH231941   4.320   2.684  10.302  0.2230 -0.2440  0.3798
 3509TIP3    H131942   4.378   2.757  10.282  0.8746 -1.2639 -1.5907
 3509TIP3    H231943   4.247   2.693  10.241 -0.4032 -0.4412  1.0847
 3510TIP3   OH231944   2.186   1.902  10.384 -0.4618 -0.1960 -0.0417
 3510TIP3    H131945   2.184   1.846  10.306  2.5978 -0.2472 -0.1545
 3510TIP3    H231946   2.221   1.985  10.353 -2.4705  0.9548  0.6592
 3511TIP3   OH231947   1.695   6.966  10.335  0.1818  0.1584 -0.4548
 3511TIP3    H131948   1.600   6.969  10.337  0.2183  1.2531  0.1092
 3511TIP3    H231949   1.717   6.954  10.243 -0.4697  1.2815 -0.7621
 3512TIP3   OH231950   3.541   6.816  12.300 -0.3770  0.4060 -0.0521
 3512TIP3    H131951   3.511   6.891  12.351 -0.8066 -0.9036  1.6821
 3512TIP3    H231952   3.547   6.745  12.364 -0.4293 -1.1560 -1.7436
 3513TIP3   OH231953   2.040   0.623  13.769  0.0861  0.4402  0.8937
 3513TIP3    H131954   2.115   0.567  13.790  1.0956  0.8206 -1.5633
 3513TIP3    H231955   2.055   0.703  13.820  0.9540  0.2187  0.9863
 3514TIP3   OH231956   4.526   3.202  13.033  0.4264  0.3330  0.5391
 3514TIP3    H131957   4.506   3.164  12.947 -0.6532  0.2294  0.8394
 3514TIP3    H231958   4.581   3.136  13.076  0.1844 -0.0240  0.3001
 3515TIP3   OH231959   2.759   5.270  12.856  0.1470 -0.4321  0.7396
 3515TIP3    H131960   2.821   5.277  12.928  1.9485 -0.9899 -0.7231
 3515TIP3    H231961   2.814   5.265  12.778 -1.7654 -0.2079 -0.6395
 3516TIP3   OH231962   4.186   0.722  12.276  0.1838 -0.3989 -0.7440
 3516TIP3    H131963   4.151   0.635  12.295  0.0284 -0.2498 -0.3256
 3516TIP3    H231964   4.148   0.778  12.344  0.9096 -0.1555 -0.5340
 3517TIP3   OH231965   4.538   0.675  10.837  0.6809 -0.0468 -0.1490
 3517TIP3    H131966   4.623   0.671  10.792 -0.7427 -1.0438 -2.8518
 3517TIP3    H231967   4.493   0.749  10.796  0.2329  0.4684  1.2679
 3518TIP3   OH231968   2.608   7.232  11.653 -0.1547 -0.3298  0.7087
 3518TIP3    H131969   2.634   7.316  11.614  0.3751 -0.2714  1.1855
 3518TIP3    H231970   2.580   7.179  11.578 -0.5573  0.2931  0.4119
 3519TIP3   OH231971   3.571   1.096  12.053 -0.3692 -0.3085 -0.5085
 3519TIP3    H131972   3.658   1.075  12.088 -0.3660 -1.6503 -1.3156
 3519TIP3    H231973   3.552   1.184  12.088  0.6876 -0.6008  0.8445
 3520TIP3   OH231974   2.714   1.383  11.689  0.6571 -0.3261 -0.3126
 3520TIP3    H131975   2.739   1.314  11.751  2.8558 -1.2434 -2.1694
 3520TIP3    H231976   2.704   1.338  11.606 -0.1872  1.2519 -1.0795
 3521TIP3   OH231977   3.656   7.040  13.660  0.6731 -0.5855 -0.2292
 3521TIP3    H131978   3.601   7.101  13.709  0.9572 -0.4055 -0.1326
 3521TIP3    H231979   3.607   7.023  13.579  0.7946  0.1108 -0.4537
 3522TIP3   OH231980   2.242   0.582  13.237 -0.4604 -0.0554 -0.4446
 3522TIP3    H131981   2.311   0.612  13.178  1.2752 -1.9730  0.5477
 3522TIP3    H231982   2.200   0.663  13.267  0.6908  1.0937 -1.8120
 3523TIP3   OH231983   3.563   2.490  11.529  0.3015  0.2312 -0.1487
 3523TIP3    H131984   3.597   2.429  11.463 -0.6019 -0.4337 -0.0027
 3523TIP3    H231985   3.469   2.476  11.529  0.4038 -0.7153  2.2286
 3524TIP3   OH231986   2.367   0.063  13.172  0.0086  0.1509 -0.0578
 3524TIP3    H131987   2.456   0.039  13.145  0.1629  1.2623 -0.5729
 3524TIP3    H231988   2.372   0.157  13.189 -1.0346  0.1837  0.0888
 3525TIP3   OH231989   1.295   7.262  13.267  0.1796 -0.1516  0.2503
 3525TIP3    H131990   1.224   7.218  13.315 -0.3641  2.4481  1.9676
 3525TIP3    H231991   1.249   7.321  13.206  0.8578 -0.0100 -0.1232
 3526TIP3   OH231992   2.945   5.734  12.961  0.0591 -0.4622  0.0135
 3526TIP3    H131993   2.956   5.790  13.038  0.4252 -0.3989 -0.0809
 3526TIP3    H231994   2.851   5.721  12.953  0.1621 -3.2709  2.4839
 3527TIP3   OH231995   4.865   0.036  13.513  0.1979  0.8309  0.6892
 3527TIP3    H131996   4.822  -0.008  13.440  0.0398  1.6227  0.2996
 3527TIP3    H231997   4.869   0.128  13.487  2.3156  0.7400  0.6228
 3528TIP3   OH231998   0.961   6.104  11.839 -0.4937 -0.3983  0.2754
 3528TIP3    H131999   1.004   6.187  11.860  0.7930 -1.2330  1.0199
 3528TIP3    H232000   0.912   6.081  11.918 -1.1554 -0.1645 -0.0642
 3529TIP3   OH232001   3.880   7.178  13.639  0.4004  0.1033 -0.2923
 3529TIP3    H132002   3.813   7.116  13.668  1.4140 -0.4370  0.9983
 3529TIP3    H232003   3.953   7.122  13.611  0.8502  0.6911 -0.2951
 3530TIP3   OH232004   1.277   7.198  12.605 -0.5453 -0.1072  0.4304
 3530TIP3    H132005   1.210   7.183  12.672 -3.1062 -0.2043 -2.0241
 3530TIP3    H232006   1.268   7.291  12.583 -0.0492 -0.1804 -0.0784
 3531TIP3   OH232007   6.573   7.077  12.473  0.2395  0.2000 -0.0470
 3531TIP3    H132008   6.584   7.036  12.559  2.0188 -0.3833 -0.5314
 3531TIP3    H232009   6.503   7.141  12.485 -0.9872 -1.3688  1.2980
 3532TIP3   OH232010   5.028   5.831  12.522 -0.3810  0.3498 -0.2621
 3532TIP3    H132011   5.025   5.925  12.540  0.6460  0.4649 -0.6417
 3532TIP3    H232012   4.947   5.812  12.475 -0.3045  1.1585 -0.7165
 3533TIP3   OH232013   0.274   6.317  13.324 -0.3305 -1.0580 -0.9011
 3533TIP3    H132014   0.327   6.380  13.275  1.5074 -1.9704 -0.1380
 3533TIP3    H232015   0.338   6.267  13.376 -1.9814 -1.8943  0.3797
 3534TIP3   OH232016   1.554   7.235  13.276 -0.2241 -0.0478  0.4472
 3534TIP3    H132017   1.463   7.264  13.275 -0.6881 -1.4607  0.3804
 3534TIP3    H232018   1.597   7.293  13.339 -1.1521  0.6479  0.4532
 3535TIP3   OH232019   6.286   0.989  12.212  0.1401  0.7491  0.3063
 3535TIP3    H132020   6.355   1.044  12.172 -0.4621 -0.0300 -1.9002
 3535TIP3    H232021   6.296   0.904  12.168 -2.5150  0.7619 -0.3655
 3536TIP3   OH232022   5.004   1.236  11.609  0.1588 -0.0024  0.2213
 3536TIP3    H132023   5.003   1.330  11.625 -0.2218 -0.1642  1.2238
 3536TIP3    H232024   4.918   1.217  11.570 -0.3560 -0.1491  1.4004
 3537TIP3   OH232025   2.724   1.155  12.157 -0.0059 -0.0528  0.0845
 3537TIP3    H132026   2.804   1.175  12.205  0.2364 -2.2021  0.6139
 3537TIP3    H232027   2.654   1.192  12.209  0.6195  1.6995 -0.2963
 3538TIP3   OH232028   4.040   0.468  12.363  0.6973  0.1906  0.0601
 3538TIP3    H132029   4.045   0.453  12.457  3.4742 -1.6131 -0.3300
 3538TIP3    H232030   3.965   0.416  12.334  1.3531 -1.2684  0.9200
 3539TIP3   OH232031   2.018   6.276  13.116 -0.1177 -0.5936 -0.2249
 3539TIP3    H132032   1.927   6.251  13.133 -0.2379 -0.2889 -0.3968
 3539TIP3    H232033   2.068   6.196  13.127 -0.3581 -0.6790  0.2595
 3540TIP3   OH232034   0.746   0.597  11.056  0.1373  0.1910  0.2789
 3540TIP3    H132035   0.840   0.589  11.043 -0.0971  0.8384 -1.9531
 3540TIP3    H232036   0.717   0.507  11.072  1.0670 -0.0640  0.5814
 3541TIP3   OH232037   2.738   0.877  12.644 -0.0945 -0.2914 -0.5180
 3541TIP3    H132038   2.733   0.880  12.739 -1.2959 -0.2703 -0.5812
 3541TIP3    H232039   2.647   0.876  12.614  0.1977 -4.3474 -1.5366
 3542TIP3   OH232040   1.144   1.909  12.720 -0.3341  0.0115  1.1561
 3542TIP3    H132041   1.059   1.955  12.715 -0.2279  0.0824 -0.4051
 3542TIP3    H232042   1.198   1.965  12.776 -0.8168  0.8147  0.8321
 3543TIP3   OH232043   3.229   1.491  12.302  0.1487  0.1737 -0.2776
 3543TIP3    H132044   3.270   1.449  12.378 -3.8163 -0.7136  1.4878
 3543TIP3    H232045   3.249   1.584  12.313  1.6312 -0.2260  0.5618
 3544TIP3   OH232046   3.693   0.072  13.497 -0.5730  0.0037  0.4889
 3544TIP3    H132047   3.772   0.018  13.497 -0.2614  0.4565  1.6198
 3544TIP3    H232048   3.666   0.075  13.588 -1.3817  0.6137  0.2315
 3545TIP3   OH232049   2.767   1.625  12.927  0.3853 -0.1672 -0.1716
 3545TIP3    H132050   2.706   1.678  12.976  1.0110 -0.8891  1.4228
 3545TIP3    H232051   2.723   1.540  12.917 -0.2673  0.3752 -1.9798
 3546TIP3   OH232052   2.720   2.281  12.268 -0.0068 -0.7036  0.9809
 3546TIP3    H132053   2.682   2.368  12.259 -0.4277 -0.9080  0.7587
 3546TIP3    H232054   2.650   2.221  12.240 -0.9083 -1.2926  4.2514
 3547TIP3   OH232055   2.663   1.380  12.473  0.0604 -0.6944  0.2026
 3547TIP3    H132056   2.597   1.367  12.540  0.4892 -2.2826  0.3382
 3547TIP3    H232057   2.621   1.351  12.392  0.1827 -0.5510  0.0860
 3548TIP3   OH232058   3.782   0.848  11.058  0.1042  0.8177  0.4081
 3548TIP3    H132059   3.876   0.865  11.055  0.4666 -0.7044  2.1528
 3548TIP3    H232060   3.758   0.836  10.966  2.2559 -1.8465  0.1073
 3549TIP3   OH232061   2.404   2.262  13.001 -0.8410  0.3887  0.1079
 3549TIP3    H132062   2.415   2.352  13.031 -0.7199  0.1596  0.7582
 3549TIP3    H232063   2.457   2.210  13.061 -0.2326 -0.0313 -0.7713
 3550TIP3   OH232064   7.111   0.217  13.037 -0.1643 -0.3201  0.5608
 3550TIP3    H132065   7.027   0.206  13.082 -0.0989 -2.1454  0.2930
 3550TIP3    H232066   7.128   0.311  13.039 -1.7409 -0.0435  1.4806
 3551TIP3   OH232067   1.578   6.571  13.393  0.1566  1.0448  0.0641
 3551TIP3    H132068   1.530   6.493  13.366 -0.4872  1.9999 -1.5885
 3551TIP3    H232069   1.626   6.598  13.315  0.9363  1.8908  0.8295
 3552TIP3   OH232070   2.114   1.405  13.540  0.0199 -0.4295 -0.7593
 3552TIP3    H132071   2.075   1.357  13.467 -0.3781 -0.8868 -0.2453
 3552TIP3    H232072   2.054   1.478  13.555 -0.3545 -0.8264 -0.3229
 3553TIP3   OH232073   7.185   1.082  14.418  0.5153  0.1930  0.6388
 3553TIP3    H132074   7.175   0.996  14.461  2.0527  0.0889  0.8215
 3553TIP3    H232075   7.096   1.116  14.413 -0.0951 -1.3067  0.8020
 3554TIP3   OH232076   1.714   0.318  13.603  0.2546  0.2013  0.0602
 3554TIP3    H132077   1.682   0.307  13.513 -0.8037 -0.8248  0.5531
 3554TIP3    H232078   1.756   0.404  13.603  0.7550 -0.0214 -1.5587
 3555TIP3   OH232079   4.496   0.717  14.169  0.2152 -0.5623 -0.0312
 3555TIP3    H132080   4.467   0.672  14.090  1.4153 -0.8108 -0.3425
 3555TIP3    H232081   4.541   0.649  14.220 -0.4837 -0.3851  0.8231
 3556TIP3   OH232082   3.156   1.007  11.494 -0.0243 -0.6009 -0.0436
 3556TIP3    H132083   3.174   0.962  11.577  0.3694  0.1618  0.2860
 3556TIP3    H232084   3.202   0.954  11.429 -1.6601 -2.1396 -0.0181
 3557TIP3   OH232085   3.240   7.158  14.380  0.2358 -0.1564 -0.0321
 3557TIP3    H132086   3.147   7.158  14.358  0.0589  0.1670  0.7110
 3557TIP3    H232087   3.244   7.115  14.466  0.6796  0.5902  0.3242
 3558TIP3   OH232088   2.150   0.833  10.389  0.0789  0.9507 -0.2710
 3558TIP3    H132089   2.244   0.836  10.373  0.5004  1.1330  2.0587
 3558TIP3    H232090   2.118   0.919  10.361  1.1920  2.2018  2.1627
 3559TIP3   OH232091   4.235   0.969  12.898 -0.5447 -0.2284 -0.4706
 3559TIP3    H132092   4.275   1.019  12.969 -1.9012 -0.7082  0.6429
 3559TIP3    H232093   4.295   0.895  12.884  1.4902  1.6500 -2.1517
 3560TIP3   OH232094   2.472   7.154  12.590 -0.1705 -0.4233 -0.5683
 3560TIP3    H132095   2.382   7.135  12.561 -0.3068  0.0763 -0.4678
 3560TIP3    H232096   2.516   7.181  12.510  0.2224 -1.8503 -0.8581
 3561TIP3   OH232097   1.251   2.391  13.265 -0.1989 -0.1752 -0.0515
 3561TIP3    H132098   1.158   2.412  13.259 -0.0437  0.4695 -0.1832
 3561TIP3    H232099   1.254   2.313  13.320 -0.8053 -0.1162  0.0689
 3562TIP3   OH232100   0.146   0.502  12.595  0.3044  0.0774  0.0695
 3562TIP3    H132101   0.165   0.543  12.511 -1.2196  0.4707 -0.1003
 3562TIP3    H232102   0.125   0.575  12.653  0.6082 -0.2481  0.5971
 3563TIP3   OH232103   0.956   1.506  13.310  0.4905 -0.6631  0.1998
 3563TIP3    H132104   0.921   1.531  13.396  0.2885  0.5750 -0.2319
 3563TIP3    H232105   0.879   1.494  13.255  0.6433 -0.7650  0.0084
 3564TIP3   OH232106   3.240   2.446  11.794  0.4062  0.3155  0.0665
 3564TIP3    H132107   3.327   2.407  11.799  0.2845  0.3541  3.9426
 3564TIP3    H232108   3.180   2.372  11.806  0.0318  0.8469  1.5532
 3565TIP3   OH232109   4.267   2.214  12.261  0.3890 -0.0719  0.1986
 3565TIP3    H132110   4.183   2.216  12.306 -0.1790  1.1984 -0.8968
 3565TIP3    H232111   4.324   2.161  12.318 -0.8842 -0.1869  1.3780
 3566TIP3   OH232112   1.173   6.847  13.804 -0.3718 -0.0683 -0.6326
 3566TIP3    H132113   1.126   6.893  13.735  0.3262  1.0784 -0.3555
 3566TIP3    H232114   1.144   6.756  13.796  0.9233 -0.2742 -3.4768
 3567TIP3   OH232115   3.077   4.994  12.970  0.4453 -0.2224  0.0358
 3567TIP3    H132116   3.039   4.995  12.882 -1.0656  0.1433  0.6740
 3567TIP3    H232117   3.115   4.907  12.979 -1.4726 -1.0940 -0.1190
 3568TIP3   OH232118   2.070   1.317  12.010  0.8774  0.3368  0.5011
 3568TIP3    H132119   2.062   1.391  12.070  0.1765  0.5554  0.1483
 3568TIP3    H232120   1.998   1.328  11.948  0.0568 -1.2561  1.1180
 3569TIP3   OH232121   2.099   6.753  12.525  0.2394 -0.7226  0.0949
 3569TIP3    H132122   2.042   6.682  12.497 -0.7463 -0.0373  0.3374
 3569TIP3    H232123   2.097   6.748  12.621  1.3564 -1.2920  0.0997
 3570TIP3   OH232124   1.528   1.953  12.319  0.3390 -0.6181  0.0094
 3570TIP3    H132125   1.436   1.952  12.342  0.3921 -0.1891  0.2376
 3570TIP3    H232126   1.570   1.899  12.385  0.7580  2.1434  2.0545
 3571TIP3   OH232127   4.735   0.678  12.519  0.1304  0.1780 -0.3433
 3571TIP3    H132128   4.766   0.694  12.430  1.6088  0.0619  0.1337
 3571TIP3    H232129   4.709   0.764  12.551 -0.5042  0.2043 -0.9178
 3572TIP3   OH232130   3.911   1.431  12.566  0.1930  0.0866  0.8768
 3572TIP3    H132131   3.852   1.433  12.490  1.1950 -3.4300 -0.0758
 3572TIP3    H232132   3.994   1.464  12.532  0.9755 -2.6001  0.0588
 3573TIP3   OH232133   3.599   2.495  14.622 -0.2660 -0.0874  0.3375
 3573TIP3    H132134   3.642   2.451  14.695  0.0084  1.3962  1.0962
 3573TIP3    H232135   3.513   2.518  14.656 -1.2415 -1.9870 -0.7863
 3574TIP3   OH232136   4.953   5.956  13.623 -0.5478  0.2725  0.1841
 3574TIP3    H132137   4.876   5.993  13.579 -1.6145 -1.8080  0.2430
 3574TIP3    H232138   4.997   5.905  13.555  0.5664  1.0836  0.2736
 3575TIP3   OH232139   3.532   0.812  12.586 -0.6881 -0.3780 -0.5754
 3575TIP3    H132140   3.521   0.869  12.510  4.5352 -1.6796 -2.5057
 3575TIP3    H232141   3.570   0.868  12.654 -0.3611 -0.3992 -0.7396
 3576TIP3   OH232142   4.580   2.306  12.959 -0.6943  0.6819 -0.4682
 3576TIP3    H132143   4.604   2.341  13.045 -1.7431  0.8380 -0.2304
 3576TIP3    H232144   4.503   2.252  12.976  0.4286 -1.1502 -0.9492
 3577TIP3   OH232145   3.213   6.920  14.041 -0.0678  0.3820  0.6351
 3577TIP3    H132146   3.207   6.908  14.136 -1.2984  1.0223  0.6410
 3577TIP3    H232147   3.197   6.833  14.005 -2.6052  0.6870  0.9192
 3578TIP3   OH232148   5.511   0.293  13.886  0.2316 -0.2020  0.0285
 3578TIP3    H132149   5.563   0.213  13.895 -0.7957 -0.8596  0.2570
 3578TIP3    H232150   5.490   0.297  13.792 -0.5254 -0.7354  0.1663
 3579TIP3   OH232151   3.538   0.302  14.579 -0.3442  0.6661 -0.4978
 3579TIP3    H132152   3.444   0.283  14.573 -0.5799  1.1369  1.2495
 3579TIP3    H232153   3.543   0.396  14.592  0.1802  0.3216  2.1621
 3580TIP3   OH232154   4.754   0.742  14.588  0.5783  0.8153  0.1008
 3580TIP3    H132155   4.668   0.746  14.547  0.3807  1.5727  0.5903
 3580TIP3    H232156   4.814   0.774  14.520  0.1059  3.2761  0.7979
 3581TIP3   OH232157   4.679   1.769  12.534 -0.2161  0.2348 -0.5164
 3581TIP3    H132158   4.699   1.856  12.499 -1.2456  0.2934 -0.9670
 3581TIP3    H232159   4.586   1.757  12.516 -0.5392 -0.1384  1.3241
 3582TIP3   OH232160   5.074   0.701  12.423 -0.4716  0.0013  0.2633
 3582TIP3    H132161   5.106   0.736  12.506  0.7646 -1.3594  0.3917
 3582TIP3    H232162   5.074   0.776  12.363 -0.1069  0.7054  1.1368
 3583TIP3   OH232163   5.550   0.040  10.237  0.2775 -0.3449  0.0480
 3583TIP3    H132164   5.584   0.041  10.326  0.3283 -2.6791  0.0879
 3583TIP3    H232165   5.598  -0.031  10.194 -2.2560 -1.5984 -0.7944
 3584TIP3   OH232166   3.640   2.653  11.270  0.7091 -0.0287 -0.5457
 3584TIP3    H132167   3.715   2.666  11.327 -0.7595 -0.7753  1.6079
 3584TIP3    H232168   3.564   2.663  11.327 -0.7614 -2.7680 -1.9001
 3585TIP3   OH232169   4.884   2.353  12.059  0.0350 -0.1390 -0.7146
 3585TIP3    H132170   4.863   2.269  12.100 -0.1171 -0.0904 -0.6929
 3585TIP3    H232171   4.978   2.348  12.042 -0.0027 -0.3851 -0.8711
 3586TIP3   OH232172   5.430   7.242  15.329 -0.8719 -0.0786 -0.5974
 3586TIP3    H132173   5.418   7.217  15.237 -0.7521  0.6040 -0.8006
 3586TIP3    H232174   5.517   7.209  15.351 -0.9812 -0.4188 -0.6721
 3587TIP3   OH232175   3.151   0.178  15.259  0.1005 -0.0483  0.4342
 3587TIP3    H132176   3.240   0.146  15.272  0.1669 -1.1730 -2.5372
 3587TIP3    H232177   3.111   0.115  15.200 -2.1549  1.3640  0.3951
 3588TIP3   OH232178   5.619   2.921  12.565  0.2385 -0.6157  0.0029
 3588TIP3    H132179   5.690   2.886  12.618 -1.3216 -2.4362  0.9347
 3588TIP3    H232180   5.545   2.928  12.626 -0.7934 -0.1524 -1.2907
 3589TIP3   OH232181   3.892   7.070  12.673  0.4733  0.7889  0.3531
 3589TIP3    H132182   3.972   7.052  12.723 -0.5147  1.4208  2.2506
 3589TIP3    H232183   3.841   6.990  12.681  1.3610 -0.0006 -1.7683
 3590TIP3   OH232184   5.358   1.426  13.541  0.0662 -0.2559 -0.1660
 3590TIP3    H132185   5.352   1.381  13.457 -0.3388 -0.9450  0.2270
 3590TIP3    H232186   5.267   1.434  13.570  0.2605 -0.8322  0.6252
 3591TIP3   OH232187   4.942   1.195  12.448  0.1344 -0.4724  0.6996
 3591TIP3    H132188   4.901   1.121  12.492  0.1218 -0.5323  0.5867
 3591TIP3    H232189   5.032   1.167  12.430 -0.1591 -0.8382 -0.2443
 3592TIP3   OH232190   3.927   0.250  14.340  0.3384  0.0389  0.3502
 3592TIP3    H132191   4.018   0.224  14.354 -0.1200 -0.5897  2.2769
 3592TIP3    H232192   3.894   0.185  14.278  0.7309 -0.7721  0.9692
 3593TIP3   OH232193   5.300   2.739  12.957  0.2282 -0.0191 -0.3095
 3593TIP3    H132194   5.229   2.676  12.967 -0.3594  1.0192  2.6847
 3593TIP3    H232195   5.290   2.799  13.032  1.9744  2.4169 -1.9364
 3594TIP3   OH232196   5.968   3.856  12.217 -0.8159  1.1345  0.0566
 3594TIP3    H132197   6.006   3.902  12.142 -1.6992  2.6254  0.5131
 3594TIP3    H232198   6.029   3.784  12.233  0.9290  2.4802 -0.2943
 3595TIP3   OH232199   3.771   1.962  12.813 -0.0227  0.2562  0.0678
 3595TIP3    H132200   3.737   1.963  12.723 -0.0387 -1.7665  0.0479
 3595TIP3    H232201   3.703   1.919  12.864  0.7995 -0.2602  0.7279
 3596TIP3   OH232202   2.785   6.671  14.958 -0.1651 -0.1414 -0.3012
 3596TIP3    H132203   2.823   6.594  14.917  2.5811  0.8978  0.1465
 3596TIP3    H232204   2.799   6.657  15.052 -0.6101  0.4003 -0.1547
 3597TIP3   OH232205   5.485   0.396  11.414 -0.3660 -0.0974 -0.0157
 3597TIP3    H132206   5.509   0.305  11.396  0.5531  0.3927 -1.3845
 3597TIP3    H232207   5.402   0.390  11.462 -0.2726 -1.6500 -0.0120
 3598TIP3   OH232208   5.296   2.176  10.485 -0.3279  0.2839  0.1865
 3598TIP3    H132209   5.381   2.219  10.495  0.0060 -0.2109 -0.4839
 3598TIP3    H232210   5.314   2.083  10.497 -0.5514  0.0467 -1.2263
 3599TIP3   OH232211   4.027   1.503  14.831 -0.3856 -0.2037  0.2072
 3599TIP3    H132212   4.106   1.453  14.851  0.8483  1.7790  0.3870
 3599TIP3    H232213   3.956   1.452  14.870  1.1181 -0.5178  2.6084
 3600TIP3   OH232214   5.054   2.019  10.333 -0.7089  0.4134 -0.0374
 3600TIP3    H132215   5.111   1.943  10.319  0.3234  1.6141 -2.9014
 3600TIP3    H232216   5.097   2.070  10.401 -0.7154 -0.8976  0.9601
 3601TIP3   OH232217   3.877   7.118  12.142  0.3590  0.0576 -0.3977
 3601TIP3    H132218   3.844   7.116  12.232 -0.3282  2.4891 -0.5771
 3601TIP3    H232219   3.905   7.028  12.126 -2.9031 -1.3060  1.0124
 3602TIP3   OH232220   6.427   3.002  10.703  0.3244  0.0255 -0.3882
 3602TIP3    H132221   6.410   3.096  10.706 -1.5265 -0.3045 -0.3113
 3602TIP3    H232222   6.383   2.967  10.780 -1.1160 -1.2373 -1.7716
 3603TIP3   OH232223   4.903   2.587  13.403  0.2831  0.2622 -0.7641
 3603TIP3    H132224   4.919   2.518  13.340 -0.9302  0.6889 -1.5600
 3603TIP3    H232225   4.837   2.551  13.462  0.1553  0.4856 -0.7702
 3604TIP3   OH232226   6.492   1.670  11.476  0.0567 -0.0566 -0.1064
 3604TIP3    H132227   6.437   1.605  11.433  0.5569 -1.0512  0.7404
 3604TIP3    H232228   6.464   1.754  11.439 -2.3533 -0.4889  0.6469
 3605TIP3   OH232229   1.408   2.266  12.072  0.3490  0.4415  0.0931
 3605TIP3    H132230   1.481   2.207  12.053 -0.3636 -0.8594  1.2817
 3605TIP3    H232231   1.371   2.286  11.986  0.5887 -0.8737 -0.3307
 3606TIP3   OH232232   4.023   1.084  11.134 -0.4076 -0.0668 -0.3139
 3606TIP3    H132233   4.066   1.004  11.166 -0.5254 -0.0691 -0.1593
 3606TIP3    H232234   4.094   1.134  11.093  0.3131  1.1730  2.3158
 3607TIP3   OH232235   3.927   0.499  11.933  0.4761  0.1673 -0.2642
 3607TIP3    H132236   3.886   0.526  12.016  0.4837  0.2905 -0.3000
 3607TIP3    H232237   4.009   0.548  11.931  0.5197  0.0923 -0.3000
 3608TIP3   OH232238   3.776   1.854  11.909  0.0104 -0.4439  0.5273
 3608TIP3    H132239   3.718   1.877  11.982 -0.5307  1.5885 -0.5386
 3608TIP3    H232240   3.718   1.845  11.834  0.8920 -0.0543 -0.1977
 3609TIP3   OH232241   5.002   2.025   0.766  0.2072  0.1174  0.0688
 3609TIP3    H132242   4.985   1.933   0.788  0.5824  0.1266  0.3976
 3609TIP3    H232243   4.916   2.066   0.768  0.3601  0.4006  2.7785
 3610TIP3   OH232244   4.347   1.650  11.284  0.0902 -0.1969 -0.7926
 3610TIP3    H132245   4.435   1.619  11.305 -0.6167 -0.8028  1.4530
 3610TIP3    H232246   4.332   1.620  11.194  1.3845 -1.9354 -0.4629
 3611TIP3   OH232247   4.430   1.719  12.334 -0.1315  0.0722 -0.0096
 3611TIP3    H132248   4.433   1.692  12.426  1.8380 -1.2642 -0.4327
 3611TIP3    H232249   4.345   1.763  12.325 -0.3280  0.3100  2.4524
 3612TIP3   OH232250   3.348   2.388  12.812 -0.2779  0.5204  0.0138
 3612TIP3    H132251   3.275   2.420  12.864 -0.0358  1.3763 -0.1669
 3612TIP3    H232252   3.308   2.330  12.747 -0.5382 -0.8757  1.3790
 3613TIP3   OH232253   5.540   0.914  15.417 -0.5572  0.5394  0.1487
 3613TIP3    H132254   5.510   0.975  15.485 -2.3121 -0.1717  0.0246
 3613TIP3    H232255   5.635   0.911  15.428 -0.8710 -0.1774  3.1274
 3614TIP3   OH232256   6.331   3.475  12.050  0.2901 -0.6436 -0.0224
 3614TIP3    H132257   6.336   3.529  12.129  1.6913 -3.0757  1.6066
 3614TIP3    H232258   6.364   3.532  11.980 -1.4985  1.7225  0.9953
 3615TIP3   OH232259   6.268   5.612  12.123 -0.2215  0.0249  0.2022
 3615TIP3    H132260   6.362   5.597  12.117 -0.2390  0.6991 -1.9809
 3615TIP3    H232261   6.260   5.705  12.145 -0.4151  0.7645 -2.8646
 3616TIP3   OH232262   4.521   3.394  10.987  0.0483 -0.1685 -0.9325
 3616TIP3    H132263   4.476   3.478  10.993  2.1477  0.8177  1.9270
 3616TIP3    H232264   4.578   3.392  11.064  1.1946 -3.5339 -1.8050
 3617TIP3   OH232265   5.099   1.185  13.788  0.0685 -0.0301  0.0543
 3617TIP3    H132266   5.098   1.129  13.711 -0.0129 -0.3972  0.3247
 3617TIP3    H232267   5.079   1.127  13.861  0.0954  0.3268  0.3482
 3618TIP3   OH232268   5.339   2.715  11.381 -0.4267 -0.9172 -0.1310
 3618TIP3    H132269   5.272   2.777  11.412  0.6889 -0.8420  2.2735
 3618TIP3    H232270   5.291   2.633  11.370 -1.4833 -0.1798 -1.2740
 3619TIP3   OH232271   0.037   2.804  12.967 -0.3373 -0.0083  0.1841
 3619TIP3    H132272   0.019   2.894  12.994 -2.5925 -0.4153  0.0959
 3619TIP3    H232273   0.129   2.791  12.989  0.5998  2.9856 -1.7311
 3620TIP3   OH232274   4.113   0.557  13.351 -0.6112 -0.4518 -0.6292
 3620TIP3    H132275   4.048   0.612  13.396 -1.3275 -1.8878  0.1230
 3620TIP3    H232276   4.075   0.469  13.353  0.0871 -0.8224 -2.6442
 3621TIP3   OH232277   3.286   0.873  14.435 -0.0858  0.1665 -0.2513
 3621TIP3    H132278   3.264   0.820  14.359  0.1148  0.5772 -0.5950
 3621TIP3    H232279   3.291   0.963  14.402  2.3741  0.0575 -0.2597
 3622TIP3   OH232280   3.698   0.570  12.873  0.0871 -0.2921  0.0975
 3622TIP3    H132281   3.705   0.475  12.862 -0.7425 -0.1361 -2.0976
 3622TIP3    H232282   3.789   0.600  12.877  0.3594 -1.1449  0.4997
 3623TIP3   OH232283   4.335   0.564  10.234  0.1313  0.1226 -0.4972
 3623TIP3    H132284   4.323   0.551  10.328 -0.1325 -3.1175 -0.9228
 3623TIP3    H232285   4.345   0.659  10.224 -1.6529  0.7126  2.5817
 3624TIP3   OH232286   4.749   1.382  12.473  0.6138  1.1253  0.1076
 3624TIP3    H132287   4.810   1.310  12.457 -0.7539 -0.2669  1.0232
 3624TIP3    H232288   4.805   1.457  12.493  2.0310 -0.0216  0.5200
 3625TIP3   OH232289   5.326   1.432  11.832  0.7169 -0.2809  0.0463
 3625TIP3    H132290   5.415   1.401  11.818 -0.1511 -2.9393  0.1280
 3625TIP3    H232291   5.284   1.427  11.746  0.5050  0.5783  0.0890
 3626TIP3   OH232292   3.679   0.033  14.508 -0.6418 -0.1284  0.2257
 3626TIP3    H132293   3.659  -0.003  14.422 -0.6858 -1.2259  0.6823
 3626TIP3    H232294   3.614   0.102  14.521 -1.5333 -0.9077 -0.0333
 3627TIP3   OH232295   4.994   0.771  13.962  0.2079  0.0575  0.6635
 3627TIP3    H132296   5.001   0.676  13.963  0.1136  0.0510  0.7082
 3627TIP3    H232297   5.037   0.799  14.043 -0.2244  0.0212  0.9084
 3628TIP3   OH232298   4.427   0.963  12.320 -0.4154  0.1077 -0.6414
 3628TIP3    H132299   4.457   1.044  12.280  1.0733 -0.3204 -0.4419
 3628TIP3    H232300   4.422   0.901  12.247  2.4687 -0.7204 -0.1788
 3629TIP3   OH232301   6.541   2.315  12.890  0.2410 -0.1670  0.1117
 3629TIP3    H132302   6.541   2.405  12.920  3.2524  0.3437 -1.2334
 3629TIP3    H232303   6.545   2.262  12.970 -1.6668  0.8513  0.9055
 3630TIP3   OH232304   6.284   1.411  10.493 -0.4465  0.1488 -0.1394
 3630TIP3    H132305   6.334   1.395  10.413 -0.7569 -0.2873 -0.2527
 3630TIP3    H232306   6.252   1.324  10.519 -0.5498  0.3230  0.3210
 3631TIP3   OH232307   5.545   4.728  13.562 -0.2547 -0.4324 -0.2806
 3631TIP3    H132308   5.609   4.747  13.493  0.4540  0.5059  0.6200
 3631TIP3    H232309   5.541   4.808  13.613 -1.2307 -0.9241  0.4153
 3632TIP3   OH232310   4.656   6.751  13.921 -0.6506 -0.2019 -0.0570
 3632TIP3    H132311   4.620   6.735  14.009 -0.6973 -0.7344 -0.1723
 3632TIP3    H232312   4.590   6.804  13.878  0.0258  1.3004  0.7148
 3633TIP3   OH232313   2.241   1.092  11.333  0.4413 -0.1770 -0.3835
 3633TIP3    H132314   2.179   1.066  11.264 -0.3453  1.0184 -0.1406
 3633TIP3    H232315   2.210   1.177  11.362  1.6258 -0.0209  0.4553
 3634TIP3   OH232316   4.131   7.026  12.378  0.4104  0.0734  0.4574
 3634TIP3    H132317   4.053   6.996  12.331 -0.7735  0.5984  1.9988
 3634TIP3    H232318   4.188   6.950  12.383 -0.9376 -0.9150  1.1166
 3635TIP3   OH232319   5.898   1.602  12.968 -0.2827  0.1507  0.2865
 3635TIP3    H132320   5.815   1.635  12.934 -1.3707 -0.0275  2.7046
 3635TIP3    H232321   5.888   1.507  12.971  0.2201  0.0858  0.0499
 3636TIP3   OH232322   4.471   6.458  12.897 -0.2688 -0.2000  0.4080
 3636TIP3    H132323   4.457   6.537  12.948  0.8628  1.3447 -1.6109
 3636TIP3    H232324   4.431   6.476  12.812  4.1899  0.2010 -1.7665
 3637TIP3   OH232325   3.343   1.845  13.985 -0.6530  0.5868 -0.0751
 3637TIP3    H132326   3.386   1.761  13.969 -0.4517  0.4249  1.2324
 3637TIP3    H232327   3.285   1.829  14.060 -0.8224  1.5332  0.0111
 3638TIP3   OH232328   2.929   0.242  12.414 -0.3408  0.2243  0.3211
 3638TIP3    H132329   2.846   0.285  12.396 -0.2590  0.2827  0.0724
 3638TIP3    H232330   2.968   0.292  12.485 -1.6905 -1.3547  2.2238
 3639TIP3   OH232331   5.782   0.598  12.355  0.1945 -0.4606 -0.2764
 3639TIP3    H132332   5.860   0.654  12.349  0.6015 -1.0817 -0.8997
 3639TIP3    H232333   5.756   0.584  12.264  1.1690 -2.7555 -0.2420
 3640TIP3   OH232334   5.033   7.248  13.194 -0.1918 -0.4188 -0.0216
 3640TIP3    H132335   5.012   7.186  13.125 -0.7829 -1.4412  1.0509
 3640TIP3    H232336   4.949   7.265  13.237  0.3640 -0.8367  1.2751
 3641TIP3   OH232337   3.670   0.596  12.445 -0.3369 -0.4163 -0.2596
 3641TIP3    H132338   3.733   0.552  12.501  0.7501  0.3780 -0.8545
 3641TIP3    H232339   3.638   0.670  12.497  0.6792  0.3268 -0.6633
 3642TIP3   OH232340   6.381   1.188  13.392  0.3389  0.2144 -0.4345
 3642TIP3    H132341   6.433   1.108  13.388  0.1123  0.1082 -1.6581
 3642TIP3    H232342   6.297   1.164  13.352  0.7091  1.3760 -1.9779
 3643TIP3   OH232343   5.136   0.603  11.300  0.0070  0.0984  0.3066
 3643TIP3    H132344   5.176   0.682  11.264 -0.1740  0.4948  0.9649
 3643TIP3    H232345   5.063   0.584  11.242 -0.0163  0.4793  0.2113
 3644TIP3   OH232346   4.125   1.053  11.730  0.5971 -0.5354 -0.1716
 3644TIP3    H132347   4.055   1.008  11.681 -0.6464  0.8587  0.2851
 3644TIP3    H232348   4.203   0.999  11.715  0.0847 -0.5900 -3.0401
 3645TIP3   OH232349   4.546   0.371  12.950  0.2364 -0.1371  0.6120
 3645TIP3    H132350   4.485   0.408  12.887 -0.6279 -1.7464  0.4784
 3645TIP3    H232351   4.502   0.379  13.035  1.3122  1.8448  1.0074
 3646TIP3   OH232352   5.067   0.272  12.660  0.4729 -0.7990  0.8166
 3646TIP3    H132353   5.140   0.329  12.634  0.1515 -1.4536 -1.7128
 3646TIP3    H232354   5.103   0.218  12.730  2.3855 -0.9700 -0.2409
 3647TIP3   OH232355   6.910   1.887  13.092  0.1119 -0.1139  0.4348
 3647TIP3    H132356   6.984   1.829  13.074  1.2989  1.2394  0.9150
 3647TIP3    H232357   6.848   1.831  13.141  0.8297 -1.2247  0.0971
 3648TIP3   OH232358   5.849   6.566  14.799 -0.4790 -0.2112 -0.9253
 3648TIP3    H132359   5.780   6.547  14.736  0.2311 -1.4365 -1.3555
 3648TIP3    H232360   5.930   6.538  14.756  0.0787 -0.5850  0.3154
 3649TIP3   OH232361   2.708   2.894  12.149  0.9964 -0.0962  0.4941
 3649TIP3    H132362   2.701   2.806  12.113  1.6346  0.0709 -0.0538
 3649TIP3    H232363   2.620   2.915  12.180  0.9509 -1.1133  1.0735
 3650TIP3   OH232364   3.617   0.095  13.760 -0.9284 -0.1548  0.2240
 3650TIP3    H132365   3.543   0.089  13.820  0.0393 -1.2417  1.3469
 3650TIP3    H232366   3.681   0.149  13.806 -0.4344 -0.4604 -0.0932
 3651TIP3   OH232367   2.669   6.550  12.007  0.0988  0.1241 -0.5242
 3651TIP3    H132368   2.589   6.535  11.958 -1.5151 -0.4723  2.2250
 3651TIP3    H232369   2.672   6.645  12.021 -1.3188 -0.0805  1.2907
 3652TIP3   OH232370   3.705   0.498  13.520 -0.3158  0.1193  0.2206
 3652TIP3    H132371   3.655   0.555  13.463  0.5111  0.1175 -0.5209
 3652TIP3    H232372   3.774   0.554  13.555  1.0384 -0.6145 -1.2091
 3653TIP3   OH232373   6.825   6.668  11.770 -1.1749  0.5160 -0.1429
 3653TIP3    H132374   6.742   6.620  11.776 -0.4805 -0.6277  0.4872
 3653TIP3    H232375   6.855   6.653  11.681 -1.0656 -0.0419 -0.0123
 3654TIP3   OH232376   0.320   0.285  11.764  0.5787 -0.1074 -0.3670
 3654TIP3    H132377   0.254   0.228  11.723  1.5200  1.4086 -4.2819
 3654TIP3    H232378   0.293   0.373  11.740  1.0307  0.9289  2.7468
 3655TIP3   OH232379   5.161   2.906  12.501  0.4204  0.1027  0.2139
 3655TIP3    H132380   5.221   2.876  12.433 -0.6107  0.2729 -0.8014
 3655TIP3    H232381   5.134   2.827  12.546  0.5625 -0.0985 -0.0523
 3656TIP3   OH232382   4.934   6.640  12.161  0.5291  0.1060 -0.0937
 3656TIP3    H132383   4.933   6.548  12.186  0.7612  0.0125 -0.4329
 3656TIP3    H232384   4.857   6.678  12.205 -1.1383 -0.8146 -2.1321
 3657TIP3   OH232385   5.442   0.693  13.000  0.0012 -0.0147  0.8559
 3657TIP3    H132386   5.347   0.690  12.988 -0.2012  1.8427  1.8024
 3657TIP3    H232387   5.473   0.741  12.923  0.4148 -2.3708 -0.4979
 3658TIP3   OH232388   5.108   0.230  11.218  0.1623 -1.1131  0.0455
 3658TIP3    H132389   5.114   0.141  11.184  0.6666 -1.0124 -0.1353
 3658TIP3    H232390   5.183   0.275  11.179  0.7574 -1.0008  1.2953
 3659TIP3   OH232391   6.876   0.722  11.428 -0.4078  0.3072  0.3465
 3659TIP3    H132392   6.845   0.767  11.349 -0.2851 -0.0659  0.0804
 3659TIP3    H232393   6.796   0.693  11.472 -0.4333 -1.5655 -0.8850
 3660TIP3   OH232394   5.287   5.609  13.579 -0.4315 -0.0011 -0.2018
 3660TIP3    H132395   5.207   5.570  13.612 -0.4307 -0.7759 -1.0883
 3660TIP3    H232396   5.264   5.642  13.492  0.3218 -0.6287 -0.6442
 3661TIP3   OH232397   3.913   2.525  12.871 -0.1754  0.5029 -0.1344
 3661TIP3    H132398   3.830   2.502  12.912 -0.4821  0.2123 -0.9296
 3661TIP3    H232399   3.893   2.596  12.811  0.4613  1.6353  0.9710
 3662TIP3   OH232400   6.855   0.870  12.458 -0.5877 -0.1742  0.3157
 3662TIP3    H132401   6.941   0.893  12.424 -1.0455  1.0124 -0.0750
 3662TIP3    H232402   6.860   0.890  12.552  0.2126 -2.0715  0.6873
 3663TIP3   OH232403   7.227   6.830  13.418  0.3957  0.4137  0.1498
 3663TIP3    H132404   7.131   6.837  13.423  0.3561 -0.4489  0.6044
 3663TIP3    H232405   7.259   6.877  13.495  0.3812  1.4807 -0.4762
 3664TIP3   OH232406   3.938   1.469  11.992 -0.0502  0.3063  0.5343
 3664TIP3    H132407   3.992   1.548  11.981  0.3332 -0.1955 -1.4733
 3664TIP3    H232408   3.992   1.398  11.958 -1.3564 -0.4445 -0.0175
 3665TIP3   OH232409   3.718   2.371  12.275 -0.4594 -0.0703  0.4739
 3665TIP3    H132410   3.656   2.299  12.289  0.5155 -1.3521 -1.5330
 3665TIP3    H232411   3.794   2.329  12.234  1.4386  1.5992  2.1887
 3666TIP3   OH232412   3.341   1.034  12.522  0.0071  0.9306  0.0231
 3666TIP3    H132413   3.266   0.975  12.517 -0.1559  1.0103  1.2832
 3666TIP3    H232414   3.302   1.121  12.523  0.1311  0.9828  0.3365
 3667TIP3   OH232415   3.968   2.031  12.405  0.1625 -0.0112  0.0114
 3667TIP3    H132416   3.971   1.980  12.486  0.9938  1.4406  0.9167
 3667TIP3    H232417   3.935   1.970  12.339  0.8544 -1.6238  1.1330
 3668TIP3   OH232418   5.828   1.244  11.345 -0.5255  0.8668  0.0690
 3668TIP3    H132419   5.875   1.207  11.420 -2.0070  0.4107  0.7945
 3668TIP3    H232420   5.893   1.297  11.299 -0.0177  2.5721  2.6558
 3669TIP3   OH232421   3.925   2.831  14.282  0.5750 -0.1505  0.5633
 3669TIP3    H132422   3.874   2.838  14.201 -0.5276 -2.6223  1.0163
 3669TIP3    H232423   3.985   2.759  14.267 -0.1181 -1.0908  2.1890
 3670TIP3   OH232424   2.498   3.655  12.029  0.2592  0.1435 -0.0333
 3670TIP3    H132425   2.448   3.724  11.986  1.6830  0.9667 -0.4353
 3670TIP3    H232426   2.439   3.581  12.035 -1.3674  1.4610  0.5575
 3671TIP3   OH232427   3.428   0.904  13.574 -0.1541  0.1766 -0.1318
 3671TIP3    H132428   3.434   0.998  13.589 -0.9214  0.0171  1.3484
 3671TIP3    H232429   3.338   0.890  13.545  0.1849 -0.0071 -1.0983
 3672TIP3   OH232430   3.180   3.258  12.082 -0.2407 -0.0411 -0.0414
 3672TIP3    H132431   3.120   3.308  12.137 -0.7267  0.4665 -1.0161
 3672TIP3    H232432   3.124   3.190  12.043 -0.2226  0.5234 -1.0687
 3673TIP3   OH232433   3.287   0.182  14.306 -0.3600  0.0121  0.0648
 3673TIP3    H132434   3.344   0.114  14.341  0.1263 -0.0635 -0.8568
 3673TIP3    H232435   3.198   0.153  14.326 -0.1355 -0.7145 -0.0069
 3674TIP3   OH232436   5.640   0.545  12.851 -0.1510 -0.6654 -0.0714
 3674TIP3    H132437   5.587   0.566  12.928 -0.2749  0.3330 -0.4181
 3674TIP3    H232438   5.576   0.517  12.785 -0.4142  1.7433 -0.8970
 3675TIP3   OH232439   4.776   5.932  12.162  0.5821  0.1354  0.1454
 3675TIP3    H132440   4.714   5.926  12.090 -0.3489  1.7879  0.7782
 3675TIP3    H232441   4.859   5.957  12.120  0.2534  0.2413 -0.4414
 3676TIP3   OH232442   6.018   0.137  11.755  0.2478  0.0593  0.5352
 3676TIP3    H132443   6.056   0.202  11.695 -2.4221  1.0704 -0.1111
 3676TIP3    H232444   6.023   0.054  11.707 -3.3700  1.1260 -1.8444
 3677TIP3   OH232445   4.348   1.942  11.285 -0.1286 -0.5163  0.6519
 3677TIP3    H132446   4.330   1.848  11.296 -1.3820 -0.0279  3.0318
 3677TIP3    H232447   4.430   1.944  11.236 -0.3756 -2.8614  0.0464
 3678TIP3   OH232448   3.301   2.480  11.477  0.9131  0.2625  0.1074
 3678TIP3    H132449   3.253   2.435  11.408  1.6542  0.4661 -0.5496
 3678TIP3    H232450   3.239   2.543  11.513  0.6071  0.3335 -0.5446
 3679TIP3   OH232451   4.268   2.481  11.726 -0.2433 -0.2531  0.2306
 3679TIP3    H132452   4.224   2.460  11.644  0.7739 -0.4101 -0.2710
 3679TIP3    H232453   4.221   2.428  11.792  1.5913 -3.3945 -0.8582
 3680TIP3   OH232454   1.632   0.834  12.553  0.1101 -0.9077  0.0387
 3680TIP3    H132455   1.635   0.761  12.491 -0.9950 -0.5942 -0.3809
 3680TIP3    H232456   1.633   0.912  12.499 -0.7738 -0.6340  0.4117
 3681TIP3   OH232457   3.476   0.716  13.749 -0.0361  0.0870  0.4726
 3681TIP3    H132458   3.452   0.790  13.694  0.9857  1.1450  1.4265
 3681TIP3    H232459   3.455   0.639  13.696  0.1537  1.0652 -1.0698
 3682TIP3   OH232460   4.390   6.418  11.207 -0.0258 -0.2209 -0.5989
 3682TIP3    H132461   4.423   6.498  11.165  0.6457  0.2557  0.8017
 3682TIP3    H232462   4.378   6.443  11.298  2.3902 -2.3430  0.3696
 3683TIP3   OH232463   4.310   6.893  13.180  0.1743  0.4075  0.0346
 3683TIP3    H132464   4.271   6.811  13.212  0.8216  0.5820  1.3022
 3683TIP3    H232465   4.369   6.865  13.110  0.4567 -0.2287  0.5186
 3684TIP3   OH232466   3.831   7.268  12.949  0.2262  0.6606  0.0064
 3684TIP3    H132467   3.800   7.185  12.985  1.6621  0.3704  0.5626
 3684TIP3    H232468   3.926   7.260  12.945  0.4238  2.4883  0.5797
 3685TIP3   OH232469   5.224   1.073  11.475  0.3479  0.1392 -0.3780
 3685TIP3    H132470   5.246   1.013  11.547 -0.6171  0.6944  0.3819
 3685TIP3    H232471   5.142   1.115  11.502  0.8181  1.5399 -1.0761
 3686TIP3   OH232472   4.301   7.151  13.910 -0.5540  0.2616 -0.5416
 3686TIP3    H132473   4.370   7.192  13.859  1.7073 -1.3487  1.0851
 3686TIP3    H232474   4.242   7.223  13.934  1.3257  1.9190 -0.7713
 3687TIP3   OH232475   3.628   6.346  11.048  0.3753 -0.2244 -0.3075
 3687TIP3    H132476   3.711   6.312  11.016  0.2176 -0.2767 -0.6604
 3687TIP3    H232477   3.620   6.432  11.007  1.0057  0.4644  0.9594
 3688TIP3   OH232478   4.312   0.037  11.146 -0.6368  0.6767 -0.4452
 3688TIP3    H132479   4.342   0.011  11.234 -1.8620  0.6274 -0.0344
 3688TIP3    H232480   4.350   0.124  11.134  0.0597  0.4288 -0.1316
 3689TIP3   OH232481   3.527   0.298  13.391 -0.4623  0.1921  0.3020
 3689TIP3    H132482   3.550   0.210  13.418 -1.5598  0.5879  2.6726
 3689TIP3    H232483   3.591   0.355  13.434 -0.5882  0.6488 -0.0987
 3690TIP3   OH232484   6.304   6.500  13.788 -0.3296 -0.4197 -0.0783
 3690TIP3    H132485   6.310   6.547  13.871 -0.0485  0.9474 -0.8538
 3690TIP3    H232486   6.220   6.528  13.750 -0.6072 -1.2776 -0.1138
 3691TIP3   OH232487   3.758   1.557  11.801  0.6334 -0.2109 -0.4346
 3691TIP3    H132488   3.790   1.507  11.876 -0.2419 -0.3665 -0.1488
 3691TIP3    H232489   3.778   1.648  11.823  0.1599 -0.2306  0.1138
 3692TIP3   OH232490   4.247   2.354  14.929 -0.1471  0.0253 -0.3840
 3692TIP3    H132491   4.316   2.319  14.985  1.0190  2.0077 -0.5249
 3692TIP3    H232492   4.174   2.370  14.989  0.1722 -0.3210  0.1031
 3693TIP3   OH232493   6.498   3.380  11.474 -0.9844  0.3960  0.4552
 3693TIP3    H132494   6.424   3.321  11.464  0.8823 -1.6053 -2.1936
 3693TIP3    H232495   6.507   3.422  11.388  2.1863 -0.9411  0.0654
 3694TIP3   OH232496   5.632   6.936  10.802 -0.2667 -0.2183 -0.3176
 3694TIP3    H132497   5.702   6.880  10.767  0.2116  0.4172 -0.3922
 3694TIP3    H232498   5.596   6.887  10.876 -0.1902 -0.8503 -0.7032
 3695TIP3   OH232499   6.305   2.073  14.818 -0.1117  0.1490 -0.2915
 3695TIP3    H132500   6.216   2.101  14.836  0.1690 -0.3906  2.1029
 3695TIP3    H232501   6.359   2.126  14.876  0.9793 -0.6498 -0.5512
 3696TIP3   OH232502   3.571   1.448  13.181  0.1007  0.2036  0.0778
 3696TIP3    H132503   3.601   1.382  13.119 -0.3095 -0.5054  0.6276
 3696TIP3    H232504   3.475   1.442  13.178  0.0725  0.2400  0.6852
 3697TIP3   OH232505   3.731   2.705  12.715 -0.9590 -0.5003 -0.4087
 3697TIP3    H132506   3.693   2.792  12.705  0.0352  0.2000  1.5658
 3697TIP3    H232507   3.674   2.660  12.777 -0.2203 -0.4586  0.3134
 3698TIP3   OH232508   4.579   3.422  12.825 -0.2461 -0.4426  0.1517
 3698TIP3    H132509   4.590   3.368  12.746 -1.6283  0.2208 -0.5134
 3698TIP3    H232510   4.613   3.367  12.896 -1.1813 -2.0127 -0.5805
 3699TIP3   OH232511   3.884   3.077  14.454  0.1592  0.7573 -0.2370
 3699TIP3    H132512   3.978   3.078  14.472 -0.2757  0.4295  2.2578
 3699TIP3    H232513   3.871   3.000  14.398  0.8296 -1.8703  3.0211
 3700TIP3   OH232514   5.379   0.837  10.278  0.5112 -0.1388 -0.4176
 3700TIP3    H132515   5.430   0.804  10.352  3.7564  2.0792 -1.5479
 3700TIP3    H232516   5.393   0.773  10.208 -0.5526 -0.9542  0.0978
 3701TIP3   OH232517   6.532   1.736  13.303  0.2994 -0.2515  0.3584
 3701TIP3    H132518   6.510   1.646  13.327 -2.1046 -0.1780 -1.4419
 3701TIP3    H232519   6.450   1.784  13.312  1.3380  1.5634  0.3250
 3702TIP3   OH232520   5.723   2.453  11.014  0.4935  0.0899  0.3162
 3702TIP3    H132521   5.651   2.512  11.035  1.1343  0.5042  1.4000
 3702TIP3    H232522   5.683   2.366  11.010 -0.1283  0.3648  0.5308
 3703TIP3   OH232523   4.569   1.400  14.771 -0.2030 -0.0345 -0.5882
 3703TIP3    H132524   4.498   1.410  14.707 -2.6044  2.1625  2.2689
 3703TIP3    H232525   4.524   1.374  14.852  2.4162  0.2205  0.9925
 3704TIP3   OH232526   6.141   2.858  10.473 -0.3644  0.0544  0.0057
 3704TIP3    H132527   6.085   2.885  10.400 -0.8733 -0.5671  0.1512
 3704TIP3    H232528   6.083   2.859  10.549  0.0518  0.2756  0.3204
 3705TIP3   OH232529   4.131   0.804  14.647 -0.1564  0.1308  0.2971
 3705TIP3    H132530   4.043   0.772  14.627 -0.6153  0.1352  2.2514
 3705TIP3    H232531   4.182   0.725  14.664  0.8058 -0.0305 -2.8512
 3706TIP3   OH232532   4.171   0.869  14.968  0.1823  0.3308 -0.2846
 3706TIP3    H132533   4.261   0.838  14.977  0.5308  1.0561 -1.1890
 3706TIP3    H232534   4.149   0.904  15.055 -0.1531 -2.1995  0.7051
 3707TIP3   OH232535   3.725   0.688  13.878  0.2426  0.2675 -0.0219
 3707TIP3    H132536   3.638   0.695  13.840 -0.1156  0.9733  0.9209
 3707TIP3    H232537   3.778   0.750  13.829  0.7999 -1.8377 -2.1839
 3708TIP3   OH232538   4.179   1.451  12.432  0.0473  0.0510  0.4086
 3708TIP3    H132539   4.167   1.508  12.357  1.4896 -0.5565 -0.3049
 3708TIP3    H232540   4.240   1.498  12.489  0.9940 -0.6112 -0.0352
 3709TIP3   OH232541   6.717   6.464  13.855 -0.0749  0.5726 -0.9222
 3709TIP3    H132542   6.669   6.534  13.812  0.8216  2.0183  0.4124
 3709TIP3    H232543   6.748   6.502  13.937 -0.5501 -1.7218  0.3582
 3710TIP3   OH232544   3.431   6.414  14.596  0.4959 -0.1131  0.3429
 3710TIP3    H132545   3.449   6.431  14.688 -0.9086  1.7007  0.3218
 3710TIP3    H232546   3.417   6.501  14.558 -1.3555 -0.9866 -1.0446
 3711TIP3   OH232547   0.375   6.642  11.949 -0.1857 -0.9102  0.3632
 3711TIP3    H132548   0.352   6.701  11.877 -1.1339 -1.7867 -0.0656
 3711TIP3    H232549   0.342   6.687  12.027 -1.1578 -0.9984  0.0129
 3712TIP3   OH232550   2.968   0.212  13.683  0.3148  0.1393 -0.8133
 3712TIP3    H132551   2.887   0.232  13.636  0.6655  1.2547 -0.9559
 3712TIP3    H232552   3.015   0.153  13.625  0.3068  0.7398 -1.4381
 3713TIP3   OH232553   6.939   1.180  11.064  0.1310  0.0790 -0.0037
 3713TIP3    H132554   6.931   1.253  11.126  0.1833  1.2050 -1.2983
 3713TIP3    H232555   6.956   1.222  10.980 -0.5417 -1.4094 -0.8993
 3714TIP3   OH232556   3.848   0.364  12.542  0.8014 -0.3574  0.3103
 3714TIP3    H132557   3.800   0.302  12.487 -2.6009  1.2027  1.4241
 3714TIP3    H232558   3.870   0.313  12.621  0.3504 -0.8874  0.0971
 3715TIP3   OH232559   6.537   0.397  14.313 -0.1292  0.6721  0.0760
 3715TIP3    H132560   6.498   0.362  14.233  0.1853 -1.9924  1.0530
 3715TIP3    H232561   6.505   0.341  14.383  1.8462  1.2162  1.4693
 3716TIP3   OH232562   7.186   5.687  11.810 -0.7741  0.6569  0.3084
 3716TIP3    H132563   7.095   5.686  11.779 -0.6850 -1.0981  0.0640
 3716TIP3    H232564   7.232   5.630  11.749  0.7730  2.5386 -0.3336
 3717TIP3   OH232565   3.593   1.947  12.095  0.2063  0.2334  0.3257
 3717TIP3    H132566   3.571   1.873  12.151 -0.3099 -0.6536 -1.0224
 3717TIP3    H232567   3.530   2.015  12.119 -0.9445 -0.6376 -0.1674
 3718TIP3   OH232568   4.424   2.184  13.663  0.1299 -0.4424 -0.5326
 3718TIP3    H132569   4.382   2.098  13.671  2.7510 -1.6592  0.6351
 3718TIP3    H232570   4.510   2.173  13.703  0.9892  2.4172 -1.4543
 3719TIP3   OH232571   5.798   7.212  12.231 -0.1708  0.1418 -0.3375
 3719TIP3    H132572   5.714   7.217  12.186 -0.3111  0.8123 -0.0130
 3719TIP3    H232573   5.848   7.286  12.196  0.6108 -0.7624 -1.1746
 3720TIP3   OH232574   3.107   0.965  12.108  0.1186  0.1518 -0.2075
 3720TIP3    H132575   3.092   0.948  12.201  2.4322  2.7545  0.7123
 3720TIP3    H232576   3.021   0.955  12.067 -0.7317 -2.0471  2.0184
 3721TIP3   OH232577   6.549   6.496  14.816  0.2421 -0.0534  0.1656
 3721TIP3    H132578   6.590   6.580  14.797  0.2494 -0.1443 -0.2359
 3721TIP3    H232579   6.490   6.513  14.890  0.6716  0.1744  0.4540
 3722TIP3   OH232580   0.022   2.354  11.136 -0.1278  0.2430  0.0817
 3722TIP3    H132581  -0.039   2.428  11.127  2.1483  2.0320 -1.1894
 3722TIP3    H232582   0.080   2.362  11.061  0.3098 -2.7666  0.0556
 3723TIP3   OH232583   5.670   1.494  15.669  0.7655 -0.5489  0.0509
 3723TIP3    H132584   5.576   1.480  15.684  1.1065 -1.3345  1.4864
 3723TIP3    H232585   5.678   1.589  15.662  0.0051 -0.4050  0.9563
 3724TIP3   OH232586   4.626   6.972  13.449  0.1871 -0.5657 -0.0183
 3724TIP3    H132587   4.660   6.885  13.429  0.5120  0.1054 -2.5292
 3724TIP3    H232588   4.704   7.027  13.458 -0.0746 -0.1198 -0.4563
 3725TIP3   OH232589   5.251   3.196  10.881 -0.1793 -0.3664  0.2524
 3725TIP3    H132590   5.209   3.259  10.822  0.2470 -0.7491 -0.4707
 3725TIP3    H232591   5.345   3.204  10.860 -0.0245 -0.4746  0.9070
 3726TIP3   OH232592   2.169   6.298  13.850  0.2397  0.0249 -0.3797
 3726TIP3    H132593   2.252   6.268  13.815  0.0177 -0.4876 -0.4785
 3726TIP3    H232594   2.161   6.253  13.934 -0.7764 -1.3479 -1.1898
 3727TIP3   OH232595   4.789   0.387  11.853 -0.4994 -0.0727 -0.2191
 3727TIP3    H132596   4.717   0.436  11.814  0.5378  1.7083  0.0698
 3727TIP3    H232597   4.787   0.411  11.946  1.3845  1.1789 -0.4770
 3728TIP3   OH232598   5.901   3.144  11.551  0.1700  0.1258  0.5951
 3728TIP3    H132599   5.805   3.139  11.553  0.2746 -2.2436  2.1953
 3728TIP3    H232600   5.923   3.125  11.460 -0.8678  0.2044  0.3146
 3729TIP3   OH232601   0.641   0.222  11.538  0.0707  0.3613 -0.1932
 3729TIP3    H132602   0.648   0.316  11.552 -0.4920  0.4951 -0.7546
 3729TIP3    H232603   0.624   0.185  11.625 -0.4016  0.8482 -0.0802
 3730TIP3   OH232604   6.158   2.257  11.512 -0.1847 -0.1420 -0.0551
 3730TIP3    H132605   6.172   2.256  11.606 -1.4468  2.6461  0.2260
 3730TIP3    H232606   6.206   2.334  11.481  0.9826 -1.5418 -1.8321
 3731TIP3   OH232607   4.078   1.190  12.429  0.0437  0.0809  0.3922
 3731TIP3    H132608   4.093   1.284  12.416 -1.6734  0.2894 -0.2915
 3731TIP3    H232609   4.135   1.166  12.502 -0.2019  1.8563  1.1988
 3732TIP3   OH232610   6.460   2.274  13.588  0.0115 -0.2183  0.6835
 3732TIP3    H132611   6.433   2.184  13.568 -0.1633  0.1529 -0.7634
 3732TIP3    H232612   6.446   2.322  13.507  2.0975  0.6729  0.8132
 3733TIP3   OH232613   4.745   1.996  10.843  0.3576 -0.5957  0.0008
 3733TIP3    H132614   4.833   2.003  10.807  0.1841 -0.1420 -0.3412
 3733TIP3    H232615   4.698   1.941  10.781  0.0874  0.1012 -0.4244
 3734TIP3   OH232616   5.050   1.490  13.672  0.5487  0.0944 -0.3093
 3734TIP3    H132617   5.025   1.580  13.651  0.0205 -0.2530 -1.2133
 3734TIP3    H232618   5.015   1.474  13.759 -0.7884  0.2328 -0.8148
 3735TIP3   OH232619   4.302   2.024  14.177  0.0184  0.1459  0.6247
 3735TIP3    H132620   4.327   2.083  14.248 -1.4711  1.6924 -0.0873
 3735TIP3    H232621   4.211   2.001  14.197  0.6400 -2.1269  1.0084
 3736TIP3   OH232622   7.265   1.235  10.757  0.3357 -0.5302  0.4695
 3736TIP3    H132623   7.344   1.283  10.734  0.5875 -1.3509 -0.4056
 3736TIP3    H232624   7.203   1.254  10.687  0.4187 -1.4240  0.1459
 3737TIP3   OH232625   2.411   0.582  12.223  0.4804  0.0037  0.1342
 3737TIP3    H132626   2.337   0.527  12.247 -0.2040  0.9212  0.1424
 3737TIP3    H232627   2.458   0.598  12.305 -0.2440  0.7891  0.3913
 3738TIP3   OH232628   5.884   1.199  12.291  0.2186 -0.5852 -0.1229
 3738TIP3    H132629   5.875   1.122  12.347  1.6874 -2.4418 -2.3170
 3738TIP3    H232630   5.794   1.226  12.272 -0.3430 -2.2216  0.1104
 3739TIP3   OH232631   1.801   3.218  13.379  0.2324  0.5241 -0.1493
 3739TIP3    H132632   1.886   3.263  13.375  0.5903 -0.1488 -0.1355
 3739TIP3    H232633   1.819   3.136  13.425 -0.2169 -0.0947 -1.0637
 3740TIP3   OH232634   0.834   6.051  13.487  0.3867 -0.7152 -0.4675
 3740TIP3    H132635   0.758   6.040  13.545 -0.7834 -0.1713 -1.8795
 3740TIP3    H232636   0.803   6.108  13.417  1.7654 -1.4404 -1.6946
 3741TIP3   OH232637   3.462   2.004  13.475  0.0203  0.1618  0.2181
 3741TIP3    H132638   3.410   2.000  13.555  0.1371 -0.7973  0.2513
 3741TIP3    H232639   3.499   2.092  13.475 -1.9904  1.0212 -0.0527
 3742TIP3   OH232640   6.389   5.217  12.188 -0.6761 -0.2913  0.5176
 3742TIP3    H132641   6.457   5.281  12.169  0.0261 -0.7714  1.3638
 3742TIP3    H232642   6.349   5.248  12.270 -0.5069 -0.7864  0.7917
 3743TIP3   OH232643   5.701   5.489  13.734 -0.0517  0.2887  0.2702
 3743TIP3    H132644   5.617   5.512  13.693 -0.5098 -2.8952 -0.7728
 3743TIP3    H232645   5.700   5.535  13.817 -3.1938 -0.1566  0.5702
 3744TIP3   OH232646   5.192   2.107  13.117  0.5319 -0.2655  0.0386
 3744TIP3    H132647   5.236   2.062  13.189 -0.6467 -0.2354  0.7985
 3744TIP3    H232648   5.246   2.184  13.100  0.2889  0.2618  1.5752
 3745TIP3   OH232649   5.973   6.382  12.120  0.0588  0.0860  0.4042
 3745TIP3    H132650   6.062   6.405  12.145 -0.1177 -0.0667  1.1662
 3745TIP3    H232651   5.972   6.286  12.118  0.5128  0.0936 -1.7764
 3746TIP3   OH232652   4.134   1.511  10.992  0.2811  0.4289  0.2902
 3746TIP3    H132653   4.056   1.483  10.944  0.6224 -2.2781  1.1854
 3746TIP3    H232654   4.174   1.579  10.938 -1.6085  0.4113 -1.1467
 3747TIP3   OH232655   5.268   1.631  12.536  0.5457  0.1948  0.2283
 3747TIP3    H132656   5.197   1.690  12.561  0.2798  0.0403 -0.1680
 3747TIP3    H232657   5.339   1.689  12.510  0.1689  0.3335 -0.4856
 3748TIP3   OH232658   5.646   7.034  11.735  0.1773 -0.1765 -0.3118
 3748TIP3    H132659   5.733   6.995  11.727  1.2615  1.6181  1.9866
 3748TIP3    H232660   5.641   7.098  11.664  0.5817 -0.5396 -0.6691
 3749TIP3   OH232661   2.504   7.176  14.006 -0.2497 -0.2821  0.3031
 3749TIP3    H132662   2.438   7.156  14.073 -0.4805  0.0108  0.1635
 3749TIP3    H232663   2.547   7.255  14.038  1.3589 -1.5593  1.3737
 3750TIP3   OH232664   4.808   0.909  13.816 -0.4614 -0.6378 -0.1002
 3750TIP3    H132665   4.854   0.852  13.877  1.0354  0.9989  0.3300
 3750TIP3    H232666   4.848   0.891  13.731  0.5568  0.3058  0.1652
 3751TIP3   OH232667   5.022   3.350  12.773 -0.2984 -0.6580  0.1969
 3751TIP3    H132668   4.965   3.322  12.701 -0.8246 -0.7310  0.6385
 3751TIP3    H232669   5.079   3.417  12.734 -0.8452 -0.4160 -0.1935
 3752TIP3   OH232670   0.587   0.155  10.027 -0.7654  0.1397 -0.1100
 3752TIP3    H132671   0.543   0.238  10.011 -0.4835  0.2277 -0.4288
 3752TIP3    H232672   0.636   0.137   9.947  0.7988  0.6666  0.7101
 3753TIP3   OH232673   3.388   2.019  13.748 -0.1197 -0.7785  0.3914
 3753TIP3    H132674   3.340   2.062  13.819  0.5638  0.9739 -0.1688
 3753TIP3    H232675   3.336   1.941  13.728 -2.0176  0.3597  0.7163
 3754TIP3   OH232676   7.052   2.960  11.919  0.3692  0.0109 -0.2860
 3754TIP3    H132677   7.124   3.022  11.906  2.3054 -1.9440  0.8837
 3754TIP3    H232678   7.004   2.995  11.994  0.2222  1.1913 -0.9166
 3755TIP3   OH232679   4.310   1.928  11.762 -1.2784 -0.2711  0.1920
 3755TIP3    H132680   4.317   1.982  11.684  0.2569  1.6340  1.6043
 3755TIP3    H232681   4.216   1.910  11.771 -1.6270  0.8181 -1.1648
 3756TIP3   OH232682   3.875   2.470  13.981  0.7605 -0.1950 -0.2042
 3756TIP3    H132683   3.785   2.445  13.964  0.5734  0.1440  0.2667
 3756TIP3    H232684   3.880   2.481  14.076  1.1089  0.4821 -0.2915
 3757TIP3   OH232685   5.192   6.630  13.000  0.3678 -0.1870  0.1474
 3757TIP3    H132686   5.125   6.601  13.061 -0.0131  0.7645  0.1957
 3757TIP3    H232687   5.251   6.685  13.052  1.5945 -1.5864  0.2663
 3758TIP3   OH232688   3.524   1.230  13.715 -0.6239 -0.0832  0.1765
 3758TIP3    H132689   3.592   1.193  13.659  0.5184 -0.9771  2.1044
 3758TIP3    H232690   3.443   1.218  13.666  0.5443  0.6584 -1.9921
 3759TIP3   OH232691   4.501   2.295  15.052 -0.2420  0.1285  0.3978
 3759TIP3    H132692   4.567   2.298  14.983 -0.4584  1.3572  0.2329
 3759TIP3    H232693   4.548   2.323  15.131 -0.4420  0.5300  0.3767
 3760TIP3   OH232694   1.189   0.186  11.921 -0.8894  0.1619  0.1218
 3760TIP3    H132695   1.280   0.206  11.899 -0.9001  0.0198 -0.0461
 3760TIP3    H232696   1.184   0.091  11.919 -1.3182  0.2023 -0.9906
 3761TIP3   OH232697   6.540   2.452   0.370 -0.4196 -0.4076 -0.1748
 3761TIP3    H132698   6.449   2.429   0.385 -0.3836 -0.4036  0.0509
 3761TIP3    H232699   6.537   2.520   0.302 -0.6937  0.8171  1.0371
 3762TIP3   OH232700   0.471   0.161  12.180  0.3678  0.2615 -0.1037
 3762TIP3    H132701   0.446   0.116  12.260 -0.6159 -1.1023 -1.1641
 3762TIP3    H232702   0.390   0.203  12.149  0.6221  0.3442 -0.6698
 3763TIP3   OH232703   2.346   6.771  12.355 -0.8278  0.4281 -0.4331
 3763TIP3    H132704   2.311   6.790  12.267 -2.6002  1.4349  0.4596
 3763TIP3    H232705   2.268   6.756  12.408  0.2730 -1.2438  0.7593
 3764TIP3   OH232706   3.992   0.922   0.293 -0.2653 -0.2015  0.3825
 3764TIP3    H132707   3.918   0.975   0.262 -0.4015  1.6143  3.5903
 3764TIP3    H232708   4.065   0.946   0.235 -0.8262  2.1109  0.5807
 3765TIP3   OH232709   2.490   1.839  13.052  0.3139 -0.2075  0.0108
 3765TIP3    H132710   2.550   1.890  12.998 -1.8747  2.6422  0.1790
 3765TIP3    H232711   2.546   1.803  13.121  2.4529 -0.6938 -1.9072
 3766TIP3   OH232712   6.792   1.558  12.196  0.2926 -0.0483 -0.5753
 3766TIP3    H132713   6.816   1.468  12.174  3.4076 -0.3788  3.5685
 3766TIP3    H232714   6.826   1.611  12.124  3.3391 -1.7077 -0.4388
 3767TIP3   OH232715   5.317   6.923  10.594  0.0301 -0.2559  0.7566
 3767TIP3    H132716   5.262   7.000  10.610 -2.0141 -1.4971 -0.0865
 3767TIP3    H232717   5.267   6.849  10.628  0.6647 -1.5586 -1.0212
 3768TIP3   OH232718   7.142   3.929  12.552 -0.0860 -0.0679 -0.1470
 3768TIP3    H132719   7.179   3.875  12.482 -0.1958 -1.2349  0.6874
 3768TIP3    H232720   7.209   3.931  12.620  0.5313  2.1092 -0.7905
 3769TIP3   OH232721   6.098   0.547  11.194 -0.3674  0.2108 -0.3324
 3769TIP3    H132722   6.077   0.542  11.101 -0.0237 -0.0678 -0.3997
 3769TIP3    H232723   6.048   0.622  11.227 -0.3469  0.4212 -0.7805
 3770TIP3   OH232724   5.306   1.658  13.976  0.3460  0.1139  0.2588
 3770TIP3    H132725   5.374   1.601  14.012 -0.8548  0.2724  2.8472
 3770TIP3    H232726   5.247   1.598  13.930 -0.1652 -0.5768  1.7993
 3771TIP3   OH232727   4.959   0.184  12.015 -0.1800 -0.0045  0.7004
 3771TIP3    H132728   5.001   0.267  12.035 -0.6486  0.7434 -1.2849
 3771TIP3    H232729   5.031   0.127  11.987 -0.1293  0.4295 -0.0662
 3772TIP3   OH232730   0.587   6.370  11.302  0.2446  0.0655  0.2866
 3772TIP3    H132731   0.611   6.404  11.215  1.0665  0.3025  0.6024
 3772TIP3    H232732   0.671   6.355  11.346 -0.1835  1.7086  1.7148
 3773TIP3   OH232733   3.293   0.168  10.566  0.4631  0.6288 -0.6881
 3773TIP3    H132734   3.326   0.141  10.480 -0.5463  0.3778 -1.0169
 3773TIP3    H232735   3.285   0.263  10.560  0.2082  0.5932 -0.9442
 3774TIP3   OH232736   6.178   0.967  12.876  0.5554 -0.2904  0.7414
 3774TIP3    H132737   6.225   1.032  12.822 -0.3557 -0.4857 -0.3073
 3774TIP3    H232738   6.158   1.014  12.957 -1.4384  1.2764 -0.5899
 3775TIP3   OH232739   0.325   0.477  13.348  0.2200 -0.0190 -0.4641
 3775TIP3    H132740   0.364   0.424  13.279  0.5795  0.0912 -0.3483
 3775TIP3    H232741   0.231   0.468  13.335  0.2499 -1.6783  0.2936
 3776TIP3   OH232742   4.112   5.753  13.442 -0.2894  0.3679 -0.0930
 3776TIP3    H132743   4.196   5.710  13.423 -0.9368 -1.2089  0.5510
 3776TIP3    H232744   4.122   5.785  13.531  0.8946  3.2968 -1.2299
 3777TIP3   OH232745   3.276   2.818  12.789 -0.1959  0.1646  0.7790
 3777TIP3    H132746   3.188   2.796  12.758 -0.3418 -0.3977  1.5659
 3777TIP3    H232747   3.264   2.835  12.883  0.3292  1.2668  0.6610
 3778TIP3   OH232748   2.957   1.050  11.702 -0.4966  0.6964 -0.0587
 3778TIP3    H132749   3.013   1.097  11.640  0.1283 -0.3601 -0.3080
 3778TIP3    H232750   3.017   0.996  11.753 -1.3163 -0.6587 -0.5113
 3779TIP3   OH232751   6.135   7.049  12.725  0.0622  0.1410 -0.5770
 3779TIP3    H132752   6.163   7.039  12.634  0.9377  0.4351 -0.3470
 3779TIP3    H232753   6.041   7.034  12.723  0.0075  0.5758 -1.6036
 3780TIP3   OH232754   4.776   1.127  10.949  0.2675  0.1921  0.3115
 3780TIP3    H132755   4.825   1.207  10.931  2.0186 -0.8718  0.2348
 3780TIP3    H232756   4.735   1.105  10.866 -2.0300  2.1604  0.8504
 3781TIP3   OH232757   0.052   0.705  12.722  0.3998  0.1174  0.2329
 3781TIP3    H132758   0.074   0.778  12.780 -0.0029 -0.8515  1.6373
 3781TIP3    H232759  -0.042   0.713  12.709  0.0743 -1.0549  1.6951
 3782TIP3   OH232760   7.088   5.338  12.171  0.1387  0.0847 -0.8392
 3782TIP3    H132761   6.996   5.336  12.199 -0.1686 -0.8521 -1.8991
 3782TIP3    H232762   7.095   5.417  12.117 -0.7058 -1.2940 -2.9898
 3783TIP3   OH232763   2.119   1.684  14.698  0.4780  1.1606  0.6351
 3783TIP3    H132764   2.108   1.656  14.607 -0.6671  0.6239  0.9328
 3783TIP3    H232765   2.149   1.775  14.692 -1.4637  1.7711 -0.2676
 3784TIP3   OH232766   3.761   3.614  10.609 -0.0132 -0.0704  0.0954
 3784TIP3    H132767   3.741   3.707  10.617 -0.6895 -0.1728 -0.3448
 3784TIP3    H232768   3.739   3.592  10.519 -1.1645 -0.9588  0.5700
 3785TIP3   OH232769   5.298   2.180  13.394 -0.4656 -0.3455  0.3117
 3785TIP3    H132770   5.291   2.248  13.461  1.0954 -1.3346  1.5042
 3785TIP3    H232771   5.211   2.140  13.391 -1.3836  1.6418 -0.3540
 3786TIP3   OH232772   4.818   2.197  13.501 -0.8111  0.2201 -0.3524
 3786TIP3    H132773   4.748   2.137  13.475  0.9701 -1.7532 -0.6838
 3786TIP3    H232774   4.888   2.181  13.438  0.4729  1.1693  0.8010
 3787TIP3   OH232775   6.122   2.586  11.231  0.5389  0.7066  0.4098
 3787TIP3    H132776   6.079   2.515  11.183  0.1448  1.2256 -0.0239
 3787TIP3    H232777   6.051   2.627  11.281  0.4049  1.8899 -0.7116
 3788TIP3   OH232778   6.891   2.113  13.251  0.3065 -0.0606  0.0224
 3788TIP3    H132779   6.903   2.033  13.199  1.4600  0.9796 -1.3232
 3788TIP3    H232780   6.815   2.093  13.306 -0.4015 -1.5257 -1.4061
 3789TIP3   OH232781   5.620   1.821  13.168  0.2434 -0.1005 -0.0633
 3789TIP3    H132782   5.598   1.804  13.077 -1.1457 -1.6877  0.5370
 3789TIP3    H232783   5.535   1.830  13.212  0.9022  1.3402  0.9540
 3790TIP3   OH232784   1.153   1.082  13.538 -0.3219 -0.2093  0.6656
 3790TIP3    H132785   1.180   0.990  13.539  0.7812  0.0876 -0.3823
 3790TIP3    H232786   1.058   1.079  13.522  0.1316 -1.1104 -2.2661
 3791TIP3   OH232787   1.499   1.179  12.057  0.3477  0.1574 -0.6299
 3791TIP3    H132788   1.405   1.195  12.044  0.3482  0.6010 -0.1084
 3791TIP3    H232789   1.509   1.172  12.152  1.0195  1.2522 -0.6105
 3792TIP3   OH232790   6.770   6.217  14.030 -0.1359 -0.4709 -0.0964
 3792TIP3    H132791   6.803   6.142  14.080 -1.6073 -0.3559  1.0984
 3792TIP3    H232792   6.847   6.270  14.013  0.4997 -0.8355  1.5355
 3793TIP3   OH232793   5.180   6.979  14.024  0.1011 -0.1865 -0.5303
 3793TIP3    H132794   5.147   7.069  14.020  0.6426  0.0600  0.4873
 3793TIP3    H232795   5.105   6.927  14.051  0.1515  0.1669  0.3019
 3794TIP3   OH232796   5.546   0.970  11.764  0.0599 -0.2722 -0.5242
 3794TIP3    H132797   5.613   0.911  11.799 -1.1821 -2.7867 -2.2545
 3794TIP3    H232798   5.558   0.966  11.669 -1.9293 -0.0285 -0.8031
 3795TIP3   OH232799   1.838   2.053  12.315 -0.1637  0.0748 -0.0409
 3795TIP3    H132800   1.783   1.974  12.314  1.6174 -1.2491  1.7154
 3795TIP3    H232801   1.812   2.100  12.394  1.3583 -0.7091  0.9663
 3796TIP3   OH232802   6.413   0.538  13.984 -0.4850  0.4158  0.5920
 3796TIP3    H132803   6.394   0.567  13.895  0.1328  0.1831  0.3839
 3796TIP3    H232804   6.328   0.542  14.029 -0.8650  0.1958 -0.0958
 3797TIP3   OH232805   5.160   6.837  14.781  0.3636 -0.4199  0.6130
 3797TIP3    H132806   5.215   6.816  14.705 -0.0934  0.5577  0.0019
 3797TIP3    H232807   5.137   6.929  14.769 -0.7285 -0.5971  1.3026
 3798TIP3   OH232808   0.783   3.363  13.349  0.2103 -0.2072 -0.1291
 3798TIP3    H132809   0.818   3.441  13.305 -0.4904 -0.1421 -0.5717
 3798TIP3    H232810   0.791   3.293  13.284  0.4628 -0.4171  0.1262
 3799TIP3   OH232811   4.242   6.371  13.335 -0.1155  0.2387  0.1866
 3799TIP3    H132812   4.161   6.353  13.287  0.6594  1.1932 -1.5322
 3799TIP3    H232813   4.302   6.303  13.307  1.2647  2.4426 -2.5463
 3800TIP3   OH232814   6.330   1.819  12.422  0.4463 -0.4834 -0.5410
 3800TIP3    H132815   6.412   1.771  12.412  0.5090 -0.3846 -0.5034
 3800TIP3    H232816   6.270   1.777  12.361  0.4634 -0.6956 -0.4125
 3801TIP3   OH232817   6.207   6.842  14.153  0.1756 -0.0746 -0.5352
 3801TIP3    H132818   6.240   6.799  14.074 -0.4656  0.7032 -1.2363
 3801TIP3    H232819   6.210   6.774  14.220  1.6739 -0.4672 -0.9752
 3802TIP3   OH232820   5.557   0.427  11.142 -0.2776  0.1144  0.1757
 3802TIP3    H132821   5.522   0.420  11.231  1.8191 -1.4253  0.9304
 3802TIP3    H232822   5.528   0.347  11.098 -2.2580  1.3991 -0.9060
 3803TIP3   OH232823   5.827   7.206  10.949 -0.1369 -0.2747  0.5407
 3803TIP3    H132824   5.785   7.175  11.029  0.1580 -0.8152  0.4837
 3803TIP3    H232825   5.875   7.285  10.975  0.1533 -0.5847  0.9401
 3804TIP3   OH232826   0.196   0.513  11.694  0.1134  0.6934 -0.3691
 3804TIP3    H132827   0.123   0.511  11.633  1.1250 -0.1154 -1.5630
 3804TIP3    H232828   0.173   0.581  11.757 -2.3612 -0.5755  0.1344
 3805TIP3   OH232829   0.795   5.334  13.205  0.1874 -0.5566  0.8622
 3805TIP3    H132830   0.853   5.317  13.130 -1.2413 -0.8864 -0.1906
 3805TIP3    H232831   0.842   5.400  13.257  1.8218 -1.3250  0.4060
 3806TIP3   OH232832   6.731   2.394  11.444  0.2330  0.4896  0.3963
 3806TIP3    H132833   6.696   2.305  11.442  0.5166  0.3387  1.7960
 3806TIP3    H232834   6.795   2.393  11.515 -0.0761  1.9292  0.6982
 3807TIP3   OH232835   6.980   1.897  11.464 -0.1212 -0.4765 -0.1091
 3807TIP3    H132836   7.059   1.950  11.456 -1.9738  2.6494  1.3357
 3807TIP3    H232837   7.007   1.821  11.516  1.8573  0.6911  0.6056
 3808TIP3   OH232838   6.999   1.171  14.741 -0.2301 -0.4318  0.0749
 3808TIP3    H132839   6.954   1.224  14.675  0.0157 -2.7468 -2.0302
 3808TIP3    H232840   7.031   1.095  14.693  1.1980 -1.5045  2.6195
 3809TIP3   OH232841   7.292   5.779  11.201 -0.0894  0.0156 -0.5164
 3809TIP3    H132842   7.319   5.861  11.160 -0.1426  0.0559 -0.4704
 3809TIP3    H232843   7.250   5.730  11.130  1.6957 -0.7991 -1.0181
 3810TIP3   OH232844   3.090   0.646  13.950  0.1371  0.1544 -0.0576
 3810TIP3    H132845   3.095   0.550  13.943 -1.2910  0.0270  0.3965
 3810TIP3    H232846   3.099   0.677  13.860  1.6866 -0.3424 -0.0827
 3811TIP3   OH232847   6.547   3.436  12.620 -0.0543  0.2261 -0.3100
 3811TIP3    H132848   6.628   3.399  12.656 -0.8252  0.0532  1.2733
 3811TIP3    H232849   6.547   3.408  12.528  0.6624 -1.5266  0.1992
 3812TIP3   OH232850   6.286   1.524  12.166 -0.2856  0.1168  0.4405
 3812TIP3    H132851   6.364   1.475  12.140 -0.9835 -0.4947 -0.5566
 3812TIP3    H232852   6.220   1.457  12.182 -0.5848  0.6264  1.3659
 3813TIP3   OH232853   0.603   2.196  15.246  0.5463 -0.0124  0.3248
 3813TIP3    H132854   0.556   2.265  15.197  0.7724  0.0960  0.2601
 3813TIP3    H232855   0.571   2.205  15.336 -0.6124 -0.8592  0.0032
 3814TIP3   OH232856   6.167   1.274  10.942 -0.7433  0.0872  0.3417
 3814TIP3    H132857   6.112   1.221  10.885  0.1109 -1.2532  0.7387
 3814TIP3    H232858   6.204   1.341  10.885 -0.6292 -0.6713 -0.4902
 3815TIP3   OH232859   0.313   7.261  11.463 -0.2573  0.1830 -0.5758
 3815TIP3    H132860   0.348   7.216  11.540 -1.3983 -0.3672 -0.3748
 3815TIP3    H232861   0.295   7.192  11.400 -1.7230  0.3806 -0.3850
 3816TIP3   OH232862   6.095   6.395  13.539  0.3849  0.1201  0.0785
 3816TIP3    H132863   6.112   6.489  13.533 -0.3243  0.3417  1.3571
 3816TIP3    H232864   6.135   6.358  13.460  2.4704  1.2359  0.5824
 3817TIP3   OH232865   6.846   1.401   0.120 -0.7043  0.1705  0.3668
 3817TIP3    H132866   6.810   1.476   0.167 -2.0240 -0.4033  0.2936
 3817TIP3    H232867   6.887   1.347   0.187  0.2933  0.9591  0.4138
 3818TIP3   OH232868   5.546   7.236  14.861  0.2509  0.4495  0.0431
 3818TIP3    H132869   5.522   7.168  14.799  1.9546 -0.4425  0.3361
 3818TIP3    H232870   5.527   7.318  14.816 -1.1136 -0.2025 -0.5910
 3819TIP3   OH232871   7.261   2.092  13.430  0.2042 -0.3982 -0.1266
 3819TIP3    H132872   7.254   2.029  13.501  0.5257 -0.1630  0.1166
 3819TIP3    H232873   7.214   2.169  13.461  0.8148 -0.0987  0.0538
 3820TIP3   OH232874   6.834   0.087  11.151  0.0128 -0.2723 -0.5552
 3820TIP3    H132875   6.779   0.021  11.108 -0.6049  1.4365 -2.4845
 3820TIP3    H232876   6.778   0.126  11.218 -0.6668  0.3906 -1.4825
 3821TIP3   OH232877   0.108   1.685  11.625 -0.4207 -0.5891 -0.1842
 3821TIP3    H132878   0.051   1.623  11.579  0.4707 -0.9360 -0.8432
 3821TIP3    H232879   0.167   1.718  11.557  0.8422 -1.0197  0.6741
 3822TIP3   OH232880   7.195   3.032  13.638  0.4675 -0.2620 -0.2023
 3822TIP3    H132881   7.215   2.938  13.645  0.2011 -0.4409 -1.6504
 3822TIP3    H232882   7.190   3.048  13.544 -2.5430  0.5654  0.0422
 3823TIP3   OH232883   0.774   2.160  10.567  0.3407 -0.4133 -0.0707
 3823TIP3    H132884   0.766   2.249  10.601 -0.2656 -0.7828  0.7677
 3823TIP3    H232885   0.795   2.106  10.643  1.3044 -0.9031 -0.6752
 3824TIP3   OH232886   4.758   1.280  14.036  0.0830 -1.0757 -0.2308
 3824TIP3    H132887   4.763   1.270  13.941  2.0151  0.6628 -0.3552
 3824TIP3    H232888   4.828   1.224  14.070 -0.0247 -0.9997  0.1214
 3825TIP3   OH232889   7.103   3.134  10.865 -0.0540  0.1323 -0.2469
 3825TIP3    H132890   7.109   3.226  10.893 -0.5612  0.1050 -0.0326
 3825TIP3    H232891   7.125   3.084  10.944  0.2515  0.0705 -0.3719
 3826TIP3   OH232892   6.083   0.573   0.149  0.2750  0.5229  0.0823
 3826TIP3    H132893   5.991   0.577   0.174  0.4789  2.2255  0.6009
 3826TIP3    H232894   6.131   0.564   0.232  0.6374  0.9313 -0.0766
 3827TIP3   OH232895   4.531   1.107  13.954  0.4795  0.0187  0.4559
 3827TIP3    H132896   4.608   1.151  13.991 -0.0470 -0.1515  1.7827
 3827TIP3    H232897   4.543   1.115  13.860  0.5898  2.7411  0.6466
 3828TIP3   OH232898   0.447   1.043  12.051  0.6486 -0.8944 -0.6963
 3828TIP3    H132899   0.528   1.089  12.034  0.8409 -0.8877  0.2021
 3828TIP3    H232900   0.470   0.950  12.044  1.3067 -0.9742  1.8766
 3829TIP3   OH232901   6.269   1.164  10.604  0.1890 -0.5111  0.2138
 3829TIP3    H132902   6.342   1.115  10.567  1.0086 -0.1427  1.3238
 3829TIP3    H232903   6.191   1.111  10.583  0.8192 -1.1464 -0.5414
 3830TIP3   OH232904   6.640   1.477  13.107  0.2934  0.3874  0.5579
 3830TIP3    H132905   6.629   1.404  13.046 -0.3609  0.1502  0.9525
 3830TIP3    H232906   6.588   1.548  13.070 -0.7198  0.0060  1.2127
 3831TIP3   OH232907   5.198   2.746   9.834  0.3466 -0.3070 -0.0555
 3831TIP3    H132908   5.157   2.669   9.873 -1.7984  0.8968  0.1613
 3831TIP3    H232909   5.254   2.711   9.765 -0.8153 -2.0497 -0.1431
 3832TIP3   OH232910   0.043   0.442  10.810 -0.7696 -0.2721 -0.1290
 3832TIP3    H132911   0.009   0.523  10.847  1.6462  0.4835  0.4857
 3832TIP3    H232912   0.003   0.437  10.723 -3.3930 -0.0608  1.0207
 3833TIP3   OH232913   0.383   1.264  10.888  0.3063  0.6607  0.0789
 3833TIP3    H132914   0.473   1.295  10.885  0.8380 -1.0020 -1.7799
 3833TIP3    H232915   0.387   1.184  10.940  0.0605  0.0688 -0.8072
 3834TIP3   OH232916   6.954   3.930  13.432 -0.4851 -0.5979  0.0325
 3834TIP3    H132917   6.879   3.870  13.436  0.3361 -1.6083  0.3379
 3834TIP3    H232918   6.919   4.014  13.463 -1.2391 -1.3271  1.1708
 3835TIP3   OH232919   6.082   1.211   0.666 -0.1316  0.2260 -0.0623
 3835TIP3    H132920   6.156   1.159   0.698  0.4117  1.1594  0.2074
 3835TIP3    H232921   6.087   1.204   0.571  0.8431  1.0177 -0.0764
 3836TIP3   OH232922   5.480   0.473  12.651 -0.2010  0.5708  0.1283
 3836TIP3    H132923   5.499   0.561  12.619  1.9385 -0.2973 -1.1414
 3836TIP3    H232924   5.408   0.442  12.596 -0.3683  1.1990 -0.0068
 3837TIP3   OH232925   4.431   0.020  12.960 -0.1407  0.2725 -0.5209
 3837TIP3    H132926   4.348  -0.027  12.962 -0.1852  0.3617  1.0966
 3837TIP3    H232927   4.414   0.096  12.904 -0.8333 -0.2835 -1.0716
 3838TIP3   OH232928   5.042   7.168  13.630  0.1764 -0.0526 -0.5493
 3838TIP3    H132929   5.006   7.215  13.706 -0.1537 -0.9071 -0.1802
 3838TIP3    H232930   5.004   7.214  13.555  0.4322  0.7411 -0.2065
 3839TIP3   OH232931   6.625   0.993  13.900  0.2157  0.3751 -0.0093
 3839TIP3    H132932   6.531   0.995  13.880 -0.3717 -0.0334  2.6220
 3839TIP3    H232933   6.663   0.944  13.826 -1.7944 -0.5536 -0.4827
 3840TIP3   OH232934   0.700   7.297  12.438  0.1105 -0.4012  0.1045
 3840TIP3    H132935   0.607   7.309  12.421  0.4673  0.0943 -1.5496
 3840TIP3    H232936   0.712   7.203  12.447 -0.2790 -0.5793 -1.2543
 3841TIP3   OH232937   6.858   5.657  11.733  0.5491  0.3542  0.2400
 3841TIP3    H132938   6.837   5.722  11.665 -1.4911 -0.8268 -0.3154
 3841TIP3    H232939   6.784   5.597  11.731  2.7234 -2.4135  0.2457
 3842TIP3   OH232940   0.677   1.144  11.929  0.6004  0.8143 -0.0756
 3842TIP3    H132941   0.648   1.235  11.916  1.7360  1.1487 -0.3522
 3842TIP3    H232942   0.750   1.152  11.991  1.7067  0.2513 -1.2998
 3843TIP3   OH232943   0.126   0.679  11.918 -0.4522  0.2022  0.1714
 3843TIP3    H132944   0.192   0.635  11.972 -0.2633  0.6642  0.3202
 3843TIP3    H232945   0.177   0.741  11.865 -0.5264 -0.8014 -1.1162
 3844TIP3   OH232946   3.963   2.679  13.794  0.1043 -1.0735 -0.1296
 3844TIP3    H132947   3.924   2.600  13.831 -1.2487 -0.1823  0.3871
 3844TIP3    H232948   3.938   2.677  13.701 -0.3329 -1.0149 -0.0142
 3845TIP3   OH232949   5.220   5.234  13.259 -0.2991  0.5975 -0.7762
 3845TIP3    H132950   5.265   5.190  13.332  0.2585 -1.0958 -2.1200
 3845TIP3    H232951   5.283   5.231  13.187 -1.6657  0.3497 -1.9755
 3846TIP3   OH232952   0.880   0.004  11.149 -0.4410 -0.0916 -0.3280
 3846TIP3    H132953   0.812   0.043  11.204 -1.8751  0.1300 -2.2048
 3846TIP3    H232954   0.920   0.078  11.104 -0.2346 -0.3891 -0.6374
 3847TIP3   OH232955   4.727   0.961  14.747  0.3408  0.0637 -0.6455
 3847TIP3    H132956   4.694   0.899  14.682  1.2687 -1.1975  0.0437
 3847TIP3    H232957   4.798   0.913  14.791  0.4448  1.2831  0.5428
 3848TIP3   OH232958   0.617   0.756  11.564 -0.2012 -0.1877  0.0300
 3848TIP3    H132959   0.594   0.836  11.613 -1.3180 -0.1478 -0.5570
 3848TIP3    H232960   0.711   0.764  11.550 -0.2049  0.7618  0.4615
 3849TIP3   OH232961   4.511   0.468  11.717 -0.7725 -0.3766  0.1653
 3849TIP3    H132962   4.518   0.457  11.812  1.2271  0.5014  0.1361
 3849TIP3    H232963   4.503   0.378  11.683 -1.1751 -0.7120  1.1223
 3850TIP3   OH232964   4.696   0.683  13.180  0.0403  0.5046 -0.5058
 3850TIP3    H132965   4.755   0.643  13.243 -0.8389  0.9835  0.6504
 3850TIP3    H232966   4.609   0.671  13.218 -0.4552  1.2741 -1.3655
 3851TIP3   OH232967   5.420   0.148  13.319  0.2911  0.9337 -0.7227
 3851TIP3    H132968   5.483   0.205  13.362 -0.6843  2.5610 -1.4235
 3851TIP3    H232969   5.336   0.194  13.326 -0.7680 -1.0208 -0.1318
 3852TIP3   OH232970   4.480   0.042  13.250 -0.5521  0.4964  0.4358
 3852TIP3    H132971   4.452  -0.045  13.280 -0.6000  0.4104  0.1425
 3852TIP3    H232972   4.437   0.053  13.165  0.4594  0.2842 -0.1159
 3853TIP3   OH232973   5.921   6.709  14.368  0.2708  0.0390 -0.3016
 3853TIP3    H132974   5.992   6.658  14.331  1.3401  0.5460  1.0175
 3853TIP3    H232975   5.913   6.785  14.311 -0.0734 -0.6562 -1.1829
 3854TIP3   OH232976   7.283   0.202  10.973 -0.2825  0.4809  0.2358
 3854TIP3    H132977   7.319   0.278  10.927  0.8976  1.3063  2.4813
 3854TIP3    H232978   7.190   0.203  10.950  0.3107  0.6554 -2.3882
 3855TIP3   OH232979   6.165   5.204  14.699  0.0275  0.2038  0.0503
 3855TIP3    H132980   6.181   5.299  14.699  1.9487 -0.0906 -0.6777
 3855TIP3    H232981   6.139   5.184  14.609  0.0676 -0.0149  0.0868
 3856TIP3   OH232982   1.168   1.410  12.427 -0.4152 -0.6202 -0.3666
 3856TIP3    H132983   1.198   1.482  12.483 -0.4663 -0.9355  0.0702
 3856TIP3    H232984   1.187   1.440  12.338 -0.9497  0.1759 -0.2257
 3857TIP3   OH232985   4.454   2.975  13.789  0.1411 -0.2223 -0.3512
 3857TIP3    H132986   4.453   2.880  13.797 -1.2569 -0.1405  0.5843
 3857TIP3    H232987   4.547   2.998  13.781  0.5237 -1.6052  0.0423
 3858TIP3   OH232988   4.049   1.078  14.243  0.1712 -0.6984  0.1628
 3858TIP3    H132989   3.980   1.030  14.288 -2.2647  2.0267 -0.5042
 3858TIP3    H232990   4.040   1.168  14.273  4.7665 -0.5548  1.5597
 3859TIP3   OH232991   5.315   2.285  12.131  0.7199  0.3988  0.1058
 3859TIP3    H132992   5.291   2.198  12.164  1.6227  0.4658  0.9697
 3859TIP3    H232993   5.402   2.301  12.168  0.1543  2.0768  0.7160
 3860TIP3   OH232994   6.518   6.592  12.430  0.3037 -0.6445  0.4612
 3860TIP3    H132995   6.598   6.615  12.476 -0.2599 -0.1357  1.1991
 3860TIP3    H232996   6.500   6.667  12.372 -0.9930  0.3922  2.1414
 3861TIP3   OH232997   7.251   2.045  11.449  0.3856  0.5399 -0.2125
 3861TIP3    H132998   7.252   2.137  11.475 -1.0939 -0.3975  3.6458
 3861TIP3    H232999   7.271   1.997  11.530  3.4041 -2.4977 -2.5911
 3862TIP3   OH233000   0.867   6.980  10.939  0.1027  0.2125 -0.1266
 3862TIP3    H133001   0.854   6.964  11.032 -0.2556 -1.0159 -0.3714
 3862TIP3    H233002   0.797   7.041  10.915  0.2668  0.6214  0.4310
 3863TIP3   OH233003   6.586   6.765  14.166  0.4727  0.2218 -0.8592
 3863TIP3    H133004   6.586   6.746  14.260  2.4250  0.7162 -0.7342
 3863TIP3    H233005   6.542   6.849  14.158  1.6656  0.9373 -0.1852
 3864TIP3   OH233006   7.255   6.016  11.791  0.5520  0.0295 -0.1690
 3864TIP3    H133007   7.165   6.028  11.759  0.6887 -0.1533 -0.6303
 3864TIP3    H233008   7.255   5.927  11.828  0.9232 -0.5348 -1.4878
 3865TIP3   OH233009   6.492   0.281  12.480 -0.2768  0.0322  0.2393
 3865TIP3    H133010   6.535   0.222  12.543 -0.1369 -0.3075 -0.1745
 3865TIP3    H233011   6.455   0.350  12.535 -3.0502 -2.0099  1.0706
 3866TIP3   OH233012   6.610   0.951  12.482  0.1514 -0.0178 -0.0562
 3866TIP3    H133013   6.572   0.988  12.562  1.1759  0.8902  0.0216
 3866TIP3    H233014   6.695   0.918  12.510 -0.1529 -1.1257 -0.4459
 3867TIP3   OH233015   7.075   4.798  13.544  0.2924 -0.3317  0.5633
 3867TIP3    H133016   7.061   4.891  13.559  2.2840  0.2777 -1.1755
 3867TIP3    H233017   7.002   4.755  13.590 -1.8058  2.1676 -0.3336
 3868TIP3   OH233018   0.264   2.172  12.342 -0.2205  0.0245 -0.1321
 3868TIP3    H133019   0.227   2.244  12.291 -2.5556 -1.3052 -0.4051
 3868TIP3    H233020   0.291   2.211  12.424  0.2017  1.5343 -0.9834
 3869TIP3   OH233021   5.384   1.008  12.998 -0.3435 -0.1203  0.1506
 3869TIP3    H133022   5.439   0.981  13.071  0.3683  0.5219 -0.1509
 3869TIP3    H233023   5.352   0.926  12.960  3.3412 -0.6519 -1.9666
 3870TIP3   OH233024   7.087   0.751  12.732  0.1601 -0.1653 -0.1467
 3870TIP3    H133025   7.047   0.836  12.711 -0.3737 -0.3585  0.0706
 3870TIP3    H233026   7.032   0.716  12.802  1.5010  0.1489  1.0601
 3871TIP3   OH233027   6.117   0.539   0.420 -0.1553  0.6128  0.1337
 3871TIP3    H133028   6.203   0.545   0.461 -0.9991  0.1602  2.0277
 3871TIP3    H233029   6.063   0.601   0.469 -1.7961 -1.6658  1.2920
 3872TIP3   OH233030   0.838   0.583  11.793  0.8502 -0.0894 -0.4725
 3872TIP3    H133031   0.920   0.533  11.785  1.0628 -0.0970  1.5214
 3872TIP3    H233032   0.866   0.673  11.811  0.4713 -0.5706  2.9153
 3873TIP3   OH233033   4.433   1.157  13.694  0.3528 -0.0937  0.4277
 3873TIP3    H133034   4.383   1.076  13.703  1.6539 -1.0450 -0.7785
 3873TIP3    H233035   4.367   1.227  13.699 -1.0224 -1.2993 -0.6032
 3874TIP3   OH233036   6.513   2.578  10.430 -0.3814  0.6049 -0.1388
 3874TIP3    H133037   6.483   2.666  10.452  1.0995  0.7291  1.5134
 3874TIP3    H233038   6.486   2.524  10.505 -0.5925 -0.1914 -0.7821
 3875TIP3   OH233039   6.956   2.328  10.935  0.7309 -0.0472  0.3053
 3875TIP3    H133040   6.950   2.325  11.031 -0.1694  2.1158  0.3336
 3875TIP3    H233041   6.866   2.312  10.905  1.5297 -3.9044 -0.3232
 3876TIP3   OH233042   0.479   0.847  12.811 -0.1084  0.9083  0.2281
 3876TIP3    H133043   0.549   0.827  12.748  1.9604  2.3402  2.0081
 3876TIP3    H233044   0.478   0.771  12.869 -2.5533 -0.7770 -1.9208
 3877TIP3   OH233045   0.172   7.298  11.047 -0.5892 -0.5393  0.9289
 3877TIP3    H133046   0.144   7.237  11.115 -1.7341  0.7038  1.6045
 3877TIP3    H233047   0.090   7.339  11.017  0.2945  1.9818  1.7910
 3878TIP3   OH233048   0.047   1.851  12.422 -0.3138  0.7476 -0.4931
 3878TIP3    H133049  -0.005   1.900  12.485 -0.1868 -0.0308  0.2100
 3878TIP3    H233050   0.001   1.768  12.411  0.3494  0.3710 -0.4653
 3879TIP3   OH233051   2.819   2.846  11.714 -0.2952  0.6967  0.0319
 3879TIP3    H133052   2.729   2.849  11.746 -0.3340 -1.1810  0.1595
 3879TIP3    H233053   2.872   2.827  11.791  0.3070  2.3343  0.0621
 3880TIP3   OH233054   7.172   6.825  14.303 -0.0944 -0.3156 -0.3338
 3880TIP3    H133055   7.143   6.826  14.394 -3.2733 -0.4389 -1.3009
 3880TIP3    H233056   7.243   6.761  14.301 -1.1887 -1.6471  1.6996
 3881TIP3   OH233057   5.897   2.817  12.685  0.4099  0.4070 -0.2855
 3881TIP3    H133058   5.872   2.739  12.634 -2.6912  3.3248 -3.4887
 3881TIP3    H233059   5.984   2.840  12.651  0.3059 -0.2856 -1.0416
 3882TIP3   OH233060   4.553   2.701  14.224 -0.4600 -0.3440 -0.1852
 3882TIP3    H133061   4.638   2.666  14.196  1.4904  3.7380  0.1799
 3882TIP3    H233062   4.553   2.693  14.319 -0.2899  0.0217 -0.1519
 3883TIP3   OH233063   4.037   2.267  13.186 -0.1909 -0.1168  0.0557
 3883TIP3    H133064   4.082   2.330  13.129 -1.1902 -0.8168 -1.5181
 3883TIP3    H233065   4.004   2.200  13.127 -1.4877 -0.7220  1.4323
 3884TIP3   OH233066   6.101   1.785  10.459  0.3577  0.0416 -0.6759
 3884TIP3    H133067   6.033   1.737  10.413  0.4905  1.7242 -2.6651
 3884TIP3    H233068   6.157   1.820  10.390  0.4980  2.6871  0.7348
 3885TIP3   OH233069   5.194   1.814  13.143 -0.6451  0.1739 -0.4473
 3885TIP3    H133070   5.224   1.730  13.109  1.9361  0.7073  0.3396
 3885TIP3    H233071   5.186   1.801  13.238 -0.5511  0.7137 -0.3598
 3886TIP3   OH233072   0.012   0.893  11.224  0.2865 -0.3479  0.4893
 3886TIP3    H133073   0.101   0.861  11.211  0.8674  1.0133  1.0328
 3886TIP3    H233074   0.021   0.988  11.235 -1.0870 -0.3523  1.8843
 3887TIP3   OH233075   5.468   1.185  14.082  0.0845  0.3385  0.5083
 3887TIP3    H133076   5.503   1.240  14.153 -0.6427 -1.7341  2.5483
 3887TIP3    H233077   5.377   1.170  14.107 -0.0728 -0.7347 -0.6856
 3888TIP3   OH233078   2.181   0.625  11.185 -0.2888 -0.6314  0.0098
 3888TIP3    H133079   2.100   0.641  11.235 -1.5969  2.6040 -2.9193
 3888TIP3    H233080   2.249   0.669  11.235 -1.0651  0.1093  0.4325
 3889TIP3   OH233081   5.319   7.273  13.847  0.0039  0.3592 -0.0745
 3889TIP3    H133082   5.340   7.188  13.810  1.0567  0.1986  0.8738
 3889TIP3    H233083   5.273   7.320  13.777  0.9742 -0.3436 -1.1804
 3890TIP3   OH233084   1.137   0.462  11.518 -0.8480 -0.0680 -0.1591
 3890TIP3    H133085   1.190   0.541  11.532  0.6658 -1.0528 -0.2176
 3890TIP3    H233086   1.084   0.482  11.441  0.3885  0.4651 -0.8920
 3891TIP3   OH233087   0.397   1.454  12.863  0.2607  0.0732 -0.3685
 3891TIP3    H133088   0.428   1.442  12.953  1.5680  2.2858 -0.4754
 3891TIP3    H233089   0.316   1.404  12.858  1.3166 -1.8792  1.3992
 3892TIP3   OH233090   7.089   1.207  15.026  0.3658 -0.1042  0.1633
 3892TIP3    H133091   7.052   1.167  14.947  0.2505 -1.1069  0.7230
 3892TIP3    H233092   7.184   1.209  15.009  0.5639 -2.3038  0.8825
 3893TIP3   OH233093   6.346   2.927  10.975 -0.9496 -0.1514  0.2088
 3893TIP3    H133094   6.349   2.976  11.057  1.0097  1.3400 -0.7052
 3893TIP3    H233095   6.376   2.839  10.998  1.7528  0.8486  0.7470
 3894TIP3   OH233096   7.056   7.053  12.252  0.4558  0.1714  0.3075
 3894TIP3    H133097   7.091   7.032  12.166 -0.9637 -0.7282 -0.0755
 3894TIP3    H233098   6.977   7.103  12.234 -0.6111 -1.2126  1.0370
 3895TIP3   OH233099   7.273   1.245  13.581  0.1546 -0.2585  0.1165
 3895TIP3    H133100   7.211   1.317  13.593  0.5908  0.1954 -0.2969
 3895TIP3    H233101   7.348   1.286  13.536 -0.7660 -1.5504 -2.7248
 3896TIP3   OH233102   6.075   7.212  13.938 -0.1122 -0.6655  0.0144
 3896TIP3    H133103   6.002   7.179  13.886  0.0894 -0.5320 -0.3476
 3896TIP3    H233104   6.109   7.287  13.889 -1.0046  0.5269  1.1677
 3897TIP3   OH233105   5.630   1.481  10.627 -0.2239 -0.0890  0.7024
 3897TIP3    H133106   5.708   1.426  10.617 -0.0269  0.1183  1.0908
 3897TIP3    H233107   5.571   1.452  10.557 -0.9123 -2.1378  2.0695
 3898TIP3   OH233108   6.244   6.989  11.838  0.1778  0.0748 -0.0813
 3898TIP3    H133109   6.216   6.898  11.828  0.3296 -0.0011  0.1807
 3898TIP3    H233110   6.290   6.991  11.922 -0.3285  0.5151  0.1850
 3899TIP3   OH233111   4.645   1.208  11.877 -0.0982  0.0438  0.3117
 3899TIP3    H133112   4.730   1.243  11.900  0.9766 -0.7394 -2.3200
 3899TIP3    H233113   4.595   1.283  11.845 -0.4675  0.5240  1.9711
 3900TIP3   OH233114   5.012   6.319  14.691  0.2798 -0.3856 -0.7662
 3900TIP3    H133115   5.044   6.246  14.744 -1.4434 -0.4217  0.2560
 3900TIP3    H233116   4.951   6.365  14.748 -0.8333  0.1817 -2.3930
 3901TIP3   OH233117   6.117   0.207  11.495  0.3080 -0.6922  0.5869
 3901TIP3    H133118   6.196   0.163  11.462  0.6060  0.3426 -0.1409
 3901TIP3    H233119   6.066   0.227  11.416 -0.3844 -0.8056  1.0043
 3902TIP3   OH233120   4.497   1.405  11.688  0.0029  0.1497 -0.1711
 3902TIP3    H133121   4.403   1.397  11.673 -0.2344 -1.0336  1.7776
 3902TIP3    H233122   4.509   1.494  11.720 -0.3624  0.4917 -0.9660
 3903TIP3   OH233123   3.122   0.373  12.084 -0.0768  0.1648 -0.4385
 3903TIP3    H133124   3.185   0.323  12.135 -0.8070 -1.1765 -0.8250
 3903TIP3    H233125   3.172   0.448  12.051  0.9392 -0.1075  0.4335
 3904TIP3   OH233126   0.827   3.077  10.776  0.4604 -0.8178 -0.3521
 3904TIP3    H133127   0.756   3.025  10.737  0.8562 -0.5558 -1.4392
 3904TIP3    H233128   0.813   3.070  10.870 -0.6782 -1.2429 -0.5441
 3905TIP3   OH233129   5.253   3.126  14.693  0.1165 -0.5407 -1.0519
 3905TIP3    H133130   5.246   3.060  14.762  2.9224 -0.1495 -0.3203
 3905TIP3    H233131   5.341   3.113  14.657 -0.8573  0.0263 -3.7995
 3906TIP3   OH233132   1.425   6.068  11.066 -0.3356 -0.9199  0.1806
 3906TIP3    H133133   1.495   6.133  11.068 -1.6256  0.4795  1.2957
 3906TIP3    H233134   1.412   6.043  11.157 -1.8222 -0.5459  0.0906
 3907TIP3   OH233135   5.313   0.860  13.624  0.1129 -0.1796 -0.1095
 3907TIP3    H133136   5.342   0.882  13.712  1.8508 -0.9749 -0.4621
 3907TIP3    H233137   5.368   0.915  13.567 -0.2797 -0.4348 -0.7391
 3908TIP3   OH233138   4.299   2.018  12.512 -0.2366  0.1611 -0.3798
 3908TIP3    H133139   4.213   2.042  12.547 -0.0950 -1.4854  1.1286
 3908TIP3    H233140   4.347   1.984  12.587  0.9540 -1.0637 -1.6775
 3909TIP3   OH233141   0.473   1.210  10.594  0.0656  0.2506 -0.0644
 3909TIP3    H133142   0.542   1.150  10.621  1.6718  2.0017 -0.1607
 3909TIP3    H233143   0.404   1.199  10.659  1.6018  0.4540  1.6191
 3910TIP3   OH233144   4.867   1.690  11.294  0.2746 -0.3141 -0.0293
 3910TIP3    H133145   4.802   1.626  11.263  1.9723 -0.7385 -2.8987
 3910TIP3    H233146   4.817   1.771  11.306 -1.2045 -1.2146  0.0590
 3911TIP3   OH233147   4.578   2.740  13.631  0.0007 -0.0902 -0.3744
 3911TIP3    H133148   4.581   2.649  13.601  0.4427 -0.2947  0.2813
 3911TIP3    H233149   4.645   2.745  13.699  0.0220  0.7455 -0.4503
 3912TIP3   OH233150   3.969   7.126  15.433 -0.4407 -0.8602  0.5089
 3912TIP3    H133151   3.919   7.181  15.494 -1.1347 -0.9569  0.0354
 3912TIP3    H233152   4.000   7.053  15.488 -1.0648 -0.9507  0.7522
 3913TIP3   OH233153   0.322   0.145  11.224 -0.7013  0.1940  0.1007
 3913TIP3    H133154   0.271   0.110  11.151  0.8531  0.8396 -1.3195
 3913TIP3    H233155   0.335   0.070  11.282 -1.3752 -0.4796 -0.6135
 3914TIP3   OH233156   5.350   5.759  14.285  0.2737 -0.4390 -0.1136
 3914TIP3    H133157   5.443   5.762  14.309 -0.0744  1.7811  0.9951
 3914TIP3    H233158   5.310   5.700  14.349  0.3004  1.3241  1.5407
 3915TIP3   OH233159   3.360   0.539  10.741 -0.0356 -0.1216 -0.8951
 3915TIP3    H133160   3.312   0.563  10.820  0.9052 -3.0498  0.6483
 3915TIP3    H233161   3.292   0.529  10.674 -1.1949 -0.7295  0.3549
 3916TIP3   OH233162   1.736   0.703  12.786 -0.3411 -0.1573  0.5339
 3916TIP3    H133163   1.724   0.744  12.701 -1.8306 -0.7662  0.4391
 3916TIP3    H233164   1.770   0.772  12.842 -0.0470  0.4301 -0.3625
 3917TIP3   OH233165   5.685   5.841  11.985 -0.4896 -0.4133 -0.0750
 3917TIP3    H133166   5.727   5.755  11.996  0.9629 -0.0741 -2.6124
 3917TIP3    H233167   5.740   5.886  11.921 -2.7749  1.4123 -0.8005
 3918TIP3   OH233168   5.272   6.925  15.713 -0.0404  0.7190 -0.7733
 3918TIP3    H133169   5.234   6.898  15.630  0.1699  1.1615 -1.0180
 3918TIP3    H233170   5.316   7.008  15.693 -1.6698  1.8453  0.2238
 3919TIP3   OH233171   6.060   1.726  13.196 -0.3080  0.0663  0.3578
 3919TIP3    H133172   6.002   1.802  13.186  0.1052  0.2100 -1.2026
 3919TIP3    H233173   6.025   1.662  13.135  1.1171  0.1306 -0.5402
 3920TIP3   OH233174   7.190   1.242  12.533 -0.1616 -0.0763  0.0953
 3920TIP3    H133175   7.278   1.207  12.523 -0.3862 -1.3709  2.3395
 3920TIP3    H233176   7.140   1.201  12.462  1.4900  2.5231 -2.7352
 3921TIP3   OH233177   6.976   1.974  10.629  0.1232  0.0206  0.2652
 3921TIP3    H133178   7.066   1.999  10.650  0.1363  0.3852 -0.2176
 3921TIP3    H233179   6.942   1.935  10.710  0.0716  1.6906  1.0697
 3922TIP3   OH233180   5.387   1.056  15.182  0.2023 -0.3872  0.0920
 3922TIP3    H133181   5.388   0.985  15.117  1.6870 -0.0295 -0.2931
 3922TIP3    H233182   5.437   1.021  15.256 -0.7128 -0.4561  0.6784
 3923TIP3   OH233183   5.813   6.568  12.280  0.1978 -0.4181  0.1106
 3923TIP3    H133184   5.883   6.597  12.339  1.5161 -2.9919 -0.1178
 3923TIP3    H233185   5.859   6.543  12.199 -1.2396 -0.0346 -0.8417
 3924TIP3   OH233186   0.090   0.895  13.543 -0.2171 -0.0186 -0.1998
 3924TIP3    H133187   0.095   0.804  13.572 -0.2732 -0.5920 -1.9437
 3924TIP3    H233188   0.173   0.934  13.572 -0.2656 -0.5604  0.6974
 3925TIP3   OH233189   6.943   0.981  12.716 -0.2960 -0.3442  0.2723
 3925TIP3    H133190   6.925   0.943  12.802 -0.3497  0.7512  0.7495
 3925TIP3    H233191   6.954   1.074  12.733 -0.5174 -0.0916 -0.9476
 3926TIP3   OH233192   6.371   1.949  12.691 -0.7659 -0.4509 -0.3469
 3926TIP3    H133193   6.349   1.967  12.783 -2.1030  1.4605 -0.9943
 3926TIP3    H233194   6.466   1.935  12.691 -0.4821  1.2280  1.1064
 3927TIP3   OH233195   4.607   0.528  14.698  0.1178  0.1557 -0.4159
 3927TIP3    H133196   4.544   0.556  14.764 -0.1550  1.1727 -1.0872
 3927TIP3    H233197   4.616   0.604  14.640 -1.0011 -1.3050 -2.5821
 3928TIP3   OH233198   5.802   7.204  14.989 -0.0668  0.4114 -0.6842
 3928TIP3    H133199   5.844   7.262  14.925 -1.5610  0.6820 -1.4312
 3928TIP3    H233200   5.718   7.182  14.949 -0.5721 -0.2424  0.7369
 3929TIP3   OH233201   5.941   1.565  12.650  0.1971  0.3040  0.1150
 3929TIP3    H133202   5.959   1.499  12.582  0.5860  0.5805 -0.0511
 3929TIP3    H233203   6.011   1.630  12.639 -1.2842  1.7408 -0.9641
 3930TIP3   OH233204   0.866   1.070  11.660 -0.2705 -0.5607 -0.1675
 3930TIP3    H133205   0.805   1.139  11.685  0.7770  0.8840 -1.5239
 3930TIP3    H233206   0.822   1.023  11.589 -0.4821 -0.5900 -0.0206
 3931TIP3   OH233207   0.634   3.233  11.354 -0.2732  0.1440 -0.2215
 3931TIP3    H133208   0.688   3.168  11.399  3.6650  1.9096 -2.1392
 3931TIP3    H233209   0.619   3.195  11.267  0.6477  1.0202 -0.7792
 3932TIP3   OH233210   0.421   1.751  11.997 -0.4168 -0.2548  0.4547
 3932TIP3    H133211   0.499   1.772  12.049 -0.3432 -0.7890  0.5577
 3932TIP3    H233212   0.439   1.791  11.912  0.4572 -1.2902  0.1367
 3933TIP3   OH233213   6.878   2.551  11.204  0.0114 -0.8814  0.2433
 3933TIP3    H133214   6.824   2.512  11.273  1.5573  0.3935  2.2449
 3933TIP3    H233215   6.967   2.524  11.226  0.9519  2.5018  0.8298
 3934TIP3   OH233216   1.844   1.954  13.987 -0.2063  0.2383  0.2317
 3934TIP3    H133217   1.912   1.908  14.037  1.6093  1.3298 -1.1627
 3934TIP3    H233218   1.770   1.893  13.987  0.2525 -0.3920  2.9769
 3935TIP3   OH233219   5.686   3.354  12.682 -0.3777  0.1840 -0.1827
 3935TIP3    H133220   5.717   3.301  12.755 -1.0731  0.1792  0.1129
 3935TIP3    H233221   5.686   3.444  12.716 -2.6507 -0.0452  0.5093
 3936TIP3   OH233222   0.077   6.493  13.392  0.1254  0.5789 -0.4895
 3936TIP3    H133223   0.143   6.424  13.385 -0.4957 -0.2027  1.0298
 3936TIP3    H233224   0.063   6.523  13.302 -0.2326 -1.8988 -1.2852
 3937TIP3   OH233225   2.067   5.991  11.373 -0.2358  0.3184  0.5959
 3937TIP3    H133226   2.104   5.919  11.322 -1.6405  0.4594 -0.6475
 3937TIP3    H233227   1.976   5.996  11.344 -0.2667  2.3077  1.0049
 3938TIP3   OH233228   7.241   1.464  11.523  0.0004 -0.0563  0.0252
 3938TIP3    H133229   7.216   1.494  11.436 -0.5313  0.7212  0.4437
 3938TIP3    H233230   7.312   1.402  11.507  0.3191  0.5411 -0.9260
 3939TIP3   OH233231   4.547   1.658  11.805  0.0134  0.0309 -0.2117
 3939TIP3    H133232   4.611   1.677  11.737  0.0710  0.5288 -0.0250
 3939TIP3    H233233   4.515   1.745  11.833 -1.1663 -0.2332 -0.7055
 3940TIP3   OH233234   7.038   1.633  13.420 -0.3517 -0.1284  0.1452
 3940TIP3    H133235   6.991   1.708  13.457 -1.3830  0.7055 -2.7349
 3940TIP3    H233236   6.985   1.607  13.345  1.5018 -1.9829 -0.5427
 3941TIP3   OH233237   5.847   0.517  12.608  1.0265  0.0234 -0.1120
 3941TIP3    H133238   5.798   0.571  12.669 -0.7096 -0.4121 -1.0764
 3941TIP3    H233239   5.818   0.546  12.521  1.2214 -1.3718 -0.6701
 3942TIP3   OH233240   6.528   6.772  11.058 -0.0415 -0.1080 -0.0568
 3942TIP3    H133241   6.480   6.831  11.000 -0.1288 -1.1091 -1.0246
 3942TIP3    H233242   6.459   6.724  11.105  0.0262 -0.2157 -0.0691
 3943TIP3   OH233243   6.078   5.115  14.410 -0.5014 -0.5661  0.1522
 3943TIP3    H133244   6.163   5.099  14.367 -0.1307 -1.8488  1.3390
 3943TIP3    H233245   6.034   5.030  14.408  0.6522 -1.3752  4.7339
 3944TIP3   OH233246   5.552   0.404  14.411 -0.2836  0.8387 -0.1061
 3944TIP3    H133247   5.636   0.394  14.455 -1.0813 -0.3715  1.1777
 3944TIP3    H233248   5.572   0.458  14.334  1.5017  1.2490  0.6098
 3945TIP3   OH233249   7.109   0.672  11.880 -0.0340  0.1604  0.0881
 3945TIP3    H133250   7.070   0.584  11.874  0.0017  0.2170 -0.9786
 3945TIP3    H233251   7.190   0.665  11.830  0.4376  0.5458  0.7988
 3946TIP3   OH233252   7.031   3.192  11.144 -0.1835 -0.5134  0.0583
 3946TIP3    H133253   7.121   3.224  11.150 -0.3309  0.0428 -0.5351
 3946TIP3    H233254   7.017   3.143  11.224  1.0806 -1.7201 -0.4416
 3947TIP3   OH233255   1.176   1.286  13.730  0.2256 -0.1818  0.1768
 3947TIP3    H133256   1.171   1.214  13.669 -0.4028 -0.3344  0.3973
 3947TIP3    H233257   1.091   1.331  13.721  0.8918  0.9606 -0.4935
 3948TIP3   OH233258   4.964   7.273  10.645  0.1213  0.2584  0.3899
 3948TIP3    H133259   5.043   7.230  10.612 -0.8264 -0.7214 -0.6477
 3948TIP3    H233260   4.923   7.209  10.702  0.5914  1.1434  1.7538
 3949TIP3   OH233261   7.009   0.745  12.124  0.2778 -0.0854 -0.2311
 3949TIP3    H133262   6.919   0.767  12.100  0.3058  0.7544  0.4642
 3949TIP3    H233263   7.058   0.751  12.041 -0.2009 -0.0303 -0.5092
 3950TIP3   OH233264   5.336   3.143  12.876 -0.2193  0.3166 -0.4130
 3950TIP3    H133265   5.262   3.203  12.891 -2.6937 -2.4671 -1.0132
 3950TIP3    H233266   5.376   3.133  12.963 -1.4766  0.6890  0.2262
 3951TIP3   OH233267   3.099   2.785   0.567 -0.0325  0.2396 -0.3042
 3951TIP3    H133268   3.091   2.777   0.662 -0.6141  1.1789 -0.2753
 3951TIP3    H233269   3.015   2.819   0.538  0.5262  1.0219 -1.0342
 3952TIP3   OH233270   4.715   0.541  12.079  0.3962  0.3302  0.8214
 3952TIP3    H133271   4.778   0.545  12.151 -0.2666 -0.7142  1.4726
 3952TIP3    H233272   4.662   0.620  12.089  0.3620  0.2300  1.4351
 3953TIP3   OH233273   5.022   1.076  13.411  0.0972 -0.3868 -0.0657
 3953TIP3    H133274   4.932   1.076  13.379 -0.3495  1.1856  1.1658
 3953TIP3    H233275   5.074   1.052  13.334 -1.4614 -2.6383 -0.4651
 3954TIP3   OH233276   6.559   2.185   0.640  0.2100  0.1996 -0.2226
 3954TIP3    H133277   6.602   2.251   0.585  1.5361  0.7488  1.4025
 3954TIP3    H233278   6.555   2.107   0.586  1.6781  0.6674 -1.0374
 3955TIP3   OH233279   0.500   1.111  12.302  0.4963  0.0838  0.0919
 3955TIP3    H133280   0.455   1.066  12.229  1.5660  0.6011 -0.8966
 3955TIP3    H233281   0.500   1.203  12.277 -0.0779  0.4186  1.2710
 3956TIP3   OH233282   7.130   1.910  14.098 -0.6474  0.3065  0.1183
 3956TIP3    H133283   7.199   1.915  14.032 -0.2624 -0.1351  0.4830
 3956TIP3    H233284   7.054   1.874  14.052  0.1399 -1.6873  0.3211
 3957TIP3   OH233285   6.868   1.065  14.416 -0.0939 -0.1395  0.3184
 3957TIP3    H133286   6.881   0.970  14.421  1.1576 -0.0138 -0.5876
 3957TIP3    H233287   6.798   1.076  14.352 -0.7134 -0.4799  0.9245
 3958TIP3   OH233288   0.658   1.625  12.330  0.3200  0.1512 -0.2461
 3958TIP3    H133289   0.691   1.600  12.244 -1.1267  0.4268 -0.8949
 3958TIP3    H233290   0.657   1.721  12.329  1.3129  0.1728  0.4710
 3959TIP3   OH233291   1.098   2.359  12.842  0.4603  0.4662  0.0507
 3959TIP3    H133292   1.149   2.292  12.888  0.6120  0.1986 -0.4964
 3959TIP3    H233293   1.138   2.442  12.868  0.1758  0.3603  0.8529
 3960TIP3   OH233294   5.820   0.990  12.502 -0.2825 -0.0373  0.4208
 3960TIP3    H133295   5.863   0.940  12.433 -0.7979  2.0697 -1.4888
 3960TIP3    H233296   5.870   0.970  12.581  1.1265 -1.4973 -0.8100
 3961TIP3   OH233297   6.959   6.810  13.326  0.3839 -0.3716  0.0963
 3961TIP3    H133298   6.894   6.858  13.378  1.0365 -0.6197  1.1476
 3961TIP3    H233299   6.934   6.827  13.235 -0.7940  0.0288  0.4865
 3962TIP3   OH233300   5.253   1.263  15.079  0.1603  1.0489  0.0636
 3962TIP3    H133301   5.299   1.196  15.130  0.0589  0.5686 -0.4649
 3962TIP3    H233302   5.161   1.238  15.084  0.2554  0.3827 -1.2308
 3963TIP3   OH233303   4.812   5.528  13.690  0.3009  0.1885  0.2361
 3963TIP3    H133304   4.838   5.563  13.604  1.7004 -0.0236  0.5542
 3963TIP3    H233305   4.761   5.598  13.730  0.2332  0.5605 -0.4908
 3964TIP3   OH233306   0.171   2.261  12.614  0.1263  0.4820 -0.3387
 3964TIP3    H133307   0.174   2.196  12.684  1.2243  1.0402  0.1480
 3964TIP3    H233308   0.091   2.311  12.630 -1.1802 -1.2630 -1.1960
 3965TIP3   OH233309   3.084   7.192  12.658 -0.4408  0.3700 -0.0937
 3965TIP3    H133310   3.025   7.125  12.690 -0.9584  1.4640  1.2832
 3965TIP3    H233311   3.032   7.241  12.594 -0.8848  1.0414  0.7750
 3966TIP3   OH233312   6.040   0.331  12.674 -0.3793  0.5087  0.4915
 3966TIP3    H133313   6.007   0.354  12.761  0.5237  0.8744  0.7409
 3966TIP3    H233314   5.965   0.346  12.616 -0.9786  0.2941  1.1926
 3967TIP3   OH233315   5.590   3.074  11.078  0.5035 -0.1688  0.6841
 3967TIP3    H133316   5.648   3.147  11.101 -0.8432  0.5555  1.8337
 3967TIP3    H233317   5.555   3.098  10.993  0.2244  0.4376  0.9653
 3968TIP3   OH233318   5.726   1.069  12.949 -0.0244 -0.4130 -0.0403
 3968TIP3    H133319   5.768   1.033  12.871 -0.1740  0.1300 -0.3761
 3968TIP3    H233320   5.633   1.059  12.933 -0.0233 -1.7906  0.7916
 3969TIP3   OH233321   6.831   1.361  11.983  0.2465  0.9928  0.2124
 3969TIP3    H133322   6.771   1.424  11.944 -0.2793  0.4035  0.0591
 3969TIP3    H233323   6.918   1.395  11.963  0.0129  0.1522 -2.3957
 3970TIP3   OH233324   5.831   3.891  11.817  0.1364 -0.1848  0.0044
 3970TIP3    H133325   5.839   3.811  11.765  2.6214 -0.9599  1.5013
 3970TIP3    H233326   5.884   3.956  11.770  2.0658 -0.7777  1.3517
 3971TIP3   OH233327   3.498   7.212  14.307  0.6144 -0.2777  0.2289
 3971TIP3    H133328   3.484   7.252  14.221  0.0080  0.9995  0.9148
 3971TIP3    H233329   3.410   7.206  14.345  1.1000  0.9779  1.5597
 3972TIP3   OH233330   6.399   0.767  13.445 -0.4103  0.2429 -0.3363
 3972TIP3    H133331   6.341   0.725  13.382 -0.1966 -1.0909  0.3376
 3972TIP3    H233332   6.481   0.780  13.397 -1.1019  1.7292 -1.1515
 3973TIP3   OH233333   5.062   2.908  12.847  0.6244  0.0986  0.1118
 3973TIP3    H133334   5.122   2.836  12.827 -0.8976 -2.3004  3.7059
 3973TIP3    H233335   5.111   2.962  12.910  0.0870 -0.2665  0.8411
 3974TIP3   OH233336   4.768   0.681  13.465 -0.0587 -0.0128  0.3463
 3974TIP3    H133337   4.696   0.621  13.484 -0.4374 -0.2983 -1.7895
 3974TIP3    H233338   4.844   0.642  13.508 -0.6746 -1.0774  0.4949
 3975TIP3   OH233339   4.931   2.097  13.101 -0.4625 -0.0331  0.2378
 3975TIP3    H133340   5.025   2.091  13.121 -0.6992  1.8179  2.2059
 3975TIP3    H233341   4.892   2.022  13.147 -0.2601  0.8242  1.8566
 3976TIP3   OH233342   0.923   3.149  13.998  0.3244 -0.6587 -0.2614
 3976TIP3    H133343   0.899   3.072  14.049  0.8248 -0.3645  0.4233
 3976TIP3    H233344   0.960   3.113  13.917 -0.4412 -1.1240 -0.4063
 3977TIP3   OH233345   2.591   4.427  13.200 -0.0933 -0.0097 -0.0629
 3977TIP3    H133346   2.662   4.454  13.259 -0.8807  0.4953  0.6662
 3977TIP3    H233347   2.521   4.491  13.217 -0.1308  0.4676 -1.9263
 3978TIP3   OH233348   1.677   1.494  13.735 -0.6551 -0.1512 -0.2498
 3978TIP3    H133349   1.626   1.427  13.780  0.3936 -0.4018  0.6042
 3978TIP3    H233350   1.614   1.563  13.715 -1.3170 -0.4050  0.8986
 3979TIP3   OH233351   0.766   4.179  11.478  1.0961  0.0421 -0.4191
 3979TIP3    H133352   0.677   4.214  11.491  1.6010  1.6022 -0.9806
 3979TIP3    H233353   0.754   4.108  11.416  0.4443  1.4305 -1.9293
 3980TIP3   OH233354   0.149   2.580  15.396 -0.0970 -0.4182  0.0199
 3980TIP3    H133355   0.199   2.661  15.383 -0.6758 -0.3185 -1.5844
 3980TIP3    H233356   0.075   2.587  15.337 -1.1644 -1.3069  1.2173
 3981TIP3   OH233357   4.631   2.824  11.738  0.5441 -0.5109 -0.4086
 3981TIP3    H133358   4.663   2.768  11.668 -0.7935 -0.4187 -1.1082
 3981TIP3    H233359   4.543   2.792  11.756 -0.6448  2.0079 -1.5507
 3982TIP3   OH233360   1.654   4.417  13.420  0.2371 -0.2040  0.2654
 3982TIP3    H133361   1.691   4.336  13.454  0.8536 -0.8374 -1.8528
 3982TIP3    H233362   1.560   4.399  13.414  0.2970 -0.5584  0.3638
 3983TIP3   OH233363   2.062   2.833  10.675 -0.1191 -0.0890  0.6347
 3983TIP3    H133364   1.967   2.840  10.677 -0.0707  2.2445 -2.4203
 3983TIP3    H233365   2.080   2.756  10.621 -0.2896  0.7430 -0.6329
 3984TIP3   OH233366   0.084   2.147  12.863 -0.0182  0.1972  0.4308
 3984TIP3    H133367   0.140   2.070  12.870 -1.7210 -1.2803 -1.7003
 3984TIP3    H233368   0.030   2.144  12.942 -0.8408 -1.4334 -0.1746
 3985TIP3   OH233369   2.278   1.803  11.671  0.0781 -0.5925 -0.0122
 3985TIP3    H133370   2.212   1.871  11.654  1.5838  1.2859  1.4497
 3985TIP3    H233371   2.332   1.803  11.591  1.8900  2.1151  1.1239
 3986TIP3   OH233372   0.332   2.435  12.824 -0.6641 -0.5456  0.3551
 3986TIP3    H133373   0.308   2.434  12.731  1.1651 -2.7798 -0.1441
 3986TIP3    H233374   0.248   2.428  12.870 -1.5651  0.2297 -1.1213
 3987TIP3   OH233375   2.580   1.880  10.637  0.4693 -0.1936 -0.3052
 3987TIP3    H133376   2.588   1.843  10.549 -0.4875  1.4846 -1.1167
 3987TIP3    H233377   2.495   1.924  10.637  0.3901 -0.3203  1.5200
 3988TIP3   OH233378   1.547   2.711  13.058  0.3545  1.1283  0.3551
 3988TIP3    H133379   1.524   2.619  13.046 -0.4445  1.3081  0.4779
 3988TIP3    H233380   1.482   2.759  13.008  1.5012  1.5945 -0.7308
 3989TIP3   OH233381   1.178   3.153  13.184 -0.0474  0.4646  0.6252
 3989TIP3    H133382   1.244   3.210  13.144  0.8023 -1.3884 -0.7227
 3989TIP3    H233383   1.224   3.110  13.256  0.0332 -0.2545  0.1613
 3990TIP3   OH233384   1.612   1.760  13.608 -0.5484 -1.0343 -0.0826
 3990TIP3    H133385   1.705   1.770  13.590 -0.4591 -0.8575  0.4883
 3990TIP3    H233386   1.578   1.849  13.610 -0.5440 -1.0545  0.7374
 3991TIP3   OH233387   2.484   2.038  13.716 -0.3873 -0.0880 -0.2196
 3991TIP3    H133388   2.530   1.955  13.709 -0.1274  0.1970 -2.2195
 3991TIP3    H233389   2.413   2.021  13.779  0.8458 -1.2408  0.8873
 3992TIP3   OH233390   1.581   2.173  14.044 -0.3270 -0.8108  0.1232
 3992TIP3    H133391   1.589   2.089  13.999 -0.5427 -0.8140  0.0901
 3992TIP3    H233392   1.488   2.194  14.039 -0.3573 -0.8263  0.5861
 3993TIP3   OH233393   2.099   0.272  11.763  0.1064 -0.3577 -0.5105
 3993TIP3    H133394   2.153   0.270  11.842 -0.0890  0.2703 -0.3620
 3993TIP3    H233395   2.011   0.295  11.794 -0.4093 -2.0754 -0.6652
 3994TIP3   OH233396   2.150   3.380  15.370  0.5789 -0.0488 -0.2465
 3994TIP3    H133397   2.197   3.299  15.350  1.2879  0.1687  0.5175
 3994TIP3    H233398   2.096   3.358  15.446  0.1990 -0.0055 -0.4976
 3995TIP3   OH233399   7.017   3.499  12.921 -0.2400 -0.3025 -0.6116
 3995TIP3    H133400   6.962   3.506  12.999 -0.9389 -0.2378 -1.0996
 3995TIP3    H233401   7.064   3.582  12.917 -1.6282  0.4697 -1.3013
 3996TIP3   OH233402   1.396   0.876  10.935 -0.3306  0.1792 -0.1361
 3996TIP3    H133403   1.419   0.969  10.925 -0.4800  0.3145  0.7693
 3996TIP3    H233404   1.476   0.834  10.964 -0.4174  0.1318  0.0367
 3997TIP3   OH233405   6.333   5.223  12.915  0.0138  0.3024  0.0968
 3997TIP3    H133406   6.252   5.210  12.867  0.0919 -0.3150  0.1318
 3997TIP3    H233407   6.381   5.288  12.864  0.0966 -0.3507 -0.6602
 3998TIP3   OH233408   2.716   3.765  12.639  0.2222  0.1908 -0.0346
 3998TIP3    H133409   2.769   3.692  12.671  0.3495  0.8234  1.2286
 3998TIP3    H233410   2.744   3.777  12.548 -0.6702 -2.1230 -0.6531
 3999TIP3   OH233411   3.082   3.510  11.127 -0.0250 -0.1736  0.4025
 3999TIP3    H133412   3.156   3.451  11.140 -0.8074 -1.2243  0.1007
 3999TIP3    H233413   3.111   3.570  11.059  0.5665 -0.5532  0.3150
 4000TIP3   OH233414   2.775   2.183  15.096 -0.3343  0.0680 -0.1758
 4000TIP3    H133415   2.682   2.159  15.103 -0.1433 -0.6893 -0.1386
 4000TIP3    H233416   2.775   2.271  15.059 -1.0804  0.2035  0.1368
 4001TIP3   OH233417   3.789   1.084  12.261  0.0420 -0.0316  0.3298
 4001TIP3    H133418   3.710   1.047  12.300 -0.2306  1.7473  1.5011
 4001TIP3    H233419   3.848   1.099  12.335  1.7020 -1.8319 -0.5885
 4002TIP3   OH233420   0.407   2.957  11.992 -0.2932 -0.2802  0.7308
 4002TIP3    H133421   0.442   2.919  11.911  0.3480  1.3038  0.2401
 4002TIP3    H233422   0.370   2.883  12.040  0.9254 -1.5021 -0.1945
 4003TIP3   OH233423   3.510   3.239  14.151  0.5185 -0.2356  0.1612
 4003TIP3    H133424   3.577   3.228  14.084  0.9626 -0.8930  0.7138
 4003TIP3    H233425   3.487   3.332  14.146  0.3815 -0.3274 -1.0539
 4004TIP3   OH233426   2.318   2.648  13.909  0.3136  0.3266  0.1321
 4004TIP3    H133427   2.353   2.626  13.995 -0.8620  0.1120  0.5645
 4004TIP3    H233428   2.230   2.611  13.909 -0.6661  2.5944 -0.1904
 4005TIP3   OH233429   0.630   3.518  11.704  0.2387  0.1858  0.1125
 4005TIP3    H133430   0.630   3.591  11.643  0.6631  1.1644  1.2636
 4005TIP3    H233431   0.598   3.444  11.653 -2.2268  1.6236 -0.4979
 4006TIP3   OH233432   0.575   2.088  12.714  0.5925 -0.1984 -0.3666
 4006TIP3    H133433   0.587   2.160  12.776 -1.0197 -0.6604  0.5072
 4006TIP3    H233434   0.661   2.076  12.674  1.3963  0.8063  1.0312
 4007TIP3   OH233435   2.178   0.924  12.551 -0.4053 -0.2291 -0.5069
 4007TIP3    H133436   2.213   0.842  12.585 -0.7761  0.4072  1.4883
 4007TIP3    H233437   2.084   0.910  12.545 -0.3561 -0.2991 -1.2173
 4008TIP3   OH233438   0.802   3.059  11.052 -0.3869  0.1885 -0.4351
 4008TIP3    H133439   0.712   3.090  11.053  0.1407  1.7281  1.6085
 4008TIP3    H233440   0.800   2.980  11.107 -0.2957  0.7760  0.4105
 4009TIP3   OH233441   2.016   1.778  15.227  0.0901 -0.0700  0.0380
 4009TIP3    H133442   2.050   1.743  15.145  0.6448 -0.9197  0.6245
 4009TIP3    H233443   1.962   1.853  15.200 -3.5647 -3.0845 -1.4977
 4010TIP3   OH233444   6.133   0.788  14.314 -0.2160  0.4799 -0.0019
 4010TIP3    H133445   6.198   0.728  14.276  0.8287  1.5181  0.1439
 4010TIP3    H233446   6.184   0.863  14.343 -1.0774 -0.0075  2.9320
 4011TIP3   OH233447   6.919   4.606  14.904 -0.1794 -0.3594 -0.2198
 4011TIP3    H133448   6.903   4.689  14.949 -0.0315 -0.6771  0.4241
 4011TIP3    H233449   6.982   4.627  14.836  1.0088 -0.2288  0.9054
 4012TIP3   OH233450   1.422   0.652  13.811 -0.4295 -0.1788 -0.1876
 4012TIP3    H133451   1.471   0.580  13.850 -0.3821 -0.0888 -0.0817
 4012TIP3    H233452   1.487   0.721  13.796 -0.5167 -0.0708 -0.0716
 4013TIP3   OH233453   2.106   2.673  14.877 -0.0265  0.3345  0.3924
 4013TIP3    H133454   2.152   2.731  14.815  0.7611 -0.6352  0.0574
 4013TIP3    H233455   2.036   2.728  14.913 -0.2940  1.0128 -1.1075
 4014TIP3   OH233456   1.124   1.369  11.278  0.4576 -0.2194 -0.1019
 4014TIP3    H133457   1.160   1.342  11.363  2.1851 -0.4263 -0.8857
 4014TIP3    H233458   1.127   1.464  11.280  0.4552 -0.2226  0.0842
 4015TIP3   OH233459   1.148   2.259  12.526 -0.4580 -0.7070  0.0647
 4015TIP3    H133460   1.190   2.316  12.589 -1.1980 -0.4355  0.3167
 4015TIP3    H233461   1.197   2.273  12.445 -1.2507  1.0396 -0.1394
 4016TIP3   OH233462   0.016   5.924  12.603 -0.1034 -0.1408  0.0753
 4016TIP3    H133463   0.089   5.864  12.620  0.2306  0.3593  0.4291
 4016TIP3    H233464   0.001   5.967  12.687 -0.1443  0.4987 -0.2613
 4017TIP3   OH233465   0.687   0.778  12.627 -0.2220  0.5266  0.3473
 4017TIP3    H133466   0.694   0.695  12.580  0.8599 -0.3077  1.9223
 4017TIP3    H233467   0.622   0.829  12.578  0.0621 -0.7464 -1.3684
 4018TIP3   OH233468   0.733   3.374  13.606  0.4134 -0.5296 -0.2585
 4018TIP3    H133469   0.766   3.390  13.518  1.4826  0.6436  0.3366
 4018TIP3    H233470   0.688   3.456  13.629 -0.3284 -1.0284  0.0753
 4019TIP3   OH233471   2.043   6.915  11.405 -0.5313  0.1543 -0.0684
 4019TIP3    H133472   1.950   6.938  11.408 -1.1187 -2.0960 -0.3663
 4019TIP3    H233473   2.044   6.822  11.385  1.8075  0.1604 -0.0854
 4020TIP3   OH233474   0.319   3.878  10.657 -0.0449  0.3011  0.8572
 4020TIP3    H133475   0.262   3.924  10.719 -0.3823  0.9117  0.1077
 4020TIP3    H233476   0.283   3.789  10.653 -2.3433  1.2598 -1.2712
 4021TIP3   OH233477   0.585   4.386  12.560 -0.5984  0.7348  0.0960
 4021TIP3    H133478   0.539   4.409  12.480  0.1592  1.0095 -0.2638
 4021TIP3    H233479   0.517   4.386  12.628 -0.8010  3.1507 -0.0442
 4022TIP3   OH233480   1.365   4.585  13.232 -0.0842  0.3061  0.9902
 4022TIP3    H133481   1.295   4.604  13.295 -0.4842 -0.2832  0.7278
 4022TIP3    H233482   1.354   4.492  13.210 -0.9683  0.8721 -1.1550
 4023TIP3   OH233483   1.610   5.524  14.290  0.2238 -0.2378 -0.6845
 4023TIP3    H133484   1.695   5.568  14.289 -0.1509  0.5968  1.1363
 4023TIP3    H233485   1.586   5.515  14.198  0.6822  2.6724 -1.1197
 4024TIP3   OH233486   1.256   3.501  15.424 -0.1785  0.0930 -0.1790
 4024TIP3    H133487   1.317   3.496  15.497 -2.0152 -0.8157  1.3268
 4024TIP3    H233488   1.245   3.410  15.395  0.3173  0.4110 -1.4215
 4025TIP3   OH233489   1.938   3.502  15.961  0.3208 -0.0645  0.2505
 4025TIP3    H133490   1.915   3.488  16.052 -0.9991  1.5698  0.2029
 4025TIP3    H233491   1.854   3.514  15.916  1.0300  0.9671 -0.8502
 4026TIP3   OH233492   1.984   3.908  14.838  0.1031 -0.3437 -0.8193
 4026TIP3    H133493   2.072   3.927  14.870  0.5627 -0.7255 -1.8190
 4026TIP3    H233494   1.965   3.980  14.777 -0.8043  0.4394  0.3800
 4027TIP3   OH233495   7.065   1.884  11.153 -0.5169 -0.2433 -0.1683
 4027TIP3    H133496   7.103   1.971  11.164 -0.6342 -0.2811  0.6149
 4027TIP3    H233497   7.129   1.836  11.100  0.2113 -0.1009  0.5645
 4028TIP3   OH233498   1.734   2.700  14.674  0.5008 -0.2211  0.2869
 4028TIP3    H133499   1.676   2.711  14.750  0.5217  3.5965 -0.1477
 4028TIP3    H233500   1.677   2.706  14.598  1.0690  0.5343 -0.0863
 4029TIP3   OH233501   2.684   4.024  12.316 -0.1266  0.0319 -0.1897
 4029TIP3    H133502   2.775   4.052  12.303 -0.6250  2.0675  0.5686
 4029TIP3    H233503   2.649   4.084  12.382 -1.6604 -1.5330  0.4584
 4030TIP3   OH233504   1.811   1.375  14.052  0.3105  0.4467  0.1633
 4030TIP3    H133505   1.822   1.375  14.147 -1.0208 -0.8261  0.3437
 4030TIP3    H233506   1.893   1.341  14.018  0.6540  0.5534  0.8827
 4031TIP3   OH233507   6.925   2.373  13.297  0.0287 -0.3129 -0.5971
 4031TIP3    H133508   6.980   2.412  13.228 -0.4244  0.6298 -0.4257
 4031TIP3    H233509   6.912   2.283  13.268  2.0845 -0.6976 -0.4006
 4032TIP3   OH233510   0.564   1.939  13.364 -0.4475  0.4936  0.2611
 4032TIP3    H133511   0.543   2.003  13.295 -1.1028  0.4364  0.4093
 4032TIP3    H233512   0.583   1.858  13.316  0.1235  0.7279  0.0883
 4033TIP3   OH233513   0.711   3.817  13.726  0.5914 -1.1419  0.2432
 4033TIP3    H133514   0.654   3.820  13.649  0.3425 -1.5807  0.4070
 4033TIP3    H233515   0.710   3.725  13.753  1.0263 -1.0689  0.5101
 4034TIP3   OH233516   1.834   2.512  13.680  0.1648 -0.4100  0.2492
 4034TIP3    H133517   1.779   2.436  13.701  0.6624 -1.1041 -0.9113
 4034TIP3    H233518   1.787   2.587  13.719 -0.3634 -1.2944  1.3418
 4035TIP3   OH233519   0.492   0.784  12.066  0.1194  0.1715  0.0786
 4035TIP3    H133520   0.431   0.714  12.086  0.8491 -0.0329  1.6431
 4035TIP3    H233521   0.575   0.756  12.105  1.0759  0.7130 -1.5031
 4036TIP3   OH233522   1.046   0.261  10.506 -0.5668 -0.4241 -0.1091
 4036TIP3    H133523   0.996   0.266  10.588 -1.2411  1.2749 -0.5956
 4036TIP3    H233524   0.979   0.267  10.438  0.2501  1.5116 -0.7679
 4037TIP3   OH233525   0.937   3.354  10.437  0.2447  0.0619  0.0758
 4037TIP3    H133526   0.877   3.428  10.451 -0.5108 -0.7766  1.3820
 4037TIP3    H233527   1.024   3.392  10.446 -0.0499  1.4428 -2.5415
 4038TIP3   OH233528   0.153   3.300  10.877  0.7181  0.4281  0.4899
 4038TIP3    H133529   0.248   3.305  10.890  0.6558 -0.9649  1.5909
 4038TIP3    H233530   0.138   3.213  10.840 -0.2979 -0.0256  1.9331
 4039TIP3   OH233531   6.448   3.705  12.575 -0.6466  0.3211 -0.3300
 4039TIP3    H133532   6.442   3.732  12.667  0.5003  0.4291 -0.2866
 4039TIP3    H233533   6.473   3.613  12.578 -2.2951 -0.1599 -0.5231
 4040TIP3   OH233534   0.702   1.420  15.009  0.0350  0.4164  0.4693
 4040TIP3    H133535   0.646   1.469  14.949  0.4812 -2.9992 -2.9178
 4040TIP3    H233536   0.790   1.456  14.995  0.0381  0.0390 -0.4919
 4041TIP3   OH233537   3.520   2.541  12.184  0.6227  0.1835 -0.5035
 4041TIP3    H133538   3.564   2.529  12.100 -0.5736 -0.5164 -1.0345
 4041TIP3    H233539   3.581   2.504  12.248  1.2295  0.0759 -1.1306
 4042TIP3   OH233540   0.745   1.879  11.659  0.5871  0.6600  0.3270
 4042TIP3    H133541   0.651   1.876  11.680  0.4756  0.9724 -0.1174
 4042TIP3    H233542   0.764   1.972  11.648  1.0189  0.6149  0.7183
 4043TIP3   OH233543   2.985   1.692  12.432 -0.2689 -0.3937  0.3996
 4043TIP3    H133544   2.989   1.604  12.469 -2.1373 -1.0376 -0.8818
 4043TIP3    H233545   2.900   1.726  12.461  0.2435  0.8102  0.4985
 4044TIP3   OH233546   7.194   3.858  11.382  0.9902  0.0743 -0.6040
 4044TIP3    H133547   7.186   3.779  11.329  2.5257 -0.0592 -0.6779
 4044TIP3    H233548   7.252   3.915  11.332  0.4305  0.9742 -0.2370
 4045TIP3   OH233549   1.805   2.507  10.306 -0.3858 -0.2774  0.2739
 4045TIP3    H133550   1.846   2.424  10.328  1.0519  0.1578 -0.6955
 4045TIP3    H233551   1.775   2.496  10.216  1.1883  0.7650 -0.3925
 4046TIP3   OH233552   2.787   2.977  13.099  0.0338  0.9812 -0.0212
 4046TIP3    H133553   2.765   3.049  13.158  1.1021  1.1423  0.1939
 4046TIP3    H233554   2.879   2.992  13.077 -0.0323  0.2607 -0.7995
 4047TIP3   OH233555   6.664   1.722  12.919  0.2726  0.4887  0.2025
 4047TIP3    H133556   6.733   1.671  12.877 -0.2495  0.1306 -0.2203
 4047TIP3    H233557   6.699   1.811  12.924  1.5886 -0.0854  1.8160
 4048TIP3   OH233558   1.469   1.524  11.346 -0.1297  0.3598 -0.5142
 4048TIP3    H133559   1.377   1.521  11.370  0.3497 -1.8084  1.2045
 4048TIP3    H233560   1.479   1.607  11.300 -2.3028  2.0174  1.8690
 4049TIP3   OH233561   1.723   1.075  12.805  0.4330 -0.1095  0.2661
 4049TIP3    H133562   1.739   1.046  12.895  2.5292  0.3918  0.0754
 4049TIP3    H233563   1.634   1.110  12.807 -0.0690 -1.4335  1.7982
 4050TIP3   OH233564   6.025   1.783  12.514  0.2163 -0.5701  0.2765
 4050TIP3    H133565   5.931   1.789  12.531  0.2849  3.3007 -0.3389
 4050TIP3    H233566   6.031   1.736  12.430 -1.2109 -0.0217 -0.1552
 4051TIP3   OH233567   6.642   0.904  11.748  0.3544 -0.4924  0.0824
 4051TIP3    H133568   6.690   0.850  11.685 -0.1761 -1.1436  0.2329
 4051TIP3    H233569   6.558   0.859  11.759 -0.2486  0.5801 -0.0906
 4052TIP3   OH233570   2.060   4.225  15.150  0.5788  0.2353  0.2774
 4052TIP3    H133571   1.991   4.287  15.128  1.0061 -0.0324 -1.9900
 4052TIP3    H233572   2.089   4.190  15.065  3.6543  0.4979  1.1437
 4053TIP3   OH233573   0.116   4.037  13.490  0.1763 -0.0643  0.4125
 4053TIP3    H133574   0.147   4.097  13.559 -0.3772  1.1953 -0.4219
 4053TIP3    H233575   0.155   4.071  13.410 -1.2574 -0.0168 -0.2709
 4054TIP3   OH233576   1.294   3.783  13.788  0.2448  0.0605  0.1391
 4054TIP3    H133577   1.243   3.862  13.766  1.5935  0.1818 -2.7894
 4054TIP3    H233578   1.297   3.733  13.706  0.0483 -2.7070  1.7599
 4055TIP3   OH233579   0.741   0.255  12.123 -0.4801  0.4166 -0.3867
 4055TIP3    H133580   0.790   0.189  12.172 -0.4843  0.3647 -0.4534
 4055TIP3    H233581   0.660   0.211  12.097  0.6986 -0.4245 -2.8054
 4056TIP3   OH233582   3.542   3.862  12.799 -0.7249 -0.6055  0.4736
 4056TIP3    H133583   3.474   3.925  12.823  0.0347  0.2781  0.3696
 4056TIP3    H233584   3.574   3.829  12.883 -0.8052 -0.4955  0.5481
 4057TIP3   OH233585   7.044   1.756  10.288  0.0255  0.2841  0.8161
 4057TIP3    H133586   7.132   1.783  10.315  0.9385  0.1490 -1.8613
 4057TIP3    H233587   6.993   1.755  10.369  1.7802  3.0520  2.0313
 4058TIP3   OH233588   1.276   1.924  12.446 -0.1787  0.1320  0.5012
 4058TIP3    H133589   1.229   1.954  12.524  0.4754  0.5522  0.7385
 4058TIP3    H233590   1.223   1.954  12.372 -0.8645 -0.3785  0.7852
 4059TIP3   OH233591   6.895   3.619  11.772  0.0328 -0.3588 -0.6870
 4059TIP3    H133592   6.813   3.612  11.723 -1.3621  0.9804  1.3650
 4059TIP3    H233593   6.946   3.685  11.724 -0.3371 -0.7522 -1.6292
 4060TIP3   OH233594   1.377   1.002  14.218  0.0591  0.5976  0.2455
 4060TIP3    H133595   1.388   1.062  14.292 -0.0588 -0.1411  0.8755
 4060TIP3    H233596   1.320   0.932  14.252  1.8474 -0.9335  0.1659
 4061TIP3   OH233597   1.564   0.646  11.665 -0.8594  0.3470 -0.1703
 4061TIP3    H133598   1.605   0.732  11.674  2.4596 -1.2859  1.3467
 4061TIP3    H233599   1.570   0.608  11.753 -1.6589 -1.7030 -0.9806
 4062TIP3   OH233600   6.320   5.660  13.674  0.2214  0.0126  0.1269
 4062TIP3    H133601   6.268   5.716  13.617 -1.8682 -1.8512  0.1131
 4062TIP3    H233602   6.337   5.582  13.621  1.3920 -0.2147  0.8155
 4063TIP3   OH233603   2.044   2.642  12.385  0.2705  0.2335  0.4732
 4063TIP3    H133604   2.041   2.548  12.406 -0.1649  0.5721  1.9797
 4063TIP3    H233605   2.136   2.660  12.368  0.4744 -0.3183  0.9616
 4064TIP3   OH233606   1.107   2.983  12.517  0.1447 -0.0051  0.1021
 4064TIP3    H133607   1.147   3.057  12.563 -3.7112  1.8994  0.6283
 4064TIP3    H233608   1.086   3.019  12.430 -1.0844 -0.6884  0.1117
 4065TIP3   OH233609   2.815   1.809  13.546  0.1980 -0.7581  0.0442
 4065TIP3    H133610   2.902   1.823  13.508 -0.5371  1.2367 -1.0014
 4065TIP3    H233611   2.826   1.829  13.639  0.8986 -0.7183 -0.0445
 4066TIP3   OH233612   0.435   6.686  13.445 -0.0721  0.1707  0.5906
 4066TIP3    H133613   0.375   6.733  13.503 -0.0572 -1.0484  1.6062
 4066TIP3    H233614   0.520   6.692  13.487  0.5484  1.9431 -0.8808
 4067TIP3   OH233615   0.551   0.223  10.937 -0.4382  0.1263 -0.4934
 4067TIP3    H133616   0.504   0.266  10.866 -0.9809 -1.4361 -1.1031
 4067TIP3    H233617   0.514   0.260  11.017  0.0766  1.7840 -1.0021
 4068TIP3   OH233618   2.450   2.989  10.712  0.6317 -0.5350 -0.5122
 4068TIP3    H133619   2.364   3.002  10.751  0.5218 -1.7846 -0.3282
 4068TIP3    H233620   2.449   3.045  10.634 -0.0607  0.0348 -0.1047
 4069TIP3   OH233621   2.316   2.815  12.731 -0.0344  0.0437 -0.2023
 4069TIP3    H133622   2.299   2.783  12.820 -1.1988 -1.4121 -0.9260
 4069TIP3    H233623   2.351   2.739  12.684 -3.5574 -0.4923 -2.1592
 4070TIP3   OH233624   6.998   2.570  12.724 -0.3072  0.2946  0.1269
 4070TIP3    H133625   6.916   2.580  12.675 -0.5870  0.4927  0.6287
 4070TIP3    H233626   7.045   2.652  12.710  0.8259 -0.6996 -2.0157
 4071TIP3   OH233627   0.415   1.539  13.519  0.1669 -0.4873 -0.1643
 4071TIP3    H133628   0.356   1.488  13.463  0.4104 -1.7798  0.7120
 4071TIP3    H233629   0.360   1.607  13.558 -0.0701  0.2147 -1.7209
 4072TIP3   OH233630   1.076   4.549  11.945  0.2780  0.0800 -0.0102
 4072TIP3    H133631   1.015   4.603  11.896 -0.8333 -0.7004  0.4681
 4072TIP3    H233632   1.066   4.461  11.907 -1.3003 -0.7394  2.1661
 4073TIP3   OH233633   1.266   2.836  12.341 -0.2725 -0.4495  0.5840
 4073TIP3    H133634   1.219   2.881  12.411 -0.5820  0.0144  0.0818
 4073TIP3    H233635   1.354   2.823  12.376 -0.7058 -1.1158  1.4423
 4074TIP3   OH233636   1.363   3.591  12.763 -0.5169  0.2631  0.0670
 4074TIP3    H133637   1.316   3.585  12.680  1.8354 -3.0454 -1.1498
 4074TIP3    H233638   1.447   3.630  12.741 -0.3663  0.5741  1.1493
 4075TIP3   OH233639   1.700   3.443  13.617  0.1572  0.1170 -0.0497
 4075TIP3    H133640   1.779   3.410  13.659 -1.3774 -1.6999  1.4807
 4075TIP3    H233641   1.687   3.385  13.542  0.4146  0.5990 -0.4728
 4076TIP3   OH233642   1.948   4.018  13.683  0.3929 -0.6527 -0.6992
 4076TIP3    H133643   1.876   4.053  13.630  0.4353  0.5773  0.0265
 4076TIP3    H233644   1.930   3.925  13.690 -0.5548 -0.5283 -1.4217
 4077TIP3   OH233645   2.096   2.334  12.150 -0.1944  0.5165 -0.4127
 4077TIP3    H133646   2.060   2.344  12.238  1.7014  2.9209  0.1782
 4077TIP3    H233647   2.022   2.346  12.091 -1.1621  0.6707  0.8255
 4078TIP3   OH233648   1.112   2.811  13.735 -0.3132  0.5807  0.1220
 4078TIP3    H133649   1.102   2.743  13.669 -1.9321  0.1266  0.8140
 4078TIP3    H233650   1.143   2.765  13.813  2.0803  1.1896 -0.4395
 4079TIP3   OH233651   0.961   6.007  12.305 -0.5614 -0.0594 -0.2761
 4079TIP3    H133652   0.964   5.921  12.347 -1.7992  0.1853  0.3063
 4079TIP3    H233653   0.900   5.996  12.232 -0.7790  0.3575 -0.1551
 4080TIP3   OH233654   6.546   2.455  11.958 -0.2399  0.4326 -0.0325
 4080TIP3    H133655   6.503   2.389  12.013  2.6704 -0.2596  1.4878
 4080TIP3    H233656   6.559   2.529  12.017  0.9089  0.5277 -0.4003
 4081TIP3   OH233657   1.051   2.244  11.529 -0.1475 -0.1604 -0.2563
 4081TIP3    H133658   1.135   2.200  11.519  0.3327  0.6174  0.3072
 4081TIP3    H233659   1.070   2.337  11.516 -0.5074  0.2664  1.9922
 4082TIP3   OH233660   0.167   3.444  13.555  0.2310  0.3106 -0.4012
 4082TIP3    H133661   0.131   3.428  13.642 -0.6409 -0.6863 -0.9258
 4082TIP3    H233662   0.172   3.539  13.548 -2.2482  0.4893 -0.2597
 4083TIP3   OH233663   6.967   2.543  10.693 -0.6566  0.0512  0.6758
 4083TIP3    H133664   7.058   2.570  10.682 -0.0630 -2.0296  0.1433
 4083TIP3    H233665   6.972   2.468  10.752 -1.5951 -2.5093 -2.3706
 4084TIP3   OH233666   0.726   6.279  13.027  0.5387  0.1836  0.0376
 4084TIP3    H133667   0.741   6.374  13.023 -0.2038  0.2286 -2.2774
 4084TIP3    H233668   0.655   6.263  12.965  0.4273 -1.8549  0.6605
 4085TIP3   OH233669   1.587   1.533  14.028 -0.0358 -0.3102 -0.5906
 4085TIP3    H133670   1.660   1.472  14.031 -0.8806 -1.2971  0.0328
 4085TIP3    H233671   1.592   1.580  14.111  0.3478  0.1718 -0.8823
 4086TIP3   OH233672   5.529   1.684  15.263 -0.2819 -0.0443  0.1845
 4086TIP3    H133673   5.513   1.590  15.262  2.0721 -0.4930  0.2957
 4086TIP3    H233674   5.580   1.700  15.183  1.1252  0.7629  1.2270
 4087TIP3   OH233675   6.664   1.543  13.773 -0.4139  0.3289 -0.0759
 4087TIP3    H133676   6.616   1.624  13.756 -1.3042 -0.0871  0.4673
 4087TIP3    H233677   6.743   1.571  13.819 -0.8085  0.8709  0.2722
 4088TIP3   OH233678   1.118   2.754  13.389  0.4065  0.1681 -0.6129
 4088TIP3    H133679   1.134   2.745  13.295  0.2214  0.2150 -0.6492
 4088TIP3    H233680   1.023   2.755  13.397  0.4227  0.1258 -0.4205
 4089TIP3   OH233681   3.606   5.776  14.109  0.6775 -0.0027 -0.2716
 4089TIP3    H133682   3.656   5.696  14.094 -0.9426 -1.1378  0.2833
 4089TIP3    H233683   3.575   5.802  14.022 -1.0551 -1.4983 -0.1288
 4090TIP3   OH233684   1.409   5.897  12.826  0.2631  0.1193 -0.0788
 4090TIP3    H133685   1.327   5.849  12.814 -1.2995  2.6168  0.3011
 4090TIP3    H233686   1.476   5.839  12.789 -1.7587 -1.5636 -1.2434
 4091TIP3   OH233687   1.842   1.234  14.585 -0.3227 -0.3927  0.3881
 4091TIP3    H133688   1.881   1.302  14.640 -1.7243  0.5219  0.2820
 4091TIP3    H233689   1.791   1.180  14.647 -2.0755  0.7630 -0.0014
 4092TIP3   OH233690   1.449   2.734  11.338 -0.5707  0.0941 -0.3995
 4092TIP3    H133691   1.366   2.741  11.386  0.1809 -0.6349  1.0133
 4092TIP3    H233692   1.504   2.803  11.376  0.8075 -1.9388  1.3948
 4093TIP3   OH233693   1.117   3.177  14.189 -0.2701 -1.2716  0.4837
 4093TIP3    H133694   1.160   3.253  14.228  1.2130 -2.1253  0.5822
 4093TIP3    H233695   1.027   3.205  14.174 -0.4091 -0.3114  2.8187
 4094TIP3   OH233696   1.106   1.107  14.468  0.5003 -0.3890 -0.1441
 4094TIP3    H133697   1.040   1.106  14.537  0.9371 -0.5133  0.2822
 4094TIP3    H233698   1.070   1.163  14.400  0.1457 -0.1146  0.2670
 4095TIP3   OH233699   1.643   3.409  11.175 -0.2474  0.4695  0.0569
 4095TIP3    H133700   1.611   3.411  11.265 -2.5690  1.2274 -0.7454
 4095TIP3    H233701   1.601   3.332  11.137  0.1071  0.6042 -0.6094
 4096TIP3   OH233702   0.606   3.081  12.128 -0.5456  0.0820 -0.1060
 4096TIP3    H133703   0.532   3.034  12.090  0.5189 -2.6504  1.0792
 4096TIP3    H233704   0.573   3.117  12.210 -0.7675 -0.5438  0.0835
 4097TIP3   OH233705   6.596   4.661  13.158  0.0873  0.4187 -0.2442
 4097TIP3    H133706   6.541   4.633  13.231 -0.4594  1.6090 -0.1871
 4097TIP3    H233707   6.539   4.655  13.081 -0.6731  3.2692  0.0527
 4098TIP3   OH233708   1.530   3.200  11.077  0.1482  0.3684 -0.0036
 4098TIP3    H133709   1.548   3.236  10.989 -0.2194 -1.5256 -0.8809
 4098TIP3    H233710   1.437   3.178  11.075  0.6477 -1.8664  0.0229
 4099TIP3   OH233711   2.471   0.896  12.517 -0.8003 -0.4758 -0.4072
 4099TIP3    H133712   2.393   0.949  12.530 -0.0956  0.5171 -0.2215
 4099TIP3    H233713   2.511   0.931  12.437 -0.6278 -1.0829 -0.5913
 4100TIP3   OH233714   0.413   3.980  13.733  0.1505  0.2992  0.0261
 4100TIP3    H133715   0.386   3.922  13.662  2.1982  1.9870 -2.2400
 4100TIP3    H233716   0.482   3.933  13.778 -0.1801 -0.2112 -0.0022
 4101TIP3   OH233717   7.012   3.220  14.401 -0.1966 -0.0065  0.0136
 4101TIP3    H133718   6.982   3.132  14.379 -1.7709  0.6990 -0.7970
 4101TIP3    H233719   6.933   3.264  14.435  0.7755  0.8216  1.2595
 4102TIP3   OH233720   0.415   3.560  12.337  0.7306  0.0905  0.2255
 4102TIP3    H133721   0.354   3.598  12.274 -0.5632 -0.7511  0.9401
 4102TIP3    H233722   0.358   3.525  12.406  2.1428  1.8013  2.3276
 4103TIP3   OH233723   0.667   3.575  13.988  0.3199  0.2351  0.2708
 4103TIP3    H133724   0.742   3.634  13.987 -1.0368  1.9966 -0.5939
 4103TIP3    H233725   0.705   3.488  13.978  2.2210  1.1103 -0.4144
 4104TIP3   OH233726   1.380   2.893  14.157  0.0336 -0.2463 -0.0284
 4104TIP3    H133727   1.300   2.899  14.208  0.4314 -1.1848  0.7211
 4104TIP3    H233728   1.371   2.960  14.089 -0.0487  1.7313  1.8865
 4105TIP3   OH233729   7.209   2.599  14.400 -0.4052 -0.4357 -0.0071
 4105TIP3    H133730   7.119   2.566  14.397 -0.5079 -0.2050  0.4579
 4105TIP3    H233731   7.209   2.673  14.340 -0.9848  0.6472  1.2954
 4106TIP3   OH233732   1.650   1.058  13.673  0.1887 -0.5959  0.3635
 4106TIP3    H133733   1.732   1.089  13.713  0.8162 -2.1391  0.3172
 4106TIP3    H233734   1.586   1.126  13.693  1.2406  0.1343  1.3109
 4107TIP3   OH233735   0.048   2.385  14.279  0.6255  0.1874 -0.2494
 4107TIP3    H133736  -0.001   2.303  14.280  2.6175 -1.0431  1.2092
 4107TIP3    H233737  -0.007   2.447  14.327 -2.1240  0.5188 -3.6388
 4108TIP3   OH233738   1.906   1.567  13.600 -0.0387  0.2918  0.2663
 4108TIP3    H133739   1.849   1.512  13.654 -0.9720 -0.9811 -1.9266
 4108TIP3    H233740   1.932   1.639  13.657 -0.9694 -1.0233  2.3849
 4109TIP3   OH233741   3.477   0.787  10.710  0.2410 -0.0363  0.9268
 4109TIP3    H133742   3.391   0.827  10.698 -0.0640 -0.9699 -0.1937
 4109TIP3    H233743   3.458   0.693  10.721  1.2971 -0.7666 -2.8532
 4110TIP3   OH233744   6.432   2.389  14.178  0.4523 -0.3097  0.0474
 4110TIP3    H133745   6.380   2.385  14.259  1.2346  0.9986  0.6492
 4110TIP3    H233746   6.425   2.302  14.140 -2.9597  0.0848 -0.3983
 4111TIP3   OH233747   6.426   3.992  14.575  0.1523  0.0955 -0.1733
 4111TIP3    H133748   6.459   4.081  14.582 -1.6818  0.9062 -1.4500
 4111TIP3    H233749   6.423   3.960  14.666 -0.2213  1.7117  0.3899
 4112TIP3   OH233750   6.895   3.020  13.744 -0.4067 -0.7965  0.2431
 4112TIP3    H133751   6.974   3.035  13.692 -0.6157 -2.2955 -0.5497
 4112TIP3    H233752   6.912   3.062  13.828 -0.2421  2.1273 -1.1643
 4113TIP3   OH233753   0.047   3.852  12.315 -0.1277  0.5138 -0.9154
 4113TIP3    H133754   0.113   3.786  12.338 -0.6200  0.4696  0.3933
 4113TIP3    H233755  -0.006   3.811  12.247  1.2854  0.6114 -2.1145
 4114TIP3   OH233756   0.878   1.446   9.999 -0.2383 -0.0510 -0.2998
 4114TIP3    H133757   0.804   1.442   9.939  0.8637  0.5580 -1.7290
 4114TIP3    H233758   0.928   1.366   9.981 -0.0084  0.0437 -0.0837
 4115TIP3   OH233759   4.318   4.220  15.352 -0.0732  0.1127 -0.5871
 4115TIP3    H133760   4.330   4.245  15.260  0.6260 -0.1322 -0.5652
 4115TIP3    H233761   4.230   4.182  15.355 -0.4557  0.9654 -0.9672
 4116TIP3   OH233762   1.598   2.207  10.555  0.3091  0.4488  0.2996
 4116TIP3    H133763   1.570   2.174  10.469  1.2114  1.0613 -0.2300
 4116TIP3    H233764   1.617   2.128  10.606 -3.6190 -0.0877  1.1317
 4117TIP3   OH233765   0.807   3.590  14.317 -0.3031  0.0874  0.1029
 4117TIP3    H133766   0.794   3.593  14.412 -0.7133 -0.4750  0.0654
 4117TIP3    H233767   0.814   3.496  14.297  1.4691  0.2621 -0.1916
 4118TIP3   OH233768   1.137   3.897  14.970 -0.3737 -0.2841 -0.2411
 4118TIP3    H133769   1.056   3.851  14.991 -1.1427  1.1733  0.0931
 4118TIP3    H233770   1.183   3.839  14.910 -2.3423 -0.5204 -1.5951
 4119TIP3   OH233771   6.610   4.536  10.865 -0.4163 -0.4417  0.3392
 4119TIP3    H133772   6.652   4.451  10.875  0.8889  0.0468 -0.7090
 4119TIP3    H233773   6.528   4.518  10.820  0.3889 -1.0280 -0.9036
 4120TIP3   OH233774   0.640   4.706  12.532  0.5019  0.1308  0.2055
 4120TIP3    H133775   0.587   4.631  12.504 -1.3707  1.4307  0.2128
 4120TIP3    H233776   0.653   4.693  12.626 -1.5838  0.8615  0.6168
 4121TIP3   OH233777   2.036   3.875  13.358 -0.2493  1.1366 -0.7597
 4121TIP3    H133778   1.955   3.869  13.409 -0.4822  2.4435 -0.9702
 4121TIP3    H233779   2.009   3.915  13.275  0.8728  2.9010 -0.2803
 4122TIP3   OH233780   2.714   3.363  12.836  1.2536  0.1101  0.2144
 4122TIP3    H133781   2.622   3.384  12.855  1.5936  0.4920  1.5085
 4122TIP3    H233782   2.747   3.438  12.786  1.4866  1.0462  1.7484
 4123TIP3   OH233783   6.636   5.061  14.226 -1.0849 -0.0852  0.8108
 4123TIP3    H133784   6.575   5.057  14.153  0.2380 -1.0280 -0.2888
 4123TIP3    H233785   6.715   5.100  14.189 -0.6626  0.1538  1.9382
 4124TIP3   OH233786   2.952   4.841  13.759 -0.0776 -0.0538 -0.0952
 4124TIP3    H133787   2.928   4.770  13.818 -1.0903 -0.4112 -0.9198
 4124TIP3    H233788   2.881   4.843  13.694  0.6686  0.7773 -0.8943
 4125TIP3   OH233789   7.159   1.270  12.926 -0.0206 -0.1052  0.2107
 4125TIP3    H133790   7.180   1.177  12.940 -0.9345 -0.2999  0.3226
 4125TIP3    H233791   7.094   1.269  12.855 -2.4508  0.2117  2.3806
 4126TIP3   OH233792   3.331   3.286   1.149  0.2625  0.3956  0.5974
 4126TIP3    H133793   3.352   3.322   1.063 -0.3276 -0.2561  0.1748
 4126TIP3    H233794   3.370   3.198   1.148  0.9755  0.6951  1.3104
 4127TIP3   OH233795   6.991   1.967  14.953 -0.0946  0.2895  0.0978
 4127TIP3    H133796   6.989   1.880  14.913  0.0244  1.0506 -1.6078
 4127TIP3    H233797   7.083   1.981  14.977  0.4626  1.1033 -2.3266
 4128TIP3   OH233798   2.556   2.044  12.848 -0.1837 -0.1313  0.5306
 4128TIP3    H133799   2.541   1.983  12.776  0.0817 -1.9165  1.9549
 4128TIP3    H233800   2.472   2.087  12.862  0.1657  1.4663 -1.9094
 4129TIP3   OH233801   5.210   3.516  13.371  0.1227 -0.4165  0.3368
 4129TIP3    H133802   5.266   3.593  13.382 -1.4848  0.7635  0.4464
 4129TIP3    H233803   5.160   3.535  13.291  1.5522 -2.5154 -1.1017
 4130TIP3   OH233804   1.180   5.023  13.499 -0.0509  0.4801  0.1518
 4130TIP3    H133805   1.158   5.003  13.408 -0.7169 -0.2959  0.4767
 4130TIP3    H233806   1.250   5.087  13.493 -1.3680  1.8463 -0.9103
 4131TIP3   OH233807   1.299   4.733  12.711 -0.2746  0.3517 -0.3961
 4131TIP3    H133808   1.221   4.697  12.668 -1.4199  1.3450  0.7756
 4131TIP3    H233809   1.330   4.801  12.651 -0.3219 -0.0529 -0.8780
 4132TIP3   OH233810   6.404   3.998  12.211  0.0330  0.2161  0.2263
 4132TIP3    H133811   6.322   3.982  12.257 -0.3164  1.3736  0.0246
 4132TIP3    H233812   6.448   3.912  12.209 -1.7476 -0.6962 -0.8206
 4133TIP3   OH233813   0.214   2.534  14.868  0.0386  0.3553  0.2657
 4133TIP3    H133814   0.120   2.548  14.854 -0.0685 -0.1293  0.4819
 4133TIP3    H233815   0.219   2.493  14.954  0.4281  0.1338  0.1379
 4134TIP3   OH233816   3.344   2.537  13.423 -0.0580  0.2149  0.1302
 4134TIP3    H133817   3.381   2.483  13.493 -1.2754 -0.9860 -0.1140
 4134TIP3    H233818   3.411   2.536  13.355  1.2478  1.6242  1.3699
 4135TIP3   OH233819   2.038   1.716  11.970  0.2440 -0.0109 -0.2138
 4135TIP3    H133820   2.017   1.670  11.889  0.1815 -0.5472  0.0960
 4135TIP3    H233821   2.101   1.783  11.945  0.5136 -0.4220 -0.6431
 4136TIP3   OH233822   1.477   0.387  13.919 -0.3102 -0.0168  0.0937
 4136TIP3    H133823   1.388   0.360  13.899 -0.4079 -0.6300  1.2962
 4136TIP3    H233824   1.532   0.316  13.887 -0.2830  0.1472 -0.2273
 4137TIP3   OH233825   2.782   1.923  11.972 -0.8639 -0.1468  0.8956
 4137TIP3    H133826   2.765   1.849  12.030  0.8749 -0.0751  1.5247
 4137TIP3    H233827   2.811   1.884  11.890 -2.2865 -0.2161  0.4103
 4138TIP3   OH233828   0.832   4.408  11.739 -0.0240 -0.3869 -0.3078
 4138TIP3    H133829   0.828   4.323  11.782  0.1282 -0.0891  0.3035
 4138TIP3    H233830   0.844   4.388  11.646  3.1859 -0.9877  0.1956
 4139TIP3   OH233831   3.029   0.708  12.734 -0.4570  0.0631  0.3283
 4139TIP3    H133832   3.089   0.740  12.667 -0.8161  0.2719  0.1007
 4139TIP3    H233833   3.073   0.633  12.773 -0.7780 -0.8141 -0.9920
 4140TIP3   OH233834   0.870   2.765  14.655 -0.0681  0.0744  0.1995
 4140TIP3    H133835   0.847   2.679  14.620 -0.0696  0.3760 -0.5500
 4140TIP3    H233836   0.943   2.748  14.714 -0.4424 -0.5171  0.4960
 4141TIP3   OH233837   2.552   2.158  14.243  0.1192  0.0264  0.2165
 4141TIP3    H133838   2.614   2.123  14.179  0.3601  0.9716 -0.0767
 4141TIP3    H233839   2.472   2.175  14.192 -0.0118 -0.1335  0.3666
 4142TIP3   OH233840   1.899   1.792  10.812 -0.5334 -0.3430  0.4550
 4142TIP3    H133841   1.946   1.709  10.820  1.2398  0.6014  0.0536
 4142TIP3    H233842   1.952   1.854  10.862 -2.0572  0.4766  1.0854
 4143TIP3   OH233843   2.261   3.389  13.904 -0.4023  0.2655  0.3987
 4143TIP3    H133844   2.336   3.392  13.844  1.2429 -0.8420  2.3608
 4143TIP3    H233845   2.245   3.295  13.918 -1.6298  0.5032  0.6946
 4144TIP3   OH233846   6.976   2.697  10.424 -0.3453  0.1703 -0.6492
 4144TIP3    H133847   6.893   2.674  10.381 -1.0680  1.8496 -0.1996
 4144TIP3    H233848   7.042   2.682  10.356 -1.0658 -0.7292 -1.1668
 4145TIP3   OH233849   3.568   4.016  13.108 -0.3377 -0.2647 -0.1825
 4145TIP3    H133850   3.577   4.085  13.043 -3.6135 -0.0005 -0.4334
 4145TIP3    H233851   3.648   4.022  13.161  2.4016 -0.4422 -4.0525
 4146TIP3   OH233852   3.350   4.455  13.162 -0.2185 -0.4854 -0.4611
 4146TIP3    H133853   3.351   4.361  13.180  2.2435 -0.3574  0.2789
 4146TIP3    H233854   3.297   4.492  13.233  0.7446 -1.0865  0.5872
 4147TIP3   OH233855   6.862   2.717  11.574 -0.4762  0.4631  0.4416
 4147TIP3    H133856   6.789   2.763  11.533 -1.6943 -2.8193 -1.2662
 4147TIP3    H233857   6.822   2.670  11.647 -0.0272 -1.0405 -0.2627
 4148TIP3   OH233858   6.629   1.912  12.642  0.4287 -0.2090  0.0069
 4148TIP3    H133859   6.646   1.822  12.612  1.5739 -0.4223  1.2354
 4148TIP3    H233860   6.671   1.916  12.728 -0.4444  1.2211  0.3658
 4149TIP3   OH233861   1.746   1.311  13.408  0.0863  0.5008 -0.1813
 4149TIP3    H133862   1.651   1.318  13.419  0.0655 -2.9056  2.5460
 4149TIP3    H233863   1.782   1.368  13.476 -0.0098  1.1802 -0.7013
 4150TIP3   OH233864   3.154   0.743  10.386 -0.4018  0.0006 -0.4962
 4150TIP3    H133865   3.180   0.652  10.401  0.7348  0.3279 -0.4401
 4150TIP3    H233866   3.059   0.740  10.378 -0.5543 -0.9453  1.3530
 4151TIP3   OH233867   7.091   2.291  13.523  0.2574  0.0981 -0.2336
 4151TIP3    H133868   7.066   2.300  13.614  1.0451 -1.4657  0.1568
 4151TIP3    H233869   7.034   2.352  13.476  0.0248  1.1034  1.3162
 4152TIP3   OH233870   6.389   3.226  13.708 -0.1005 -0.2535 -0.4655
 4152TIP3    H133871   6.482   3.222  13.687  0.3741 -2.9612  1.9150
 4152TIP3    H233872   6.345   3.202  13.627  1.2799  0.3364 -1.4083
 4153TIP3   OH233873   3.232   1.352  11.042 -0.1576 -0.2290  0.1930
 4153TIP3    H133874   3.186   1.427  11.081 -0.9651 -0.8274  0.3906
 4153TIP3    H233875   3.162   1.296  11.009  0.4202 -1.4183  0.9918
 4154TIP3   OH233876   1.661   1.563  11.831 -0.5066 -0.3227  0.0493
 4154TIP3    H133877   1.749   1.586  11.800 -0.7057 -2.3947 -2.2045
 4154TIP3    H233878   1.677   1.507  11.907  0.0761  0.8093  0.7778
 4155TIP3   OH233879   3.605   1.416  15.703  0.2043 -0.0631 -1.0746
 4155TIP3    H133880   3.539   1.358  15.740 -1.6618  2.3868 -0.4352
 4155TIP3    H233881   3.627   1.476  15.774 -0.8350  2.4892 -2.8374
 4156TIP3   OH233882   1.743   1.272  15.114 -0.1090 -0.4728  0.4242
 4156TIP3    H133883   1.679   1.257  15.183  0.0910  0.3541  0.8087
 4156TIP3    H233884   1.793   1.348  15.145  1.1952 -1.2356  0.2426
 4157TIP3   OH233885   2.458   2.890  13.644 -0.3263  0.4165  0.1396
 4157TIP3    H133886   2.469   2.852  13.557 -2.0722 -0.8890  0.4475
 4157TIP3    H233887   2.522   2.844  13.698  0.5592  1.0228 -0.3910
 4158TIP3   OH233888   0.041   1.007  11.912  0.0449  0.2186  0.0653
 4158TIP3    H133889   0.025   0.987  11.820  0.2494 -1.1778  0.3104
 4158TIP3    H233890  -0.046   1.020  11.949 -0.0493  0.6152 -0.2952
 4159TIP3   OH233891   2.627   6.692  12.353  0.1953 -0.2481  0.5437
 4159TIP3    H133892   2.533   6.692  12.374  0.2477  1.3011  0.8836
 4159TIP3    H233893   2.638   6.767  12.294  0.6938 -2.3139 -2.1164
 4160TIP3   OH233894   7.128   3.563  12.397 -0.0921 -0.3026 -0.3932
 4160TIP3    H133895   7.082   3.642  12.369  0.3060  0.2146  0.3682
 4160TIP3    H233896   7.077   3.490  12.362 -1.3561  0.2703  0.2325
 4161TIP3   OH233897   6.793   4.085  12.294  0.0275  0.3316  0.2266
 4161TIP3    H133898   6.878   4.085  12.250 -0.0819 -1.5445 -0.0547
 4161TIP3    H233899   6.814   4.086  12.387  0.4118 -1.2385  0.1783
 4162TIP3   OH233900   2.541   2.108  12.158 -0.9076 -0.0919  0.6318
 4162TIP3    H133901   2.565   2.015  12.161 -1.5417 -0.2309  1.5096
 4162TIP3    H233902   2.542   2.129  12.064  0.4818 -0.6450  0.5064
 4163TIP3   OH233903   0.240   2.715  14.192 -0.2906 -0.1332 -0.0665
 4163TIP3    H133904   0.221   2.756  14.108 -0.1800  0.2580  0.1001
 4163TIP3    H233905   0.231   2.785  14.256  3.4548  0.5261 -0.1611
 4164TIP3   OH233906   2.586   3.996  14.734  0.4153  0.0407  0.3806
 4164TIP3    H133907   2.610   3.904  14.725 -1.2043 -0.2660 -1.0110
 4164TIP3    H233908   2.669   4.043  14.741  1.2664 -1.4210  0.0576
 4165TIP3   OH233909   6.839   0.026  13.667 -0.0091  0.0988  0.4119
 4165TIP3    H133910   6.918   0.070  13.698 -0.9844  1.1852  1.4294
 4165TIP3    H233911   6.782   0.096  13.637 -1.3710 -0.4953  1.5321
 4166TIP3   OH233912   7.110   2.623  13.699 -0.1697 -0.7641  0.2902
 4166TIP3    H133913   7.098   2.601  13.791  0.1423  0.2909  0.5875
 4166TIP3    H233914   7.037   2.581  13.654  1.0928 -3.4623  0.6738
 4167TIP3   OH233915   7.293   5.048  11.551  0.0377 -0.1408  0.2042
 4167TIP3    H133916   7.276   5.005  11.634  1.0419  0.0799  0.5297
 4167TIP3    H233917   7.380   5.086  11.561  0.2322 -0.2481 -0.9980
 4168TIP3   OH233918   1.603   3.242  12.944 -0.7385  0.0183 -0.1466
 4168TIP3    H133919   1.668   3.222  13.012 -0.4464  0.4866 -0.2852
 4168TIP3    H233920   1.529   3.185  12.964 -0.6921  0.2300  0.6229
 4169TIP3   OH233921   0.936   3.175  13.069  0.4345  0.3022  0.8957
 4169TIP3    H133922   1.015   3.151  13.115 -0.5714 -1.1926  1.8706
 4169TIP3    H233923   0.952   3.265  13.039  2.4128  0.0697  1.1941
 4170TIP3   OH233924   2.451   3.438  13.673 -0.2705  1.0438  0.4275
 4170TIP3    H133925   2.486   3.361  13.719  1.4223  1.0647 -0.7616
 4170TIP3    H233926   2.526   3.498  13.668 -0.8215  1.6301 -1.0757
 4171TIP3   OH233927   5.091   4.969  12.060 -0.4237 -0.1124  0.3879
 4171TIP3    H133928   5.075   4.907  11.989 -0.3565 -1.2423  1.3365
 4171TIP3    H233929   5.157   5.029  12.025 -0.2233 -0.7925 -0.4298
 4172TIP3   OH233930   1.896   2.828  15.012 -0.1977  0.4178 -0.1826
 4172TIP3    H133931   1.876   2.906  14.961  1.3785  1.8079  1.2579
 4172TIP3    H233932   1.861   2.846  15.099  1.4919  0.1797  0.5786
 4173TIP3   OH233933   1.519   0.123  12.353  0.1159 -0.5429 -0.1305
 4173TIP3    H133934   1.553   0.111  12.264  3.0811  0.7799  0.7913
 4173TIP3    H233935   1.576   0.069  12.408 -0.2339  0.5085  1.2802
 4174TIP3   OH233936   2.076   2.897  12.601  0.4537  0.8045  0.2167
 4174TIP3    H133937   2.156   2.905  12.654  0.4712  0.7001  0.2065
 4174TIP3    H233938   2.030   2.822  12.637  1.7153 -0.8512 -1.5421
 4175TIP3   OH233939   1.062   5.238  13.220  0.5938  0.6096  0.4590
 4175TIP3    H133940   1.075   5.327  13.253  1.2654 -0.0275  1.9827
 4175TIP3    H233941   1.133   5.224  13.158  0.6021  1.0571  0.3645
 4176TIP3   OH233942   0.884   3.032  12.719  0.5516 -0.0564  0.0695
 4176TIP3    H133943   0.937   3.108  12.694  0.0263 -0.2892 -1.7655
 4176TIP3    H233944   0.876   3.040  12.815  2.8813  0.6233  0.2322
 4177TIP3   OH233945   4.605   2.213  12.144 -0.5078  0.4034  0.4706
 4177TIP3    H133946   4.637   2.182  12.060 -1.9309 -1.5651  0.6261
 4177TIP3    H233947   4.519   2.251  12.125 -0.9973 -0.3847  1.0804
 4178TIP3   OH233948   6.166   1.516  11.706 -0.1561  0.1734  0.1971
 4178TIP3    H133949   6.230   1.446  11.690 -0.3366 -0.7019  3.0727
 4178TIP3    H233950   6.132   1.538  11.619  2.1250 -1.1899 -1.0756
 4179TIP3   OH233951   0.492   3.852  13.202  0.5226  0.3889 -0.0448
 4179TIP3    H133952   0.440   3.926  13.170  1.2685  0.4968 -1.0151
 4179TIP3    H233953   0.444   3.775  13.171  0.4633  0.4775 -0.1767
 4180TIP3   OH233954   2.059   2.764  15.344 -0.1086 -0.3584  0.5003
 4180TIP3    H133955   1.978   2.795  15.305  1.6680  0.6152 -2.6096
 4180TIP3    H233956   2.067   2.812  15.427 -1.6593  1.0496 -0.1610
 4181TIP3   OH233957   2.424   0.028  12.174 -0.3333 -0.7118 -0.0286
 4181TIP3    H133958   2.374  -0.050  12.200 -1.2478  0.0147  0.4395
 4181TIP3    H233959   2.515   0.007  12.196 -0.8033 -0.9721  1.7506
 4182TIP3   OH233960   0.973   3.302  12.678  0.0760  0.0956  0.0884
 4182TIP3    H133961   0.940   3.273  12.593 -1.0361  0.6318  0.3197
 4182TIP3    H233962   0.905   3.361  12.710  1.7571  2.0806  0.1195
 4183TIP3   OH233963   2.786   0.412  11.442 -0.2477 -0.1031  0.1642
 4183TIP3    H133964   2.768   0.415  11.536 -2.8741  0.5522 -0.3273
 4183TIP3    H233965   2.856   0.476  11.429 -1.1712  1.1937  1.4120
 4184TIP3   OH233966   0.925   1.027  10.409  0.0742  0.1942  0.1804
 4184TIP3    H133967   0.898   1.058  10.323 -0.6582  0.5520  0.5333
 4184TIP3    H233968   1.013   0.992  10.396  0.0932  0.5491 -0.6414
 4185TIP3   OH233969   0.863   2.460  11.185 -0.4529  0.5373 -0.0591
 4185TIP3    H133970   0.858   2.393  11.116  2.5547  1.3196 -1.1177
 4185TIP3    H233971   0.772   2.481  11.205 -1.4269 -2.4411 -1.1150
 4186TIP3   OH233972   1.103   4.235  13.380  0.3497 -0.1822  0.3161
 4186TIP3    H133973   1.029   4.244  13.321 -0.6799 -0.5575  1.5262
 4186TIP3    H233974   1.085   4.155  13.430  1.7806 -0.5154  0.3263
 4187TIP3   OH233975   0.023   1.912  13.910  0.6662  0.5141  0.4653
 4187TIP3    H133976   0.000   1.819  13.907 -0.7573  0.8372  0.7442
 4187TIP3    H233977  -0.007   1.946  13.825 -0.5035  1.0818  1.0989
 4188TIP3   OH233978   0.643   1.481  13.629  0.0951  0.1680  0.4391
 4188TIP3    H133979   0.621   1.409  13.688  0.6219 -0.8668 -0.5965
 4188TIP3    H233980   0.561   1.502  13.584 -0.3011  0.9451  1.5132
 4189TIP3   OH233981   2.236   5.354  12.275 -0.1597  0.4015  0.3539
 4189TIP3    H133982   2.217   5.409  12.351  0.5806  1.0671  0.0783
 4189TIP3    H233983   2.253   5.267  12.311 -1.0776  0.4145  0.8257
 4190TIP3   OH233984   1.892   3.007  13.552 -0.2520  0.1454 -0.2397
 4190TIP3    H133985   1.803   2.980  13.573  0.0110  0.9662  2.1749
 4190TIP3    H233986   1.947   2.938  13.590  0.1983  0.6086 -0.0501
 4191TIP3   OH233987   2.054   2.514  13.990 -0.3468 -0.3045  0.2382
 4191TIP3    H133988   2.025   2.604  13.998 -0.8647 -0.5414  1.1091
 4191TIP3    H233989   1.981   2.468  13.948  0.2560 -0.1483 -0.9948
 4192TIP3   OH233990   2.541   2.211  15.696  0.0950 -0.7579 -0.3973
 4192TIP3    H133991   2.464   2.155  15.685 -0.6259  0.4495 -1.5434
 4192TIP3    H233992   2.575   2.187  15.782 -2.8515  0.2834  1.1058
 4193TIP3   OH233993   3.982   2.837  12.264  0.0685  0.6306  0.0460
 4193TIP3    H133994   4.054   2.879  12.218  1.1886  2.3958  3.2194
 4193TIP3    H233995   4.014   2.749  12.285  0.7504  0.9019  0.1525
 4194TIP3   OH233996   2.989   2.369  14.516 -0.1785 -0.5690  0.4064
 4194TIP3    H133997   3.050   2.441  14.499  1.3121 -1.7919  0.4601
 4194TIP3    H233998   2.911   2.391  14.464  1.4297 -0.4569 -2.0564
 4195TIP3   OH233999   2.006   4.619  10.716  0.5030  0.3478 -0.3706
 4195TIP3    H134000   1.913   4.640  10.724 -0.5020 -3.5780 -0.5728
 4195TIP3    H234001   2.047   4.663  10.791 -2.1134 -0.8443  1.8627
 4196TIP3   OH234002   1.380   4.067  12.721  0.0809 -0.2193  0.2009
 4196TIP3    H134003   1.423   4.137  12.771 -0.5263 -2.1513  3.5712
 4196TIP3    H234004   1.288   4.073  12.745 -0.1649 -1.4318 -0.3848
 4197TIP3   OH234005   2.902   3.424  13.394  0.4117  0.0189  0.2621
 4197TIP3    H134006   2.992   3.401  13.368  0.1934 -0.7644  0.1892
 4197TIP3    H234007   2.911   3.457  13.483  0.5850 -1.5252  0.8385
 4198TIP3   OH234008   1.291   2.838  14.478  0.3561 -0.2625 -0.0022
 4198TIP3    H134009   1.208   2.856  14.434  0.3041 -1.2235 -0.3048
 4198TIP3    H234010   1.271   2.769  14.541  0.6828  0.3071  0.7409
 4199TIP3   OH234011   4.133   1.668  11.942  0.4158 -0.1270 -1.0146
 4199TIP3    H134012   4.202   1.652  12.007 -1.0317 -3.9188 -0.2345
 4199TIP3    H234013   4.174   1.645  11.858  0.3836 -1.6021 -0.6468
 4200TIP3   OH234014   3.359   2.500  10.734  0.3590  0.0445 -0.1813
 4200TIP3    H134015   3.282   2.557  10.733 -0.1538 -0.6542 -1.4414
 4200TIP3    H234016   3.382   2.492  10.827 -0.7059  0.7680  0.1496
 4201TIP3   OH234017   3.769   0.145   0.269 -0.3266  0.5837 -0.4886
 4201TIP3    H134018   3.840   0.105   0.220  0.4691  0.8172  0.4486
 4201TIP3    H234019   3.798   0.235   0.285  0.0896  0.0942  1.6450
 4202TIP3   OH234020   1.338   0.671  14.239  0.1348 -0.3763 -0.0106
 4202TIP3    H134021   1.283   0.603  14.277 -1.3502  0.1301 -1.2004
 4202TIP3    H234022   1.412   0.625  14.200 -1.0142 -1.3380 -1.0723
 4203TIP3   OH234023   2.969   2.117  13.937  0.4621 -0.2509 -0.0663
 4203TIP3    H134024   3.058   2.119  13.972 -0.2012  0.9698  1.6327
 4203TIP3    H234025   2.920   2.177  13.994 -1.3548 -0.6257 -1.2105
 4204TIP3   OH234026   1.366   3.663  11.328 -0.3253  0.0727 -0.0380
 4204TIP3    H134027   1.428   3.596  11.357 -2.0265 -1.3121  0.5031
 4204TIP3    H234028   1.347   3.714  11.407 -0.2196  0.2072 -0.1000
 4205TIP3   OH234029   1.777   3.063  13.118 -0.5334 -0.0945  0.5160
 4205TIP3    H134030   1.731   2.992  13.163  0.9846 -0.4185  1.6046
 4205TIP3    H234031   1.813   3.117  13.189  0.3945  0.3926 -0.3103
 4206TIP3   OH234032   3.078   4.420  13.838  0.1656 -0.2118 -0.1443
 4206TIP3    H134033   3.147   4.388  13.780  1.6189 -1.8774  2.3781
 4206TIP3    H234034   3.059   4.345  13.895 -1.5423  1.2049  1.1986
 4207TIP3   OH234035   5.613   3.964  13.008 -0.1535 -0.0460 -0.4764
 4207TIP3    H134036   5.532   4.010  13.032 -0.0054 -0.1690  0.2680
 4207TIP3    H234037   5.667   4.030  12.965 -0.7969 -0.0532 -1.3069
 4208TIP3   OH234038   4.175   4.460  11.549 -0.3920  0.8117  0.1886
 4208TIP3    H134039   4.226   4.379  11.539 -2.2779 -0.6391  1.9355
 4208TIP3    H234040   4.231   4.518  11.601 -0.2355 -0.4982  1.4945
 4209TIP3   OH234041   2.969   0.788  10.636 -0.7952  1.0246  0.1529
 4209TIP3    H134042   2.892   0.745  10.672 -1.4912  2.5106  0.4899
 4209TIP3    H234043   2.942   0.818  10.549 -0.3399  0.8327 -0.0568
 4210TIP3   OH234044   3.261   2.563  12.566  0.2788  0.1296  0.0058
 4210TIP3    H134045   3.181   2.542  12.613  0.1375  0.2654 -0.1719
 4210TIP3    H234046   3.303   2.630  12.620 -0.6655  1.4415 -0.8570
 4211TIP3   OH234047   4.410   1.255  10.733  1.0821  0.2357 -0.9011
 4211TIP3    H134048   4.324   1.294  10.721  0.8720 -0.7966 -2.9866
 4211TIP3    H234049   4.437   1.282  10.821 -2.0404 -0.7876  0.4215
 4212TIP3   OH234050   1.924   2.079  13.247 -0.0037 -0.9465 -0.6346
 4212TIP3    H134051   1.907   2.089  13.153 -0.5499 -1.6843 -0.6184
 4212TIP3    H234052   1.850   2.027  13.279 -0.4761  0.3383  0.4343
 4213TIP3   OH234053   1.916   2.566  13.406  0.0259 -0.2254 -0.3111
 4213TIP3    H134054   1.832   2.572  13.360  1.1220  0.8689 -2.2181
 4213TIP3    H234055   1.893   2.574  13.499 -1.6821  3.2778 -0.9653
 4214TIP3   OH234056   1.940   4.314  11.339  0.1305  0.8741 -0.1967
 4214TIP3    H134057   2.027   4.335  11.304 -0.5032  0.4869 -2.0587
 4214TIP3    H234058   1.929   4.374  11.413  2.0917  0.7348  0.2383
 4215TIP3   OH234059   4.335   2.322  13.914  0.2723 -0.4730 -0.0762
 4215TIP3    H134060   4.333   2.406  13.960  0.4318 -0.4564 -0.0991
 4215TIP3    H234061   4.243   2.299  13.902  0.2287 -1.0460  1.2897
 4216TIP3   OH234062   1.786   0.197  11.831 -0.4893 -0.2953 -0.6542
 4216TIP3    H134063   1.731   0.275  11.839  1.1974  0.7588  1.1537
 4216TIP3    H234064   1.728   0.125  11.856 -1.7659  0.4627 -1.3134
 4217TIP3   OH234065   1.361   6.508  11.229  0.0761  0.0326 -0.4119
 4217TIP3    H134066   1.383   6.593  11.266 -1.2298  0.4798 -0.6522
 4217TIP3    H234067   1.431   6.450  11.260  0.5137  1.0012  0.4473
 4218TIP3   OH234068   1.901   0.452  12.399  0.0043  0.0558  0.4428
 4218TIP3    H134069   1.993   0.465  12.379 -0.3681  0.0759 -1.3516
 4218TIP3    H234070   1.887   0.358  12.385 -0.3187  0.1164  0.3481
 4219TIP3   OH234071   3.354   3.406  11.938 -0.4303  0.1006 -0.7968
 4219TIP3    H134072   3.318   3.339  11.996  1.6107  1.6413  2.3998
 4219TIP3    H234073   3.423   3.361  11.889 -0.7333 -0.7236 -0.4679
 4220TIP3   OH234074   3.689   2.943  15.032  1.2771 -0.2816  0.1924
 4220TIP3    H134075   3.760   2.981  15.083  1.1567 -0.5657  0.5714
 4220TIP3    H234076   3.613   2.996  15.054  1.9351  1.8934 -2.4150
 4221TIP3   OH234077   7.020   4.068  10.164  0.8149 -0.0633  0.1187
 4221TIP3    H134078   7.035   3.983  10.122  1.4956  1.4432 -2.7870
 4221TIP3    H234079   6.971   4.118  10.100 -1.1151  1.1937  2.5051
 4222TIP3   OH234080   2.804   4.187  12.927 -0.3864 -0.0726 -0.0905
 4222TIP3    H134081   2.897   4.167  12.937  0.2499  2.2818 -0.8242
 4222TIP3    H234082   2.781   4.156  12.840 -0.4303 -1.1757  0.3148
 4223TIP3   OH234083   2.395   1.596  13.010  0.1850  0.1944  0.3279
 4223TIP3    H134084   2.305   1.595  12.977 -1.0527  0.6137  3.4786
 4223TIP3    H234085   2.422   1.688  13.003 -0.3683  0.4301  1.1837
 4224TIP3   OH234086   3.614   4.478  10.030 -0.0999 -0.5263 -0.1485
 4224TIP3    H134087   3.664   4.552  10.066 -2.0204  0.4535  0.5952
 4224TIP3    H234088   3.646   4.469   9.940  2.3494 -0.7951  0.7359
 4225TIP3   OH234089   4.695   4.601  15.206 -0.3401  0.2946 -0.3151
 4225TIP3    H134090   4.602   4.580  15.192 -0.4504  0.8613 -0.4580
 4225TIP3    H234091   4.736   4.517  15.225 -0.7716 -0.0503 -0.8704
 4226TIP3   OH234092   4.985   1.494  11.724 -0.2185  0.0300 -0.9800
 4226TIP3    H134093   5.025   1.569  11.768  0.1901  0.5198 -2.1477
 4226TIP3    H234094   4.911   1.532  11.675 -0.9827 -0.5829 -0.3123
 4227TIP3   OH234095   1.607   4.054  14.873  0.0637 -0.1673  0.1672
 4227TIP3    H134096   1.519   4.017  14.878 -0.9456  2.0326 -0.7608
 4227TIP3    H234097   1.628   4.054  14.779  1.0304 -0.6255  0.3788
 4228TIP3   OH234098   1.901   1.106  13.520  0.4808  0.5573  0.3126
 4228TIP3    H134099   1.906   1.111  13.616 -0.6094  0.2224  0.3919
 4228TIP3    H234100   1.825   1.160  13.497  0.6005  0.4474 -0.3475
 4229TIP3   OH234101   4.288   3.812  14.132 -0.2406 -0.4223  0.2117
 4229TIP3    H134102   4.382   3.805  14.115  0.0903  2.0467  0.7583
 4229TIP3    H234103   4.276   3.771  14.218 -0.0306 -2.5934 -0.7622
 4230TIP3   OH234104   3.255   1.218  13.296 -0.1933 -0.1696  0.0232
 4230TIP3    H134105   3.223   1.304  13.326 -1.0853 -0.3212 -0.4676
 4230TIP3    H234106   3.188   1.188  13.235  1.0393 -0.3868 -1.2352
 4231TIP3   OH234107   3.250   4.089  10.078 -0.1376  0.8740  0.3995
 4231TIP3    H134108   3.284   4.173  10.047 -0.9946  0.4825 -1.6928
 4231TIP3    H234109   3.193   4.059  10.007 -1.1716 -0.6715  1.8522
 4232TIP3   OH234110   1.487   4.680  13.790 -0.1954  0.0527  0.1040
 4232TIP3    H134111   1.465   4.589  13.772  0.7059 -0.2621  0.5476
 4232TIP3    H234112   1.435   4.702  13.868  0.5802 -0.4989  0.7892
 4233TIP3   OH234113   4.369   5.066  13.584  0.7584 -0.2801 -0.3576
 4233TIP3    H134114   4.398   4.980  13.614  1.7830 -0.3291 -1.4502
 4233TIP3    H234115   4.447   5.122  13.593 -0.3705  0.9961  2.0484
 4234TIP3   OH234116   0.034   3.888  15.193  0.3667  0.1450 -0.3738
 4234TIP3    H134117  -0.007   3.944  15.127 -2.3975  2.8063  3.3700
 4234TIP3    H234118  -0.026   3.813  15.201  2.0394 -1.5133 -2.5782
 4235TIP3   OH234119   1.939   2.663  13.105  0.0056  0.3060  0.1090
 4235TIP3    H134120   1.860   2.706  13.140 -1.1567 -0.4525 -1.4967
 4235TIP3    H234121   1.928   2.571  13.130 -0.3031 -0.0453 -1.2832
 4236TIP3   OH234122   4.350   2.085  11.529 -0.5768  0.1235  0.1960
 4236TIP3    H134123   4.339   2.038  11.446 -0.2083 -0.8555  0.6977
 4236TIP3    H234124   4.442   2.112  11.529 -0.7691  0.7936 -0.0573
 4237TIP3   OH234125   1.532   1.291  12.303 -0.0987 -0.5813  0.4390
 4237TIP3    H134126   1.467   1.360  12.291 -0.3508 -0.8792  0.0704
 4237TIP3    H234127   1.549   1.291  12.397 -0.5198 -0.3912  0.5186
 4238TIP3   OH234128   7.240   2.417  12.587 -0.0511 -0.1776 -0.0856
 4238TIP3    H134129   7.204   2.452  12.668 -0.9422 -0.3762 -0.3930
 4238TIP3    H234130   7.174   2.436  12.520  1.1327  0.9430 -0.9802
 4239TIP3   OH234131   1.634   3.277  10.837  0.8480 -0.2431  0.2547
 4239TIP3    H134132   1.637   3.369  10.865  0.8922 -0.6930  1.7540
 4239TIP3    H234133   1.722   3.259  10.804  0.7290  0.3660 -0.4023
 4240TIP3   OH234134   2.892   0.492  14.980  0.1083 -0.3042 -0.1512
 4240TIP3    H134135   2.897   0.506  14.885 -0.6403  0.8260 -0.0335
 4240TIP3    H234136   2.863   0.576  15.015 -0.3914 -0.9505  1.0097
 4241TIP3   OH234137   3.553   3.510  14.118 -0.2293  0.3342  0.5746
 4241TIP3    H134138   3.636   3.555  14.101  0.2788 -0.5895  0.5875
 4241TIP3    H234139   3.491   3.581  14.137  0.4278  1.0640  0.0458
 4242TIP3   OH234140   1.351   1.138  11.154  0.5465  0.4318  0.1442
 4242TIP3    H134141   1.372   1.225  11.188 -2.1162  1.9520 -1.8821
 4242TIP3    H234142   1.427   1.115  11.101  0.1920  2.7593 -1.4707
 4243TIP3   OH234143   2.942   3.382  13.831  0.5224 -0.1784  0.1274
 4243TIP3    H134144   2.877   3.312  13.833  2.1285 -1.6975  1.1214
 4243TIP3    H234145   2.902   3.454  13.880 -1.6236  0.0840 -1.9058
 4244TIP3   OH234146   3.699   3.508  12.759 -0.3463 -0.0622 -0.1096
 4244TIP3    H134147   3.683   3.589  12.808  0.3334 -0.9448  1.6206
 4244TIP3    H234148   3.782   3.475  12.793  0.3451 -0.5132 -2.1582
 4245TIP3   OH234149   1.106   3.968  13.524  0.1859 -0.0830  0.0992
 4245TIP3    H134150   1.094   3.985  13.617  1.2879 -2.5187  0.7164
 4245TIP3    H234151   1.037   3.904  13.503  1.1378 -0.9781 -0.3103
 4246TIP3   OH234152   2.049   3.424  14.424 -0.9359  0.3062  0.0505
 4246TIP3    H134153   2.035   3.358  14.492 -0.3849 -0.9403 -1.0266
 4246TIP3    H234154   1.972   3.417  14.368  0.1746 -1.0408 -1.3638
 4247TIP3   OH234155   2.816   6.172  15.265 -0.0191  0.6904  0.2727
 4247TIP3    H134156   2.773   6.087  15.259 -1.7141  1.5079  0.4445
 4247TIP3    H234157   2.909   6.152  15.265 -0.3631 -1.0848 -1.1570
 4248TIP3   OH234158   7.127   2.069  14.509  0.1265  0.0663  0.0601
 4248TIP3    H134159   7.064   2.003  14.478 -0.8342  2.1890 -2.7641
 4248TIP3    H234160   7.096   2.093  14.596 -1.5385 -0.6891 -0.3045
 4249TIP3   OH234161   5.400   3.789  14.124  0.6330 -0.0334 -0.5987
 4249TIP3    H134162   5.371   3.722  14.187  0.4771  1.2180  0.6759
 4249TIP3    H234163   5.422   3.739  14.045 -1.1551 -1.4135 -0.2587
 4250TIP3   OH234164   2.279   1.223  14.604  0.1712 -0.3562  0.1447
 4250TIP3    H134165   2.279   1.159  14.675 -0.9375  0.3713  0.8204
 4250TIP3    H234166   2.369   1.223  14.572  0.7824 -0.4145  1.8184
 4251TIP3   OH234167   2.955   4.087  12.522  0.1891  0.5746  0.2068
 4251TIP3    H134168   2.885   4.063  12.583  0.4589  0.8401  0.6226
 4251TIP3    H234169   3.031   4.038  12.552 -0.3254 -1.3397 -1.4915
 4252TIP3   OH234170   2.098   2.172  12.600  0.3950  0.2816  0.2147
 4252TIP3    H134171   2.190   2.181  12.627  1.0723 -1.7418 -1.2830
 4252TIP3    H234172   2.076   2.081  12.621 -1.8257  1.1965  2.1067
 4253TIP3   OH234173   2.211   3.078  15.204  0.1647 -0.0677 -0.1614
 4253TIP3    H134174   2.279   3.137  15.172  1.0390 -1.2010 -0.4154
 4253TIP3    H234175   2.258   3.014  15.258 -0.7132 -0.7630 -0.2137
 4254TIP3   OH234176   5.337   3.239  11.750  0.8816  0.6841 -0.2789
 4254TIP3    H134177   5.302   3.150  11.746 -0.5051  1.2266 -0.6109
 4254TIP3    H234178   5.409   3.234  11.813 -0.5631 -0.2040  1.3437
 4255TIP3   OH234179   2.120   0.982  13.577 -0.3653 -0.1599 -0.3915
 4255TIP3    H134180   2.036   1.016  13.546 -0.7744 -0.6274  0.1778
 4255TIP3    H234181   2.160   1.055  13.623 -0.0104  0.3658 -1.5143
 4256TIP3   OH234182   3.410   1.770  13.034 -0.0694 -0.1536  0.2292
 4256TIP3    H134183   3.444   1.817  13.109  0.1896 -0.3478  0.2348
 4256TIP3    H234184   3.392   1.838  12.969  3.5859 -0.3190 -1.0733
 4257TIP3   OH234185   2.068   1.623  11.482 -0.3265 -0.6459  0.7328
 4257TIP3    H134186   2.045   1.643  11.391 -0.1138 -0.9595  0.6077
 4257TIP3    H234187   2.135   1.686  11.505 -0.6715 -0.3046  0.8025
 4258TIP3   OH234188   0.536   0.252  13.489 -0.3211  0.0230 -0.1697
 4258TIP3    H134189   0.569   0.205  13.413  2.0576  0.7428  0.3633
 4258TIP3    H234190   0.448   0.281  13.464  0.5278  0.4773 -2.7181
 4259TIP3   OH234191   1.882   5.218  11.060  0.0558  0.1123 -0.1118
 4259TIP3    H134192   1.806   5.162  11.076  0.2267 -0.0156  0.2624
 4259TIP3    H234193   1.937   5.167  11.000 -1.1474  1.0971 -2.0524
 4260TIP3   OH234194   0.121   2.375  12.200  0.2521  0.8139  0.0373
 4260TIP3    H134195   0.127   2.344  12.110  1.1991 -0.1050  0.4155
 4260TIP3    H234196   0.057   2.447  12.196 -1.6286 -0.8797 -0.9093
 4261TIP3   OH234197   2.519   1.824  12.108 -0.2523 -0.1233  0.0982
 4261TIP3    H134198   2.425   1.842  12.099 -0.3102 -0.0010  0.9123
 4261TIP3    H234199   2.523   1.752  12.171  0.2598  0.4718  0.7388
 4262TIP3   OH234200   1.956   0.360  13.948  0.9104  0.0826 -0.1850
 4262TIP3    H134201   1.941   0.267  13.930  1.3688 -0.1305  0.5287
 4262TIP3    H234202   1.903   0.406  13.882  0.4845 -0.6795 -0.3765
 4263TIP3   OH234203   3.918   4.423  11.643 -0.3126  0.6526  0.5487
 4263TIP3    H134204   4.011   4.411  11.622  0.0002  0.6137  1.8694
 4263TIP3    H234205   3.898   4.512  11.615 -0.0420  0.4400 -0.3276
 4264TIP3   OH234206   4.544   1.632  11.036  0.3442 -0.2376  0.2602
 4264TIP3    H134207   4.509   1.720  11.054 -0.4809  0.1608 -2.9335
 4264TIP3    H234208   4.622   1.648  10.983  0.5465 -1.4291  0.1841
 4265TIP3   OH234209   1.077   0.450  14.479 -0.1430 -0.3086 -0.2156
 4265TIP3    H134210   1.053   0.402  14.558  0.3625 -0.0784  0.0797
 4265TIP3    H234211   0.996   0.493  14.452 -0.5165 -1.0477 -0.2912
 4266TIP3   OH234212   1.857   1.381  12.399  0.1593  0.1647 -0.0496
 4266TIP3    H134213   1.915   1.382  12.475 -0.2731 -2.8507  0.3742
 4266TIP3    H234214   1.909   1.341  12.329 -0.2733  0.6109 -0.6412
 4267TIP3   OH234215   3.520   3.461  10.432 -0.0475  0.0044 -0.3410
 4267TIP3    H134216   3.499   3.497  10.345  0.0804  0.1479 -0.3119
 4267TIP3    H234217   3.570   3.382  10.414 -1.7797 -1.1001 -0.4403
 4268TIP3   OH234218   4.813   3.677  14.693  0.4031  0.4779 -0.6190
 4268TIP3    H134219   4.797   3.671  14.787  0.8927 -2.3684 -0.6795
 4268TIP3    H234220   4.727   3.691  14.654 -0.0409 -0.2755  0.1083
 4269TIP3   OH234221   0.976   0.798  13.770  0.4514  1.0092 -0.0982
 4269TIP3    H134222   0.894   0.827  13.810 -0.0921 -2.4521  1.4744
 4269TIP3    H234223   1.043   0.823  13.833  0.0490 -0.5104  0.9670
 4270TIP3   OH234224   2.929   1.465  12.542  0.2478 -0.2290 -0.7677
 4270TIP3    H134225   2.925   1.408  12.619  0.9323  3.2955  2.0143
 4270TIP3    H234226   2.843   1.456  12.501 -0.0460 -2.3166  0.2343
 4271TIP3   OH234227   3.275   3.495  14.423  0.0312 -0.4919  0.1178
 4271TIP3    H134228   3.205   3.519  14.362 -0.9459  0.4857  1.5736
 4271TIP3    H234229   3.342   3.562  14.410 -0.5088  0.1638  0.6190
 4272TIP3   OH234230   1.235   2.209  13.018  0.2193 -0.3056  0.5354
 4272TIP3    H134231   1.218   2.259  13.098  0.1951  0.4462  0.0655
 4272TIP3    H234232   1.205   2.121  13.039  0.2184 -0.1199  1.3604
 4273TIP3   OH234233   4.247   3.211  10.832  0.2087  0.1197 -0.2307
 4273TIP3    H134234   4.326   3.167  10.801  0.4249 -0.4513  1.0917
 4273TIP3    H234235   4.179   3.187  10.769  0.3726 -1.9759  0.3435
 4274TIP3   OH234236   4.157   2.667  12.547  0.0774  0.1932 -0.2079
 4274TIP3    H134237   4.125   2.660  12.457 -1.9246 -0.1699  0.5157
 4274TIP3    H234238   4.091   2.720  12.592  0.7895 -0.0654  1.1797
 4275TIP3   OH234239   3.818   4.740  11.993  0.3850 -0.2302  0.1411
 4275TIP3    H134240   3.746   4.692  11.952  0.1333 -0.2043  0.5533
 4275TIP3    H234241   3.798   4.832  11.976 -0.6832 -0.1147  1.8777
 4276TIP3   OH234242   2.849   2.943  15.247 -0.0501 -0.2708 -0.3900
 4276TIP3    H134243   2.867   2.851  15.224 -1.2576 -0.1963 -1.7808
 4276TIP3    H234244   2.756   2.955  15.224 -0.8516  0.3568  2.9920
 4277TIP3   OH234245   2.991   2.571  12.672 -0.4890 -0.6433  0.4411
 4277TIP3    H134246   2.942   2.564  12.754  0.3560  3.1057  1.3594
 4277TIP3    H234247   2.930   2.613  12.611  0.4580  1.1869  0.6892
 4278TIP3   OH234248   2.312   2.358  13.423  0.3683 -0.6149 -0.2623
 4278TIP3    H134249   2.265   2.400  13.495 -1.0731 -3.1515  0.3145
 4278TIP3    H234250   2.243   2.327  13.364  1.4438 -1.5994 -1.0052
 4279TIP3   OH234251   1.952   3.578  12.231 -0.4472  0.1343 -0.3285
 4279TIP3    H134252   1.984   3.495  12.266  1.1067 -0.1470 -2.3560
 4279TIP3    H234253   2.027   3.618  12.188 -1.8210  1.3465 -1.7008
 4280TIP3   OH234254   2.564   4.495  12.930  0.1138  0.2201 -0.3732
 4280TIP3    H134255   2.579   4.495  13.025  0.0993 -2.6836 -0.3281
 4280TIP3    H234256   2.649   4.474  12.892 -0.7106 -2.6218 -0.7691
 4281TIP3   OH234257   4.086   1.734  15.315  0.0642 -0.2769  0.0691
 4281TIP3    H134258   4.087   1.738  15.220  1.4955 -0.8491  0.0505
 4281TIP3    H234259   4.115   1.645  15.336  0.7900  0.1834  1.0564
 4282TIP3   OH234260   2.942   1.903  13.777 -0.1367  0.6377 -0.2425
 4282TIP3    H134261   3.033   1.875  13.781 -0.1152  0.7471  0.0899
 4282TIP3    H234262   2.937   1.976  13.839 -0.7925 -0.3294  0.8505
 4283TIP3   OH234263   1.249   4.295  13.123 -0.1733  0.1311 -0.0386
 4283TIP3    H134264   1.274   4.205  13.103 -1.5619 -0.2409 -0.1570
 4283TIP3    H234265   1.211   4.290  13.211  1.4616  0.9369  0.7501
 4284TIP3   OH234266   5.308   4.124  12.902 -0.0430  0.2735 -0.2032
 4284TIP3    H134267   5.371   4.144  12.832 -1.2241 -1.6947 -1.8988
 4284TIP3    H234268   5.239   4.189  12.890 -0.7240 -0.6577 -1.5588
 4285TIP3   OH234269   3.508   2.448  13.216 -0.1963 -0.2793  0.6129
 4285TIP3    H134270   3.488   2.535  13.182 -1.3358 -1.4066 -1.6921
 4285TIP3    H234271   3.594   2.427  13.181  0.3726  0.1433  1.7064
 4286TIP3   OH234272   4.039   4.837  10.442 -0.2220  0.2485 -0.0938
 4286TIP3    H134273   4.106   4.859  10.507  0.3965  1.4815 -1.1304
 4286TIP3    H234274   3.963   4.889  10.467 -0.3641 -0.1682  0.3309
 4287TIP3   OH234275   2.111   2.167  14.326  0.1280  0.1553  0.3003
 4287TIP3    H134276   2.037   2.134  14.376 -0.7376  0.3668 -0.8177
 4287TIP3    H234277   2.134   2.250  14.368 -1.3851  0.9425 -0.3914
 4288TIP3   OH234278   3.092   2.482  12.972 -0.1086 -0.0074  0.0203
 4288TIP3    H134279   3.088   2.407  13.032 -2.4852 -0.7799 -1.0327
 4288TIP3    H234280   3.053   2.554  13.022  0.2832 -0.0046  0.3214
 4289TIP3   OH234281   1.463   2.495  10.973  0.0868 -0.5794 -0.1006
 4289TIP3    H134282   1.408   2.461  10.902  1.1557 -1.5898 -0.4563
 4289TIP3    H234283   1.471   2.588  10.953 -1.5055 -0.4152 -0.0324
 4290TIP3   OH234284   3.231   2.349  13.188 -0.4904 -0.7180  0.0849
 4290TIP3    H134285   3.208   2.304  13.269  0.2527  0.5543  1.0132
 4290TIP3    H234286   3.300   2.410  13.213 -0.4632 -0.1068 -1.4489
 4291TIP3   OH234287   6.108   3.901  11.956  0.1934  0.2384 -0.0550
 4291TIP3    H134288   6.074   3.813  11.938  0.8320  0.6460 -3.5776
 4291TIP3    H234289   6.189   3.906  11.906 -0.4044  3.1783 -0.8147
 4292TIP3   OH234290   5.755   3.292  11.291  0.3631 -0.4825  0.3574
 4292TIP3    H134291   5.735   3.349  11.216  2.2290 -1.0547 -0.6103
 4292TIP3    H234292   5.777   3.352  11.362  0.5212  0.0275 -0.1223
 4293TIP3   OH234293   3.619   3.828  12.409 -0.2304  0.2426 -0.2936
 4293TIP3    H134294   3.667   3.768  12.352  1.4889  0.7916  0.5297
 4293TIP3    H234295   3.654   3.914  12.388  0.1109  0.5017  1.2502
 4294TIP3   OH234296   1.862   3.443  12.936 -0.2060  0.3905  0.4702
 4294TIP3    H134297   1.935   3.398  12.978 -0.9285 -1.5698 -0.3036
 4294TIP3    H234298   1.820   3.493  13.007  0.5473 -0.2440  1.3676
 4295TIP3   OH234299   2.155   1.867  12.714  0.0857 -0.7405  0.0759
 4295TIP3    H134300   2.099   1.857  12.638  1.4145 -0.4494 -0.9703
 4295TIP3    H234301   2.222   1.799  12.704 -0.7868 -1.9181  1.9697
 4296TIP3   OH234302   1.512   3.715  13.456 -0.1797  0.1192 -0.1951
 4296TIP3    H134303   1.420   3.692  13.470 -0.2288  0.2406 -0.3218
 4296TIP3    H234304   1.523   3.710  13.361  0.3793 -1.5992 -0.0666
 4297TIP3   OH234305   4.994   3.438  11.065  1.2599 -0.0190 -0.3453
 4297TIP3    H134306   5.050   3.400  11.133  0.1615  1.4761  1.4473
 4297TIP3    H234307   5.031   3.525  11.049  0.6401  0.1981 -0.6227
 4298TIP3   OH234308   1.460   2.459  13.080  0.2599 -0.4849 -0.1268
 4298TIP3    H134309   1.369   2.471  13.108  0.2307  0.7115 -0.6761
 4298TIP3    H234310   1.464   2.369  13.048 -0.3254 -1.0543  1.3808
 4299TIP3   OH234311   0.226   2.191  14.490  0.2425 -0.2780  0.6155
 4299TIP3    H134312   0.169   2.256  14.533  0.3021  0.1692  0.0185
 4299TIP3    H234313   0.170   2.115  14.475 -0.1862  0.1459  0.0671
 4300TIP3   OH234314   2.517   2.182  11.887  0.0063  0.0767 -0.7255
 4300TIP3    H134315   2.428   2.213  11.899  0.1131  0.3220 -0.5840
 4300TIP3    H234316   2.549   2.230  11.810 -0.3930 -0.8858 -1.5127
 4301TIP3   OH234317   1.289   4.724  11.831 -0.0082 -0.1935 -0.9582
 4301TIP3    H134318   1.239   4.750  11.909 -1.0738 -2.7162 -0.7701
 4301TIP3    H234319   1.320   4.807  11.794 -3.8043  1.4163 -0.7388
 4302TIP3   OH234320   1.199   0.826  11.829  0.0145  0.6327 -0.3950
 4302TIP3    H134321   1.106   0.822  11.806 -0.2159 -0.5170  0.7217
 4302TIP3    H234322   1.202   0.802  11.922  1.6818 -1.6518 -1.0106
 4303TIP3   OH234323   4.348   0.577  10.536 -0.2451  0.1516  0.1739
 4303TIP3    H134324   4.284   0.513  10.564  0.3403 -0.8621 -0.7781
 4303TIP3    H234325   4.433   0.535  10.549  0.2502  1.4311  1.3015
 4304TIP3   OH234326   1.647   4.266  11.629  0.2254 -0.1010 -0.2030
 4304TIP3    H134327   1.584   4.194  11.638  1.1416 -1.1854 -2.1734
 4304TIP3    H234328   1.720   4.229  11.581  0.6810  2.1789 -1.3653
 4305TIP3   OH234329   0.526   1.277  13.766 -0.1811 -0.0580 -0.0320
 4305TIP3    H134330   0.510   1.203  13.707 -1.7849  1.0720 -1.0472
 4305TIP3    H234331   0.469   1.259  13.841 -0.9183  0.3905 -0.4863
 4306TIP3   OH234332   3.038   2.278  13.677 -0.2481 -0.2933 -0.2336
 4306TIP3    H134333   2.955   2.240  13.705 -1.0593  2.2613  0.9936
 4306TIP3    H234334   3.094   2.273  13.754  0.0647 -0.1841 -0.4531
 4307TIP3   OH234335   2.199   6.260  11.959 -0.0560  0.0930 -0.0878
 4307TIP3    H134336   2.145   6.332  11.926 -1.7903 -1.4837 -0.8258
 4307TIP3    H234337   2.211   6.279  12.052 -0.4962  1.3137 -0.2689
 4308TIP3   OH234338   1.568   3.551  12.952 -0.4993  0.2722  0.4378
 4308TIP3    H134339   1.487   3.591  12.921  0.0305  0.7941 -0.2734
 4308TIP3    H234340   1.585   3.479  12.891  0.3897  1.1195 -0.3110
 4309TIP3   OH234341   3.287   1.741  13.379  0.1186 -0.6688 -0.3123
 4309TIP3    H134342   3.270   1.829  13.345 -1.2459 -0.3776  1.0934
 4309TIP3    H234343   3.373   1.718  13.343  0.7887  1.4938 -0.1748
 4310TIP3   OH234344   3.596   1.491  13.792  0.7331  0.6164 -0.1749
 4310TIP3    H134345   3.588   1.396  13.795  0.0203  0.6858  0.3113
 4310TIP3    H234346   3.545   1.517  13.716 -0.6870  0.7584  0.8021
 4311TIP3   OH234347   4.165   3.078  14.531  0.1118 -0.0970  0.2765
 4311TIP3    H134348   4.230   3.095  14.599 -0.9426 -0.3488  1.3802
 4311TIP3    H234349   4.211   3.026  14.466  1.5896  1.5204 -0.0112
 4312TIP3   OH234350   4.982   2.979  13.664  0.3943  0.4253 -0.9666
 4312TIP3    H134351   4.955   3.025  13.744  0.3352 -0.4593 -0.4719
 4312TIP3    H234352   5.036   3.043  13.618 -2.0224  2.0206 -1.6964
 4313TIP3   OH234353   4.222   4.967  12.163 -0.4935  0.1671  0.0304
 4313TIP3    H134354   4.247   5.055  12.134  0.3862  0.7796  2.5599
 4313TIP3    H234355   4.303   4.916  12.158 -0.8510 -0.3490 -0.7528
 4314TIP3   OH234356   1.840   3.962  13.086 -0.3679  0.0661 -0.3578
 4314TIP3    H134357   1.830   4.050  13.123  0.6206 -0.3858  1.0279
 4314TIP3    H234358   1.751   3.925  13.090 -0.8847  1.1632 -1.4057
 4315TIP3   OH234359   2.499   6.303  11.394 -0.2816  0.2692 -0.0155
 4315TIP3    H134360   2.530   6.218  11.363 -0.1983  0.2306  0.1705
 4315TIP3    H234361   2.555   6.367  11.350 -0.3110  0.2242 -0.1169
 4316TIP3   OH234362   1.032   3.010  11.783 -0.2692 -0.2321 -0.5596
 4316TIP3    H134363   1.037   2.932  11.838  2.5484  0.4308  0.2165
 4316TIP3    H234364   0.943   3.042  11.794 -1.3970 -3.2022 -0.7312
 4317TIP3   OH234365   2.358   1.258  13.367 -0.5264  0.0564  0.3099
 4317TIP3    H134366   2.371   1.353  13.372 -1.8605  0.1919  1.5998
 4317TIP3    H234367   2.264   1.249  13.352 -0.5509 -1.0853  1.1460
 4318TIP3   OH234368   2.512   5.169  12.906 -0.7559 -0.4078 -0.6039
 4318TIP3    H134369   2.535   5.112  12.979 -1.5977 -0.8861 -0.7094
 4318TIP3    H234370   2.596   5.199  12.872 -0.3428 -0.5981  0.2305
 4319TIP3   OH234371   1.956   2.871  14.623  0.1042  0.0041  0.2952
 4319TIP3    H134372   1.957   2.847  14.531 -0.8404 -0.3200  0.3618
 4319TIP3    H234373   1.885   2.819  14.661  0.2941  0.3486  1.1424
 4320TIP3   OH234374   3.048   3.541  12.108 -0.2351 -0.1904 -0.9167
 4320TIP3    H134375   2.961   3.502  12.118 -0.7007  0.9506 -0.5126
 4320TIP3    H234376   3.053   3.608  12.176  1.5392 -1.2525  0.0634
 4321TIP3   OH234377   1.951   5.282  14.100 -0.3016  0.2358  0.0057
 4321TIP3    H134378   1.933   5.262  14.192 -0.8192  1.5694  0.2102
 4321TIP3    H234379   1.978   5.374  14.101 -0.9171  0.4370 -1.2558
 4322TIP3   OH234380   1.375   2.200   0.272 -0.3257  0.0984 -1.6383
 4322TIP3    H134381   1.377   2.256   0.350 -0.6170 -3.1506  0.8277
 4322TIP3    H234382   1.296   2.227   0.225 -1.2622  0.7552  0.2626
 4323TIP3   OH234383   2.406   3.960  10.038 -0.1386  0.5305  0.1757
 4323TIP3    H134384   2.496   3.935  10.054 -0.0086  0.5681 -0.4708
 4323TIP3    H234385   2.354   3.886  10.071  0.0731  0.9147  1.4048
 4324TIP3   OH234386   1.973   2.776  13.984 -0.0132  0.5381 -0.0179
 4324TIP3    H134387   1.954   2.864  13.953  0.3647  1.2247  1.6017
 4324TIP3    H234388   1.931   2.772  14.070  1.9707 -0.0234  0.9537
 4325TIP3   OH234389   4.120   3.261  11.095 -0.0696  0.3543 -0.0159
 4325TIP3    H134390   4.184   3.195  11.121 -1.6135 -0.9607  0.5420
 4325TIP3    H234391   4.121   3.259  11.000 -2.0244 -2.4348 -0.0313
 4326TIP3   OH234392   0.075   3.042  11.933 -0.2586  0.7043  0.4894
 4326TIP3    H134393   0.060   3.108  12.000  1.2493  0.1337  1.4306
 4326TIP3    H234394   0.127   2.975  11.977 -1.2369 -0.8130 -0.6210
 4327TIP3   OH234395   6.700   4.558  13.912  0.4460 -0.2758 -0.4828
 4327TIP3    H134396   6.648   4.626  13.870 -0.7202 -0.1201  1.1387
 4327TIP3    H234397   6.682   4.479  13.862  0.8047  0.3457 -1.6006
 4328TIP3   OH234398   3.741   1.347  10.901  0.1615  0.6533 -0.0762
 4328TIP3    H134399   3.774   1.302  10.979 -1.6972  1.0954  1.0068
 4328TIP3    H234400   3.646   1.348  10.913 -0.3526 -1.2943 -3.4822
 4329TIP3   OH234401   2.576   0.961  13.240  0.5674  0.5984  0.4339
 4329TIP3    H134402   2.605   1.044  13.276  0.4999  1.3936 -1.3054
 4329TIP3    H234403   2.481   0.962  13.248  0.5398  0.8490  0.0716
 4330TIP3   OH234404   1.340   3.643  14.504 -0.1009  0.2063  0.3278
 4330TIP3    H134405   1.278   3.570  14.507  0.5382 -0.3011  2.0766
 4330TIP3    H234406   1.317   3.691  14.425 -1.0791 -1.4128 -0.3935
 4331TIP3   OH234407   1.745   1.989  15.935  0.1751  0.2696 -0.4341
 4331TIP3    H134408   1.828   2.014  15.975 -1.0467  0.3962  2.0649
 4331TIP3    H234409   1.705   2.072  15.908  0.2734  0.2912 -0.5183
 4332TIP3   OH234410   4.514   1.377  10.957  0.4946  0.3439 -0.0469
 4332TIP3    H134411   4.505   1.457  11.008  2.6250 -0.4749  1.7054
 4332TIP3    H234412   4.517   1.307  11.023  3.8626 -0.7135 -1.2140
 4333TIP3   OH234413   0.788   3.349  14.171  0.4732  0.0851 -0.3818
 4333TIP3    H134414   0.852   3.361  14.101 -1.2740  2.7218 -1.5964
 4333TIP3    H234415   0.709   3.319  14.126  0.2900 -1.4069  0.8904
 4334TIP3   OH234416   1.676   1.762  15.133  0.4548 -0.0299  0.2038
 4334TIP3    H134417   1.733   1.703  15.182 -0.2860 -1.3753 -0.5324
 4334TIP3    H234418   1.608   1.705  15.098 -0.1942  1.2534 -0.6240
 4335TIP3   OH234419   2.306   5.316  13.973  0.0919  0.1267  0.2645
 4335TIP3    H134420   2.389   5.350  13.940 -0.5188  1.2713 -0.0990
 4335TIP3    H234421   2.280   5.377  14.042 -0.2143 -0.5044  0.7201
 4336TIP3   OH234422   3.335   6.756  11.891  0.3638 -0.2201 -0.2560
 4336TIP3    H134423   3.373   6.833  11.932  0.2122 -0.1851 -0.1824
 4336TIP3    H234424   3.354   6.766  11.798 -0.7254  0.5058 -0.3970
 4337TIP3   OH234425   2.791   2.426  14.950 -0.1137  0.1968 -0.1828
 4337TIP3    H134426   2.803   2.475  15.031  0.3983  0.6277 -0.5174
 4337TIP3    H234427   2.837   2.477  14.883  0.3977 -0.7201 -0.5438
 4338TIP3   OH234428   2.571   4.369  14.463  0.5333  0.3878  0.0047
 4338TIP3    H134429   2.596   4.370  14.371  0.3484 -0.2585 -0.0571
 4338TIP3    H234430   2.654   4.382  14.510  1.0058 -1.6608 -0.2064
 4339TIP3   OH234431   3.092   4.414  12.849 -0.0554 -0.5313 -0.0775
 4339TIP3    H134432   3.113   4.335  12.899  2.9250  0.6305  0.6162
 4339TIP3    H234433   3.116   4.392  12.759  0.7948 -0.4288  0.1192
 4340TIP3   OH234434   3.509   3.061  14.359 -0.6081 -0.1389  0.0943
 4340TIP3    H134435   3.504   3.105  14.274 -1.0700 -2.0458 -0.8918
 4340TIP3    H234436   3.471   2.974  14.343  0.1956 -0.8630  2.0118
 4341TIP3   OH234437   0.520   1.933  14.643 -0.6367 -0.1838  0.0320
 4341TIP3    H134438   0.442   1.899  14.600  1.1946 -3.0238 -1.2135
 4341TIP3    H234439   0.542   2.013  14.596 -1.9793 -0.1434 -0.5268
 4342TIP3   OH234440   3.488   0.065  14.875  0.4695 -0.5023 -0.1394
 4342TIP3    H134441   3.551   0.067  14.947 -0.9432  0.9228  1.0896
 4342TIP3    H234442   3.493  -0.025  14.841  2.3044 -0.7235  0.6825
 4343TIP3   OH234443   3.173   2.574   0.033 -0.3480  0.5017  0.1001
 4343TIP3    H134444   3.223   2.642  -0.012 -1.8974  2.1738  0.8209
 4343TIP3    H234445   3.177   2.498  -0.025  0.1159  1.7067 -1.4729
 4344TIP3   OH234446   0.326   2.127  14.927  0.0202 -0.1147  0.3933
 4344TIP3    H134447   0.359   2.056  14.871 -0.3767  0.3919 -0.4995
 4344TIP3    H234448   0.339   2.095  15.016  1.1698 -0.7163  0.0274
 4345TIP3   OH234449   0.423   1.724  12.938 -0.5503 -0.4762 -0.3173
 4345TIP3    H134450   0.369   1.665  12.885  0.2001 -0.7390 -0.8010
 4345TIP3    H234451   0.504   1.733  12.888 -0.3209  0.2727  0.1843
 4346TIP3   OH234452   3.632   3.696  13.002  0.3565  0.1324  0.4732
 4346TIP3    H134453   3.724   3.716  13.020  0.2966  1.2481 -0.3596
 4346TIP3    H234454   3.622   3.604  13.026  2.1003 -0.4670 -0.9921
 4347TIP3   OH234455   0.336   4.543  13.918 -0.4627  0.4804  0.3698
 4347TIP3    H134456   0.410   4.591  13.879 -0.8693  1.2471  0.5263
 4347TIP3    H234457   0.288   4.509  13.842  0.4530 -0.6423  0.2843
 4348TIP3   OH234458   3.939   0.778  14.202 -0.3187 -0.2985 -0.4426
 4348TIP3    H134459   3.892   0.699  14.177 -2.6745  0.6259  0.8923
 4348TIP3    H234460   3.872   0.834  14.243  1.9099  1.1125  1.4107
 4349TIP3   OH234461   0.919   3.283  11.964 -0.2939  0.2465 -0.2354
 4349TIP3    H134462   0.935   3.349  11.898  2.4739  0.1828  0.3299
 4349TIP3    H234463   0.978   3.211  11.943 -2.5592 -1.6941 -0.2808
 4350TIP3   OH234464   5.070   2.520  12.957  0.2734 -0.0454  0.2812
 4350TIP3    H134465   5.150   2.468  12.956  0.9219  0.9503 -0.8701
 4350TIP3    H234466   5.032   2.508  12.870  0.0716  0.8373  0.2399
 4351TIP3   OH234467   4.430   2.587  12.345 -0.0963  0.6118 -0.3824
 4351TIP3    H134468   4.509   2.638  12.364  0.6564  0.3217 -2.6471
 4351TIP3    H234469   4.400   2.557  12.431  1.4275  1.9443  0.6411
 4352TIP3   OH234470   6.482   2.052  14.562  0.0892  0.3569 -0.0631
 4352TIP3    H134471   6.525   1.970  14.538  1.0114  0.4194  1.2818
 4352TIP3    H234472   6.409   2.026  14.618  0.6208  0.4620  0.6921
 4353TIP3   OH234473   2.222   2.635  11.151 -0.1811 -0.5282  0.1733
 4353TIP3    H134474   2.212   2.593  11.236 -2.6034 -0.4718 -0.0510
 4353TIP3    H234475   2.221   2.562  11.088  0.8012 -0.5139  0.1431
 4354TIP3   OH234476   4.985   2.977  12.200  0.0964 -0.3125 -0.4298
 4354TIP3    H134477   4.918   2.973  12.131 -0.5063 -0.1619  0.1420
 4354TIP3    H234478   5.030   2.892  12.194  0.1849 -0.2201 -1.1420
 4355TIP3   OH234479   3.201   3.321  15.430 -0.0765 -0.4919  0.7550
 4355TIP3    H134480   3.269   3.259  15.457 -0.7605 -0.8457  1.6883
 4355TIP3    H234481   3.124   3.266  15.414 -0.4969  0.0415  0.9223
 4356TIP3   OH234482   3.079   5.418  13.750  0.3576  0.2601  0.5103
 4356TIP3    H134483   3.076   5.327  13.722  0.4947  0.8663 -1.5665
 4356TIP3    H234484   3.032   5.419  13.834 -0.8990 -1.4682 -0.1468
 4357TIP3   OH234485   2.171   0.937  11.838 -0.5227 -0.6750 -0.1531
 4357TIP3    H134486   2.237   1.007  11.836 -1.6197  0.4578  1.8843
 4357TIP3    H234487   2.208   0.871  11.896  0.4244 -1.7388 -1.9223
 4358TIP3   OH234488   0.808   3.064  13.488 -0.2652  0.8207 -0.0281
 4358TIP3    H134489   0.791   3.155  13.463 -0.2909  0.4951 -1.2239
 4358TIP3    H234490   0.904   3.059  13.496 -0.2902  1.0503  0.4385
 4359TIP3   OH234491   5.618   1.630  11.628  0.6598 -0.0152  0.1530
 4359TIP3    H134492   5.596   1.570  11.556  1.4710 -0.6713  0.4333
 4359TIP3    H234493   5.540   1.684  11.640 -0.0068 -0.8823 -0.2528
 4360TIP3   OH234494   3.328   2.419  14.349 -0.3533  0.5142 -0.2582
 4360TIP3    H134495   3.291   2.485  14.407  1.7841  1.6578 -0.1621
 4360TIP3    H234496   3.415   2.402  14.385 -0.2854 -1.2193 -1.1949
 4361TIP3   OH234497   3.029   3.733  13.336  0.8997  0.7162 -0.5790
 4361TIP3    H134498   3.038   3.680  13.415  3.3970  1.3957 -0.3976
 4361TIP3    H234499   3.109   3.717  13.287 -0.9966 -0.4360 -3.4823
 4362TIP3   OH234500   4.351   2.974  12.520  0.3152  0.2402 -0.4696
 4362TIP3    H134501   4.410   2.988  12.446 -1.4652  1.0013 -1.7713
 4362TIP3    H234502   4.386   2.896  12.563  0.0001 -1.7116 -3.5385
 4363TIP3   OH234503   4.390   1.332  13.071  0.1531 -0.1767 -0.3417
 4363TIP3    H134504   4.335   1.389  13.125  0.1442  0.9912 -1.5557
 4363TIP3    H234505   4.346   1.247  13.074  0.6784 -0.3803  2.2413
 4364TIP3   OH234506   3.216   3.017  11.316 -0.0895  0.9125 -1.1155
 4364TIP3    H134507   3.147   3.017  11.250 -1.2362 -0.6239  0.0557
 4364TIP3    H234508   3.170   3.030  11.399  0.9267 -0.7903 -0.2498
 4365TIP3   OH234509   4.492   1.645  14.400  0.2651  0.1198  0.4620
 4365TIP3    H134510   4.430   1.574  14.418  0.0494 -0.2755 -1.6970
 4365TIP3    H234511   4.577   1.602  14.396  0.7363  0.6551  3.3715
 4366TIP3   OH234512   6.200   3.517  12.772  0.2494  0.5214  0.2409
 4366TIP3    H134513   6.196   3.472  12.688  0.4989  0.4793  0.2521
 4366TIP3    H234514   6.114   3.558  12.781  0.0156  0.0313  0.2444
 4367TIP3   OH234515   6.365   2.027  12.990 -1.3522 -0.0854  0.1956
 4367TIP3    H134516   6.430   2.064  13.050 -0.0444 -1.2103 -0.5248
 4367TIP3    H234517   6.281   2.053  13.028 -0.5097  0.8430  1.4778
 4368TIP3   OH234518   3.001   1.100  13.661  0.0688  0.1719 -0.3635
 4368TIP3    H134519   2.951   1.178  13.637 -0.7650 -0.2988 -0.1789
 4368TIP3    H234520   2.947   1.056  13.726 -0.3887 -1.5914 -1.8938
 4369TIP3   OH234521   3.996   1.435  11.584 -0.1585 -0.1678 -0.2129
 4369TIP3    H134522   3.957   1.374  11.522 -0.8365  0.6192 -0.5658
 4369TIP3    H234523   4.037   1.503  11.530 -0.2891  0.2354  0.1852
 4370TIP3   OH234524   2.908   1.390  13.660 -0.4298 -0.5167 -0.2765
 4370TIP3    H134525   2.862   1.430  13.586  0.8308  1.2710 -0.1335
 4370TIP3    H234526   2.952   1.464  13.703  1.9122 -2.0597  0.0433
 4371TIP3   OH234527   2.177   1.535  14.040  0.6329  0.0742 -0.1694
 4371TIP3    H134528   2.127   1.457  14.063  1.5336  0.4401  3.2811
 4371TIP3    H234529   2.242   1.505  13.977 -0.1988 -1.5433 -0.2855
 4372TIP3   OH234530   3.918   6.471  13.870  0.2664 -0.0034  0.2693
 4372TIP3    H134531   3.967   6.550  13.895  0.2835 -0.0391  0.3516
 4372TIP3    H234532   3.974   6.427  13.807  1.3714 -1.1770  2.0061
 4373TIP3   OH234533   5.529   4.196  11.789  0.2219  0.5076 -0.1712
 4373TIP3    H134534   5.459   4.144  11.748 -0.3008 -0.4365  1.8248
 4373TIP3    H234535   5.494   4.285  11.792  0.3389  0.6211 -1.9083
 4374TIP3   OH234536   1.078   3.188  10.846  0.2222 -0.4559  0.1676
 4374TIP3    H134537   1.089   3.274  10.886 -0.6716  0.9044 -2.4065
 4374TIP3    H234538   0.985   3.169  10.854 -0.3431  0.7290 -2.9096
 4375TIP3   OH234539   2.395   4.923  13.334  0.0322 -1.4041  0.3294
 4375TIP3    H134540   2.391   4.931  13.239  1.7868  1.7657  0.4318
 4375TIP3    H234541   2.488   4.906  13.353 -0.3183 -2.1351  1.4811
 4376TIP3   OH234542   0.396   6.940  13.299 -0.6569 -0.0612  0.0828
 4376TIP3    H134543   0.427   6.864  13.349 -1.5582 -1.2049 -1.0358
 4376TIP3    H234544   0.466   7.004  13.306  1.7715 -2.3801 -1.9321
 4377TIP3   OH234545   2.561   2.846  15.168  0.0801  0.3264 -0.0003
 4377TIP3    H134546   2.472   2.810  15.170  0.9030 -1.8238 -0.7733
 4377TIP3    H234547   2.570   2.884  15.081  0.8741 -2.0413 -0.9870
 4378TIP3   OH234548   1.582   2.782  11.975 -0.2026 -0.5773 -0.2362
 4378TIP3    H134549   1.620   2.775  12.062  0.0085 -1.6152 -0.4045
 4378TIP3    H234550   1.489   2.802  11.991 -0.2481 -1.1343  0.2438
 4379TIP3   OH234551   4.405   4.238  14.733 -0.0046  0.3551 -0.2320
 4379TIP3    H134552   4.326   4.195  14.702  0.1513  0.2645 -0.5014
 4379TIP3    H234553   4.465   4.167  14.753 -0.2786  0.3886  0.7559
 4380TIP3   OH234554   4.678   4.477  11.944  0.0452  0.6299 -0.0011
 4380TIP3    H134555   4.687   4.507  12.034  0.0476 -0.6361  0.4278
 4380TIP3    H234556   4.585   4.455  11.935  0.5499 -1.8450  0.5349
 4381TIP3   OH234557   4.747   2.440  12.347  0.6564  0.2664  0.0614
 4381TIP3    H134558   4.714   2.377  12.283 -0.3097  1.2576 -0.4335
 4381TIP3    H234559   4.688   2.432  12.422  1.2573 -0.2677  0.4817
 4382TIP3   OH234560   0.852   3.391  13.855  0.0723 -0.1213  0.3767
 4382TIP3    H134561   0.830   3.370  13.764 -0.8344 -0.5150  0.6802
 4382TIP3    H234562   0.904   3.316  13.884  0.9051  0.3054 -0.0151
 4383TIP3   OH234563   1.190   2.610  13.900 -0.1255 -0.4485 -0.2242
 4383TIP3    H134564   1.146   2.581  13.819 -1.8429 -0.0823  0.5483
 4383TIP3    H234565   1.283   2.602  13.881 -0.4978  0.3322 -2.4965
 4384TIP3   OH234566   0.809   4.134  11.805  0.0008  0.0991 -0.7484
 4384TIP3    H134567   0.889   4.120  11.856 -0.3716 -0.2631 -0.2611
 4384TIP3    H234568   0.781   4.045  11.782  0.5379  0.2822 -2.1547
 4385TIP3   OH234569   4.676   3.992  14.580  0.2668 -0.3007 -0.3543
 4385TIP3    H134570   4.620   3.919  14.555 -1.1871  0.4870  0.4951
 4385TIP3    H234571   4.646   4.016  14.668  0.0887  1.8980 -0.9807
 4386TIP3   OH234572   4.629   3.483  13.454 -0.4801  0.1430  0.4336
 4386TIP3    H134573   4.708   3.535  13.442 -0.1989  0.0620  1.7745
 4386TIP3    H234574   4.613   3.442  13.369  1.7279 -0.9648  0.5066
 4387TIP3   OH234575   2.857   3.064  13.497 -0.1678  0.1958  0.0351
 4387TIP3    H134576   2.809   3.112  13.430  2.0433 -0.7717 -2.3129
 4387TIP3    H234577   2.813   2.979  13.502  0.2435 -0.0792 -0.9078
 4388TIP3   OH234578   1.639   3.138  12.253  0.1413  0.2748 -0.3528
 4388TIP3    H134579   1.688   3.140  12.335  0.1712 -2.0673 -0.2602
 4388TIP3    H234580   1.570   3.074  12.268  0.0745 -0.0981 -2.0935
 4389TIP3   OH234581   0.938   3.703  13.122 -0.9637  0.5063  0.1689
 4389TIP3    H134582   1.017   3.752  13.142 -1.6673  0.6112  2.8382
 4389TIP3    H234583   0.898   3.751  13.050  1.5616  0.2357 -1.4694
 4390TIP3   OH234584   2.306   1.501  11.788 -0.0320 -0.1485  0.0058
 4390TIP3    H134585   2.401   1.501  11.782 -0.0794 -0.2601 -0.7674
 4390TIP3    H234586   2.279   1.583  11.745 -0.2405  0.3414  1.0370
 4391TIP3   OH234587   5.376   2.758  10.833  0.0883 -0.3710 -0.4984
 4391TIP3    H134588   5.446   2.770  10.768 -1.9385  2.3588 -2.2937
 4391TIP3    H234589   5.307   2.713  10.785 -0.8553  0.3570  0.1482
 4392TIP3   OH234590   3.383   0.507  13.575  0.4783  0.2990 -0.1370
 4392TIP3    H134591   3.310   0.482  13.520  0.0185 -1.1330  1.1013
 4392TIP3    H234592   3.429   0.425  13.593  2.9480  1.2881 -1.6672
 4393TIP3   OH234593   1.257   3.553  12.533 -0.2633  0.5046 -0.4227
 4393TIP3    H134594   1.244   3.591  12.446  1.1554  0.9665 -0.4431
 4393TIP3    H234595   1.320   3.482  12.519 -0.8980 -0.1575  0.0492
 4394TIP3   OH234596   0.482   7.260  13.633  0.1424  0.6477  0.3601
 4394TIP3    H134597   0.407   7.213  13.597 -1.1747  2.4976  0.6123
 4394TIP3    H234598   0.520   7.307  13.559 -2.3923  4.2181  1.1986
 4395TIP3   OH234599   3.004   0.554  11.292 -0.1408 -0.3480  0.1352
 4395TIP3    H134600   2.999   0.640  11.333 -0.4179  0.5782 -1.7864
 4395TIP3    H234601   2.962   0.565  11.207  1.1517 -1.9905 -0.7576
 4396TIP3   OH234602   3.527   6.619  13.775 -0.6040  0.5652  0.4439
 4396TIP3    H134603   3.572   6.536  13.790 -1.8214 -0.8371 -2.9799
 4396TIP3    H234604   3.594   6.685  13.788  0.9939 -1.1141  0.9915
 4397TIP3   OH234605   4.508   1.061  11.700 -0.0685 -0.1614 -0.6456
 4397TIP3    H134606   4.556   1.125  11.752 -1.6664  0.2295  0.3729
 4397TIP3    H234607   4.536   0.976  11.734  0.9226  0.0200 -0.9909
 4398TIP3   OH234608   1.351   4.841  11.371 -0.2311 -0.2897  0.0764
 4398TIP3    H134609   1.312   4.849  11.458 -1.3647 -5.2317  0.1318
 4398TIP3    H234610   1.276   4.839  11.311  0.4320  0.2833 -0.7945
 4399TIP3   OH234611   1.019   7.236  11.716 -0.6672 -0.6799  0.0645
 4399TIP3    H134612   0.945   7.296  11.721  2.3990  3.2455  0.5495
 4399TIP3    H234613   1.040   7.216  11.807  0.4227  0.2887  0.0415
 4400TIP3   OH234614   3.246   1.815  13.656 -0.0210 -0.0765 -0.1070
 4400TIP3    H134615   3.269   1.739  13.709 -0.9544 -0.0814  0.3078
 4400TIP3    H234616   3.249   1.783  13.565  1.4669 -0.0978 -0.0555
 4401TIP3   OH234617   3.661   2.539  11.936  0.1864  0.2080 -0.1642
 4401TIP3    H134618   3.753   2.545  11.911  0.1098 -0.5540 -0.6503
 4401TIP3    H234619   3.630   2.458  11.894 -0.7172  0.4908 -0.0538
 4402TIP3   OH234620   1.964   5.043  11.775 -0.2609  0.0776 -0.1900
 4402TIP3    H134621   1.961   5.028  11.869  0.0778  0.7562 -0.0735
 4402TIP3    H234622   1.996   4.960  11.739 -1.7504 -0.6696  0.1608
 4403TIP3   OH234623   2.439   1.855  12.690  0.0960 -0.0221 -0.4022
 4403TIP3    H134624   2.367   1.917  12.678 -1.2266 -1.2618  0.8926
 4403TIP3    H234625   2.405   1.772  12.657  1.6529 -0.2212 -1.5954
 4404TIP3   OH234626   2.816   4.375  14.593 -0.3950  0.5008  0.0596
 4404TIP3    H134627   2.812   4.334  14.679  0.4562  0.4172  0.0574
 4404TIP3    H234628   2.841   4.304  14.534 -0.1868  0.7382 -0.1393
 4405TIP3   OH234629   6.601   4.353  13.774 -0.7006  0.1922  0.7347
 4405TIP3    H134630   6.600   4.313  13.861  1.6531 -0.7885  0.3614
 4405TIP3    H234631   6.594   4.279  13.714  0.0310  0.6478  0.0781
 4406TIP3   OH234632   2.983   2.141  10.579  0.1112 -0.2202  0.6885
 4406TIP3    H134633   2.962   2.052  10.553  1.7449 -0.3519 -0.2439
 4406TIP3    H234634   3.065   2.134  10.627  1.5521  1.0356 -1.4960
 4407TIP3   OH234635   4.849   5.204  15.955  0.5999  0.1568  0.0477
 4407TIP3    H134636   4.939   5.179  15.934  0.8655  1.2001 -0.0993
 4407TIP3    H234637   4.855   5.297  15.979 -0.3949  0.1610  0.3038
 4408TIP3   OH234638   4.891   1.273  13.525  0.0405  0.6271 -0.3800
 4408TIP3    H134639   4.942   1.347  13.559 -1.2499  1.2756  0.1705
 4408TIP3    H234640   4.953   1.225  13.470  1.0602  1.7904 -0.2756
 4409TIP3   OH234641   4.621   3.190  12.396  0.5791 -0.4458  0.1744
 4409TIP3    H134642   4.639   3.172  12.488 -1.9706  0.0938  0.8285
 4409TIP3    H234643   4.582   3.109  12.363 -0.7925  0.1526  0.2581
 4410TIP3   OH234644   3.620   1.642  12.910 -0.5815 -0.6659  0.2300
 4410TIP3    H134645   3.576   1.623  12.827  2.8616  2.9058 -2.6263
 4410TIP3    H234646   3.556   1.691  12.961 -1.1878  1.4739 -2.4476
 4411TIP3   OH234647   5.924   3.584  12.722  0.2493 -0.0056  0.0901
 4411TIP3    H134648   5.831   3.601  12.705  0.4201 -0.1519 -0.9922
 4411TIP3    H234649   5.967   3.596  12.637  1.1740 -0.2789  0.5163
 4412TIP3   OH234650   3.953   2.771  13.495 -0.5346  0.5501  0.1797
 4412TIP3    H134651   3.972   2.685  13.457 -1.7830  0.1635  0.4018
 4412TIP3    H234652   4.034   2.820  13.485  1.0186 -1.4831  2.3455
 4413TIP3   OH234653   5.999   3.231  10.667 -0.1553  0.3952 -0.0450
 4413TIP3    H134654   5.945   3.196  10.597 -1.3146  2.7553 -0.3858
 4413TIP3    H234655   5.960   3.196  10.747 -1.0307  0.5350 -0.4022
 4414TIP3   OH234656   3.243   1.751  11.580  0.1359 -0.4611  0.0955
 4414TIP3    H134657   3.213   1.668  11.616 -0.9860 -0.1247 -0.0421
 4414TIP3    H234658   3.217   1.748  11.488  0.0892  0.0500  0.0898
 4415TIP3   OH234659   3.582   4.835  13.644 -0.2552 -0.2476 -0.2018
 4415TIP3    H134660   3.648   4.874  13.587 -0.5622 -0.3291 -0.6141
 4415TIP3    H234661   3.594   4.878  13.729  0.4703 -0.4173 -0.2142
 4416TIP3   OH234662   3.396   3.151  11.664 -0.8636 -0.6123 -0.0255
 4416TIP3    H134663   3.456   3.198  11.723  0.3762  1.2503 -2.6806
 4416TIP3    H234664   3.312   3.195  11.675 -0.5550 -0.0546  0.1171
 4417TIP3   OH234665   3.050   1.108  13.127  0.0895 -0.4789 -0.6585
 4417TIP3    H134666   3.014   1.196  13.112  2.9196  0.8597  0.0898
 4417TIP3    H234667   3.060   1.072  13.039  0.2698  0.5319 -1.0642
 4418TIP3   OH234668   7.022   3.114  13.960 -0.2578 -0.1634 -0.1438
 4418TIP3    H134669   7.046   3.052  14.029 -1.1677  0.5596  0.8555
 4418TIP3    H234670   7.049   3.200  13.994 -1.5842  0.3142 -0.2434
 4419TIP3   OH234671   7.197   3.323  11.426  0.1654 -0.0497 -0.2010
 4419TIP3    H134672   7.144   3.372  11.489  0.3692 -0.8769  0.6170
 4419TIP3    H234673   7.146   3.244  11.407  0.3916 -0.1036 -0.6060
 4420TIP3   OH234674   0.247   2.125  11.691  0.7645  0.3558  0.5764
 4420TIP3    H134675   0.218   2.145  11.780 -0.1345 -0.0166  0.3822
 4420TIP3    H234676   0.229   2.204  11.641 -1.3913 -0.3734  0.1306
 4421TIP3   OH234677   4.692   1.545  10.691 -0.0399  0.1593  0.3866
 4421TIP3    H134678   4.687   1.458  10.730 -2.4709  0.3650  0.5816
 4421TIP3    H234679   4.737   1.598  10.756  0.4625 -0.6831  0.7339
 4422TIP3   OH234680   5.963   3.530  11.138 -0.5024 -0.8964 -0.6795
 4422TIP3    H134681   6.059   3.534  11.145 -0.5218 -0.5764 -0.5853
 4422TIP3    H234682   5.932   3.533  11.229 -0.7025  1.8792 -0.7942
 4423TIP3   OH234683   6.757   2.342  14.275  0.2422  1.0077  0.0634
 4423TIP3    H134684   6.669   2.379  14.268  0.0260  0.2914 -1.1027
 4423TIP3    H234685   6.793   2.349  14.186  0.2995 -1.3125 -0.1181
 4424TIP3   OH234686   4.873   2.690  13.127  0.3464 -0.3323 -0.5814
 4424TIP3    H134687   4.931   2.749  13.175 -0.1522  0.7754 -1.3286
 4424TIP3    H234688   4.930   2.647  13.063  0.8961 -1.3823  0.5848
 4425TIP3   OH234689   4.221   3.485  10.161 -0.0400  0.5240  0.7347
 4425TIP3    H134690   4.139   3.457  10.201 -0.1657  0.8802  0.7214
 4425TIP3    H234691   4.198   3.509  10.071 -0.0446  1.3113  0.9450
 4426TIP3   OH234692   1.768   1.541  13.102  0.3255  0.8927  0.1290
 4426TIP3    H134693   1.818   1.527  13.022  0.6604 -2.6254  0.8354
 4426TIP3    H234694   1.832   1.527  13.172 -0.5061  1.4409  0.9992
 4427TIP3   OH234695   6.386   1.757  12.948  0.2553  0.2988  0.3206
 4427TIP3    H134696   6.480   1.740  12.940  0.1141  0.6900 -2.5884
 4427TIP3    H234697   6.381   1.848  12.976  0.7290  0.3238  0.3333
 4428TIP3   OH234698   4.266   1.919  12.136  0.3903 -0.5499  0.4829
 4428TIP3    H134699   4.178   1.894  12.108 -0.1146 -0.2106  1.7313
 4428TIP3    H234700   4.256   2.008  12.168  1.3576 -0.2220 -0.1105
 4429TIP3   OH234701   5.050   5.461  12.075  0.0583  0.3415  0.1023
 4429TIP3    H134702   5.127   5.497  12.031 -1.4320  2.2078 -1.0642
 4429TIP3    H234703   5.027   5.384  12.024  1.2956 -0.3872  0.6188
 4430TIP3   OH234704   3.142   4.207  12.051 -0.0368  0.1215 -0.3350
 4430TIP3    H134705   3.219   4.151  12.063  0.5863  1.0011 -0.2130
 4430TIP3    H234706   3.178   4.291  12.023 -1.1024 -0.1709 -2.6604
 4431TIP3   OH234707   5.470   2.725  11.722 -0.2447  0.0881  0.2926
 4431TIP3    H134708   5.474   2.765  11.635 -1.2083  1.2250  0.7510
 4431TIP3    H234709   5.553   2.749  11.763  0.5446 -1.1046 -0.5763
 4432TIP3   OH234710   4.162   3.666  14.381  0.3441  0.5722  0.5641
 4432TIP3    H134711   4.183   3.582  14.422 -0.0139  0.3700  0.3402
 4432TIP3    H234712   4.132   3.643  14.292 -0.7950  0.8443  0.8610
 4433TIP3   OH234713   4.461   0.737  11.665  0.1193  0.2022 -0.2034
 4433TIP3    H134714   4.476   0.655  11.713  2.0149  1.3749  1.2634
 4433TIP3    H234715   4.375   0.766  11.695 -1.0311 -1.7213 -1.4864
 4434TIP3   OH234716   4.841   2.874  14.693 -0.3617  0.1256  0.4488
 4434TIP3    H134717   4.880   2.813  14.756  1.2145  1.7432  1.1050
 4434TIP3    H234718   4.897   2.869  14.616 -0.2297  0.7198  0.5016
 4435TIP3   OH234719   4.692   3.246  10.256  0.0859 -0.2006  0.0745
 4435TIP3    H134720   4.617   3.294  10.289 -1.2487 -1.5134 -0.9434
 4435TIP3    H234721   4.659   3.201  10.177  2.0604 -0.3951 -0.6781
 4436TIP3   OH234722   5.904   3.467  13.477 -0.0589  0.0990 -0.5086
 4436TIP3    H134723   5.863   3.539  13.525 -1.1168 -0.3316 -0.7485
 4436TIP3    H234724   5.920   3.502  13.389  0.7208  0.4825 -0.2197
 4437TIP3   OH234725   6.208   2.230  11.795 -0.3027  0.4940 -0.2030
 4437TIP3    H134726   6.266   2.242  11.871  0.9323 -0.4972 -0.9561
 4437TIP3    H234727   6.120   2.239  11.830  0.2511 -0.0121  1.3784
 4438TIP3   OH234728   4.927   3.907  12.155 -0.8721 -0.1914 -0.0426
 4438TIP3    H134729   4.947   3.860  12.235  0.7095  0.4022 -0.0869
 4438TIP3    H234730   4.857   3.968  12.179  0.4436  0.8631  1.2037
 4439TIP3   OH234731   5.858   3.149  12.165  0.2552  0.5740 -0.6252
 4439TIP3    H134732   5.930   3.088  12.182 -0.2285  0.8793  2.6877
 4439TIP3    H234733   5.789   3.124  12.226 -0.9574  2.8101 -1.0251
 4440TIP3   OH234734   4.057   2.318  13.858  0.0316 -0.6123 -0.0762
 4440TIP3    H134735   3.999   2.384  13.896  2.4832  1.1824  0.6320
 4440TIP3    H234736   3.998   2.263  13.804 -2.0876  1.9757 -0.5118
 4441TIP3   OH234737   3.803   2.157  11.620  0.2001 -0.3641 -0.2004
 4441TIP3    H134738   3.890   2.156  11.580 -0.1992 -0.3260 -1.0899
 4441TIP3    H234739   3.773   2.066  11.615  0.1005 -0.3363 -0.1094
 4442TIP3   OH234740   3.133   3.263  11.669  0.6458 -0.8290 -0.0225
 4442TIP3    H134741   3.118   3.285  11.577  1.2839 -0.8847 -0.1413
 4442TIP3    H234742   3.066   3.197  11.689 -0.4791  0.3071 -0.0101
 4443TIP3   OH234743   3.758   5.492  13.018 -0.1824 -0.2651  0.8901
 4443TIP3    H134744   3.794   5.481  13.106  0.9027 -0.9887  0.3528
 4443TIP3    H234745   3.668   5.521  13.033 -0.2520 -1.1643  2.2407
 4444TIP3   OH234746   1.747   1.424  12.101 -0.6010 -0.1236  0.1423
 4444TIP3    H134747   1.740   1.334  12.132  0.0836 -0.0315  0.5692
 4444TIP3    H234748   1.713   1.477  12.173 -2.8869 -0.1314 -0.8638
 4445TIP3   OH234749   4.655   2.722  12.429  0.9188 -0.0296  0.3396
 4445TIP3    H134750   4.653   2.699  12.521  1.0790  0.4831  0.4765
 4445TIP3    H234751   4.742   2.694  12.399  0.6758 -0.6528  0.2228
 4446TIP3   OH234752   3.788   3.747  13.878  0.2981  0.2282  0.5550
 4446TIP3    H134753   3.880   3.721  13.881  0.7490  1.7515  0.5695
 4446TIP3    H234754   3.757   3.738  13.968  0.8229  0.9924  0.8233
 4447TIP3   OH234755   1.415   7.059  11.789  0.4584  0.1881  0.2342
 4447TIP3    H134756   1.350   7.080  11.722  1.3874  0.4859 -0.5840
 4447TIP3    H234757   1.486   7.016  11.742  1.9820  2.0981  0.6970
 4448TIP3   OH234758   5.721   3.375  13.125 -0.0744 -0.3411 -0.2068
 4448TIP3    H134759   5.671   3.294  13.133  2.0035 -1.4163  2.7139
 4448TIP3    H234760   5.810   3.347  13.105  0.4555  1.2638 -0.1969
 4449TIP3   OH234761   3.518   1.972  11.566  0.1869 -0.2073 -0.0178
 4449TIP3    H134762   3.522   1.877  11.582 -0.9523 -0.5322 -1.5672
 4449TIP3    H234763   3.609   1.997  11.549  0.5583 -0.9363  0.8419
 4450TIP3   OH234764   7.007   2.938  12.508 -0.5063  0.1397  0.1179
 4450TIP3    H134765   6.996   2.885  12.430 -2.4772  0.6270  0.0352
 4450TIP3    H234766   7.057   2.882  12.568 -1.4612 -1.3354 -0.4307
 4451TIP3   OH234767   6.220   0.938  11.399 -0.0542  0.2346 -0.0264
 4451TIP3    H134768   6.261   0.884  11.332 -1.6695 -0.2373 -0.6577
 4451TIP3    H234769   6.204   0.878  11.472 -2.7202 -0.4168 -1.0904
 4452TIP3   OH234770   5.547   3.142  10.823  0.2350  0.4646  0.0441
 4452TIP3    H134771   5.545   3.236  10.806  1.0063  0.4937  0.0774
 4452TIP3    H234772   5.614   3.108  10.763  1.8014  0.3302  1.8331
 4453TIP3   OH234773   3.860   5.033  11.889 -0.1219 -0.3966  0.3542
 4453TIP3    H134774   3.852   4.999  11.800 -0.9095 -1.4807  0.8412
 4453TIP3    H234775   3.913   5.113  11.879  1.1856 -1.3826 -0.8691
 4454TIP3   OH234776   4.249   3.745  12.738 -0.4733 -0.0701 -0.0129
 4454TIP3    H134777   4.285   3.799  12.809  0.9424 -0.4999 -0.3906
 4454TIP3    H234778   4.245   3.657  12.775 -0.7731 -0.1015 -0.1177
 4455TIP3   OH234779   1.505   1.926  14.491 -0.2947  0.1550  0.5635
 4455TIP3    H134780   1.567   1.996  14.508  0.5533 -0.5760  0.4750
 4455TIP3    H234781   1.494   1.926  14.396  1.8423 -1.6392  0.2802
 4456TIP3   OH234782   6.218   4.919  10.407  0.3120  0.3779  0.3916
 4456TIP3    H134783   6.191   4.828  10.396  0.9137  0.0592  1.4474
 4456TIP3    H234784   6.204   4.959  10.321  1.7351 -1.1526 -0.5761
 4457TIP3   OH234785   3.390   1.961   0.148  0.0147 -0.3367 -0.1528
 4457TIP3    H134786   3.322   1.950   0.082  0.0300  1.0364 -0.4073
 4457TIP3    H234787   3.346   1.941   0.231 -0.3039 -0.9376 -0.4706
 4458TIP3   OH234788   4.756   4.582  11.191  0.3344  0.1171 -0.1354
 4458TIP3    H134789   4.708   4.500  11.200 -0.8726  0.9045  0.8308
 4458TIP3    H234790   4.827   4.576  11.255  0.8267 -0.5614 -0.7391
 4459TIP3   OH234791   1.987   2.928  13.015  0.4371 -0.1588  0.0547
 4459TIP3    H134792   1.906   2.974  13.032  1.8827  2.2166  0.6998
 4459TIP3    H234793   1.963   2.835  13.016 -2.0817  0.4804  1.0588
 4460TIP3   OH234794   4.604   3.953  10.717 -0.2260  0.0083  0.2824
 4460TIP3    H134795   4.515   3.925  10.736  0.3639 -1.3294  1.0982
 4460TIP3    H234796   4.658   3.910  10.783  0.8587  2.0281  0.7552
 4461TIP3   OH234797   4.970   3.800  11.717  0.0799 -0.1527 -0.4148
 4461TIP3    H134798   5.002   3.884  11.685 -1.4427 -0.0181 -1.6543
 4461TIP3    H234799   5.048   3.755  11.749  1.4980  0.1830 -3.2678
 4462TIP3   OH234800   6.624   2.833  12.645  0.3136  0.6045 -0.5105
 4462TIP3    H134801   6.673   2.910  12.617 -0.0287 -0.0279 -2.9727
 4462TIP3    H234802   6.677   2.759  12.614 -0.3740 -0.1242  0.0415
 4463TIP3   OH234803   5.340   4.815  12.554  0.0833  0.5187 -0.5671
 4463TIP3    H134804   5.366   4.907  12.548 -0.5528  0.8571  1.5808
 4463TIP3    H234805   5.251   4.817  12.588 -0.7893 -0.8414 -2.6394
 4464TIP3   OH234806   3.255   0.055  13.858 -0.1422  0.2285 -0.5060
 4464TIP3    H134807   3.167   0.029  13.885  0.1955 -0.9944 -0.5608
 4464TIP3    H234808   3.247   0.073  13.764 -0.4767  0.7823 -0.3748
 4465TIP3   OH234809   3.471   1.532  12.470  0.6173 -0.0417 -0.1270
 4465TIP3    H134810   3.420   1.473  12.526  0.1194  0.2037 -0.3193
 4465TIP3    H234811   3.474   1.615  12.518 -0.9089  0.5619 -1.0304
 4466TIP3   OH234812   5.968   0.570  11.979  0.2231  0.2792 -0.2736
 4466TIP3    H134813   6.016   0.501  11.935 -1.9812 -2.0299  0.7996
 4466TIP3    H234814   6.030   0.607  12.042  1.9164  0.4045 -2.0017
 4467TIP3   OH234815   0.286   3.426  11.345  0.2652 -0.5145 -0.6915
 4467TIP3    H134816   0.248   3.513  11.328  0.3524 -0.4494 -0.5577
 4467TIP3    H234817   0.232   3.390  11.415 -0.0212 -0.7340 -1.0270
 4468TIP3   OH234818   4.643   1.254  13.061 -0.2325  0.6044  0.5771
 4468TIP3    H134819   4.553   1.285  13.055 -0.4140  0.0013  0.0578
 4468TIP3    H234820   4.654   1.200  12.983  1.0402  1.8608 -0.1352
 4469TIP3   OH234821   4.559   1.485  15.893 -0.5259 -0.1035 -0.1581
 4469TIP3    H134822   4.623   1.432  15.940  1.3314  0.8981 -1.4855
 4469TIP3    H234823   4.611   1.540  15.835 -2.5898  0.8847 -1.1450
 4470TIP3   OH234824   4.206   0.332  14.614  0.0573  0.0988 -0.2373
 4470TIP3    H134825   4.200   0.321  14.519 -0.3574 -2.6936  0.0492
 4470TIP3    H234826   4.293   0.298  14.635 -0.3814 -0.5699  0.5137
 4471TIP3   OH234827   5.684   3.028  12.307 -0.5881  0.5742 -0.1379
 4471TIP3    H134828   5.673   2.986  12.393 -1.1354 -0.2846 -0.6230
 4471TIP3    H234829   5.723   2.961  12.252 -1.0754  0.8296 -0.8054
 4472TIP3   OH234830   6.057   4.860  12.919 -0.1348  0.5071 -0.6914
 4472TIP3    H134831   6.150   4.845  12.932 -0.3286  0.7713  1.1389
 4472TIP3    H234832   6.043   4.950  12.949 -0.9645  0.4695 -0.9565
 4473TIP3   OH234833   5.281   3.765  10.756 -0.0280 -0.7748  0.3321
 4473TIP3    H134834   5.335   3.771  10.677 -2.8078 -1.5548 -1.7243
 4473TIP3    H234835   5.275   3.856  10.787  0.2147 -0.2851 -1.0005
 4474TIP3   OH234836   2.719   2.821  13.504 -0.1957 -0.1444 -0.3155
 4474TIP3    H134837   2.643   2.781  13.462  0.6209 -0.2569 -1.7167
 4474TIP3    H234838   2.786   2.752  13.505  0.2909  0.3215 -0.2011
 4475TIP3   OH234839   4.031   1.941  11.780  0.2882 -0.1342 -0.7817
 4475TIP3    H134840   4.024   2.033  11.805  1.0575  0.0809 -1.3054
 4475TIP3    H234841   3.958   1.898  11.823 -1.1339  1.0417 -1.9830
 4476TIP3   OH234842   4.354   2.826  10.879  0.3282  0.7187  0.1787
 4476TIP3    H134843   4.441   2.809  10.915 -0.1440 -1.5369  0.3202
 4476TIP3    H234844   4.370   2.884  10.804  1.6032  2.8968  2.0972
 4477TIP3   OH234845   3.513   1.732  11.687  0.7961 -0.0401  0.0849
 4477TIP3    H134846   3.522   1.649  11.733 -1.1475 -1.0193 -1.2186
 4477TIP3    H234847   3.419   1.739  11.669  1.0360  2.1010 -0.4356
 4478TIP3   OH234848   4.940   4.752  12.178 -1.0009 -0.2100  0.2301
 4478TIP3    H134849   4.967   4.663  12.197 -0.0155  0.2564  1.0459
 4478TIP3    H234850   5.019   4.805  12.192 -1.5441  0.7741 -0.3520
 4479TIP3   OH234851   6.130   2.734  12.864  0.1525  0.2819  0.0808
 4479TIP3    H134852   6.103   2.821  12.835  0.0950 -0.2221 -1.3889
 4479TIP3    H234853   6.110   2.733  12.958  2.0379  2.5712  0.5613
 4480TIP3   OH234854   3.951   3.550  10.793 -0.0237 -0.1688  0.0077
 4480TIP3    H134855   3.912   3.560  10.706  0.7474 -1.4602 -0.5008
 4480TIP3    H234856   3.921   3.464  10.823 -0.1475  0.2023  0.9528
 4481TIP3   OH234857   0.305   3.634  13.802  0.5032 -0.0024  0.3793
 4481TIP3    H134858   0.254   3.679  13.735  1.2915 -1.2996 -1.1360
 4481TIP3    H234859   0.245   3.570  13.839  1.0466 -1.7104 -1.5867
 4482TIP3   OH234860   4.383   1.346  13.473  0.0543 -0.4417  0.5023
 4482TIP3    H134861   4.462   1.299  13.446 -0.5760 -1.4170  0.3326
 4482TIP3    H234862   4.405   1.384  13.557 -0.0458 -2.6651  1.5631
 4483TIP3   OH234863   3.478   1.728  12.253 -0.6787 -0.4589  0.4605
 4483TIP3    H134864   3.383   1.731  12.240 -0.5162  0.3926 -0.5303
 4483TIP3    H234865   3.489   1.735  12.348 -1.5780  0.3525  0.5167
 4484TIP3   OH234866   2.749   1.810  11.701  0.3271 -0.6253 -0.0926
 4484TIP3    H134867   2.791   1.892  11.676 -0.9379 -0.1091 -0.5666
 4484TIP3    H234868   2.661   1.836  11.729  0.4073 -1.6527  1.1500
 4485TIP3   OH234869   5.935   4.846  12.290 -0.0915  0.4594 -0.2566
 4485TIP3    H134870   5.919   4.833  12.384  0.9740  1.8891  0.1536
 4485TIP3    H234871   5.902   4.767  12.249 -1.9060  0.4245  1.1849
 4486TIP3   OH234872   4.783   2.909  12.828  0.3174  0.9006  0.4247
 4486TIP3    H134873   4.766   2.956  12.910 -0.0719  0.7874  0.4107
 4486TIP3    H234874   4.879   2.910  12.819  0.5648 -1.2608  2.1846
 4487TIP3   OH234875   6.020   2.003  11.488 -0.0325  0.2439  0.1397
 4487TIP3    H134876   6.015   2.098  11.481 -2.4975  0.1361  0.0562
 4487TIP3    H234877   5.929   1.975  11.496  0.7404 -2.0066  1.5206
 4488TIP3   OH234878   5.581   3.495  13.520  0.3182  0.0363 -0.6817
 4488TIP3    H134879   5.674   3.517  13.515  0.2196  0.2110 -1.8674
 4488TIP3    H234880   5.536   3.579  13.510  0.0060 -0.2610 -1.8418
 4489TIP3   OH234881   5.041   4.386  13.127  0.2532 -0.3822 -0.6380
 4489TIP3    H134882   5.070   4.369  13.217  1.3234 -0.7557 -1.0364
 4489TIP3    H234883   4.979   4.458  13.134 -0.6774 -1.3050  0.5502
 4490TIP3   OH234884   7.274   2.478  11.801  0.0432  0.2233 -0.4032
 4490TIP3    H134885   7.240   2.490  11.712  1.5078  0.3582 -0.9584
 4490TIP3    H234886   7.237   2.551  11.851 -0.3617  0.4495 -1.0331
 4491TIP3   OH234887   2.833   3.364  11.044 -0.2367 -0.1080 -0.0254
 4491TIP3    H134888   2.890   3.431  11.080 -0.0405  0.2002 -0.8831
 4491TIP3    H234889   2.876   3.337  10.962 -0.7273 -0.6935 -0.1012
 4492TIP3   OH234890   5.666   2.895  13.616 -0.6392 -0.0475 -0.9028
 4492TIP3    H134891   5.655   2.976  13.665 -0.7802 -0.1925 -0.6960
 4492TIP3    H234892   5.686   2.829  13.682 -0.6053 -0.1967 -1.0635
 4493TIP3   OH234893   5.716   1.283  10.972  0.4144  0.5584  0.4232
 4493TIP3    H134894   5.752   1.285  11.061  1.9056 -3.1071 -0.0378
 4493TIP3    H234895   5.759   1.356  10.927  1.0990  1.2600  2.1777
 4494TIP3   OH234896   3.052   3.175   0.201 -0.9296  0.4381  0.0524
 4494TIP3    H134897   3.110   3.176   0.125 -0.9661  0.6431  0.0261
 4494TIP3    H234898   3.019   3.086   0.205  2.3820 -0.7499  2.3599
 4495TIP3   OH234899   6.136   1.203  12.628 -0.3168 -0.5808 -0.0221
 4495TIP3    H134900   6.128   1.139  12.557 -0.1828 -0.9164  0.2628
 4495TIP3    H234901   6.056   1.193  12.679 -1.3553  1.0741 -1.2755
 4496TIP3   OH234902   3.131   3.057  15.058 -0.4707  0.0760  0.1234
 4496TIP3    H134903   3.216   3.092  15.032  0.4870 -0.4436  2.4762
 4496TIP3    H234904   3.067   3.110  15.010  1.1582  0.6650 -1.4217
 4497TIP3   OH234905   4.139   1.873  14.670 -0.0218  0.7482  0.5235
 4497TIP3    H134906   4.081   1.942  14.639 -0.8936 -0.3250 -0.2867
 4497TIP3    H234907   4.221   1.886  14.621 -0.4963  0.6474 -0.3021
 4498TIP3   OH234908   6.995   4.084  11.259 -0.0799 -0.1277  0.0584
 4498TIP3    H134909   7.008   4.133  11.177 -0.1850  1.7292  1.1335
 4498TIP3    H234910   7.048   4.005  11.248 -1.0203 -0.4769 -2.2970
 4499TIP3   OH234911   4.321   2.480  12.653 -0.0400 -0.1853  0.5487
 4499TIP3    H134912   4.326   2.509  12.745  0.2641  1.9763 -0.1223
 4499TIP3    H234913   4.253   2.534  12.614  1.6218  0.7375 -1.1370
 4500TIP3   OH234914   5.256   5.261  12.883  0.4188  0.2430  0.2186
 4500TIP3    H134915   5.228   5.174  12.912  3.7102 -0.3971  1.7792
 4500TIP3    H234916   5.182   5.295  12.833 -1.9862 -2.3480  1.8463
 4501TIP3   OH234917   5.563   3.439  11.551  0.1433  0.0773  0.5049
 4501TIP3    H134918   5.499   3.399  11.491  1.6045  0.4647 -1.3407
 4501TIP3    H234919   5.578   3.371  11.617 -1.1393 -0.5318  0.2064
 4502TIP3   OH234920   5.255   3.880  13.015 -0.7627  0.2289  0.2484
 4502TIP3    H134921   5.219   3.901  13.101 -0.6860  0.6530  0.1794
 4502TIP3    H234922   5.280   3.965  12.978  0.6294 -0.0858  0.4387
 4503TIP3   OH234923   4.318   3.222  13.398 -0.1760  0.0483 -0.4717
 4503TIP3    H134924   4.246   3.281  13.420  0.1668 -0.5534  2.4706
 4503TIP3    H234925   4.275   3.144  13.361 -1.1495 -0.7108  2.1657
 4504TIP3   OH234926   4.036   2.288  10.683  0.4211 -0.1097 -0.0643
 4504TIP3    H134927   4.083   2.306  10.765  1.2470  2.1524 -0.9806
 4504TIP3    H234928   3.955   2.338  10.690  1.2107  1.4020 -1.2454
 4505TIP3   OH234929   6.814   1.858  10.836  0.6927 -0.3327 -0.0100
 4505TIP3    H134930   6.728   1.856  10.877 -0.3117 -1.4662 -2.0569
 4505TIP3    H234931   6.870   1.805  10.894 -0.6310 -1.7387  0.0160
 4506TIP3   OH234932   4.443   3.056  15.880  0.3555  0.6308  0.2234
 4506TIP3    H134933   4.395   3.042  15.798 -0.5010  1.3318  0.5951
 4506TIP3    H234934   4.490   2.974  15.895 -1.8609 -0.6189  0.5920
 4507TIP3   OH234935   0.890   4.171  13.200  0.1876  0.1055  0.0517
 4507TIP3    H134936   0.816   4.216  13.241  0.9449  0.1352  1.4061
 4507TIP3    H234937   0.851   4.098  13.152 -0.6789 -0.0652  1.0204
 4508TIP3   OH234938   4.858   1.121  12.170  0.0302  0.3563  1.2800
 4508TIP3    H134939   4.879   1.125  12.263 -1.2635 -0.4799  1.6168
 4508TIP3    H234940   4.782   1.179  12.160 -0.8907 -0.8754  1.0619
 4509TIP3   OH234941   5.602   0.971  11.496  0.0412  0.6930  0.5174
 4509TIP3    H134942   5.590   1.046  11.438 -1.1190 -0.0286 -0.1780
 4509TIP3    H234943   5.634   0.901  11.439 -1.3812 -0.1084  0.6844
 4510TIP3   OH234944   4.031   3.437  13.388  0.0880  0.1297 -0.4255
 4510TIP3    H134945   4.060   3.395  13.468 -0.1433 -0.9242 -0.8801
 4510TIP3    H234946   3.943   3.401  13.372  0.4076 -0.1959 -1.5121
 4511TIP3   OH234947   3.865   4.672  13.266 -0.4442 -0.4797  0.0269
 4511TIP3    H134948   3.825   4.590  13.295  0.3116 -0.3871  1.3592
 4511TIP3    H234949   3.949   4.676  13.313  0.4881  0.0141 -1.6530
 4512TIP3   OH234950   3.166   1.495  13.393  0.1880 -0.3587 -0.4959
 4512TIP3    H134951   3.090   1.491  13.335 -1.1692  0.6074  1.1589
 4512TIP3    H234952   3.197   1.585  13.387  0.3983 -0.4062 -0.1583
 4513TIP3   OH234953   6.459   2.867  11.578 -0.1359  0.1090 -0.6896
 4513TIP3    H134954   6.472   2.911  11.662 -3.0093  0.2444 -0.2701
 4513TIP3    H234955   6.518   2.791  11.581  1.7258  1.5642  0.3223
 4514TIP3   OH234956   4.881   4.304  15.670  0.1382 -0.3383 -0.2911
 4514TIP3    H134957   4.908   4.316  15.579  0.6453  1.5307  0.0829
 4514TIP3    H234958   4.897   4.389  15.712 -1.1420 -0.8312  1.2799
 4515TIP3   OH234959   3.133   4.487  10.195  0.3488  0.3222 -0.5508
 4515TIP3    H134960   3.054   4.432  10.192  1.3529 -1.1425 -0.7410
 4515TIP3    H234961   3.201   4.432  10.155  1.7869  1.0201  0.9237
 4516TIP3   OH234962   5.302   1.909  10.802 -0.5913 -0.0964 -0.4953
 4516TIP3    H134963   5.287   1.920  10.708 -0.2147  0.0630 -0.5374
 4516TIP3    H234964   5.371   1.972  10.823  1.1827 -1.9341 -0.6298
 4517TIP3   OH234965   4.719   4.245  10.948 -0.0962 -0.0264  0.2288
 4517TIP3    H134966   4.671   4.300  10.885 -0.9491 -0.8341  0.1547
 4517TIP3    H234967   4.791   4.208  10.898  1.4187  2.2480  0.6683
 4518TIP3   OH234968   2.240   5.256  11.117  0.0355 -0.5868 -0.5000
 4518TIP3    H134969   2.259   5.276  11.208  1.8924 -1.6430 -0.6219
 4518TIP3    H234970   2.189   5.331  11.085  0.9054  0.6171  0.9125
 4519TIP3   OH234971   0.876   1.088  10.675 -0.3512  0.7041 -0.3843
 4519TIP3    H134972   0.785   1.061  10.663  0.2828 -1.2895 -0.7964
 4519TIP3    H234973   0.915   1.082  10.588  0.2842  1.1727 -0.1380
 4520TIP3   OH234974   5.515   4.020  12.415 -0.2803 -0.1381 -0.0771
 4520TIP3    H134975   5.426   4.019  12.451 -0.3876 -0.2948 -0.3464
 4520TIP3    H234976   5.507   4.069  12.333 -0.1980 -0.5106 -0.3071
 4521TIP3   OH234977   4.259   2.155  15.242  0.0025 -0.2830  0.9895
 4521TIP3    H134978   4.294   2.086  15.186 -0.1357  0.0295  0.5173
 4521TIP3    H234979   4.245   2.112  15.326  1.5557 -0.4051  1.2089
 4522TIP3   OH234980   0.476   3.268  15.120  0.2708 -0.0058  0.3087
 4522TIP3    H134981   0.540   3.293  15.053  1.2214  0.0861  1.2497
 4522TIP3    H234982   0.525   3.212  15.180 -0.5627 -0.0198  0.9731
 4523TIP3   OH234983   3.364   2.266  13.595  0.0707 -0.4353  0.4123
 4523TIP3    H134984   3.323   2.271  13.681 -0.9669 -0.0848 -0.0869
 4523TIP3    H234985   3.293   2.239  13.536  0.6100 -0.0577 -0.4296
 4524TIP3   OH234986   6.124   3.306  10.374  0.1635 -0.0359 -0.2499
 4524TIP3    H134987   6.065   3.378  10.353 -0.2316 -0.6959 -1.4400
 4524TIP3    H234988   6.068   3.229  10.376  0.6409 -0.3628  0.6911
 4525TIP3   OH234989   5.160   0.866  12.668  0.1796 -0.3399 -0.1837
 4525TIP3    H134990   5.094   0.922  12.709 -0.5457 -1.7523  0.6209
 4525TIP3    H234991   5.243   0.898  12.701 -0.1250  1.2409 -0.9305
 4526TIP3   OH234992   3.765   2.407  13.126 -0.6979  0.2404  0.1725
 4526TIP3    H134993   3.849   2.364  13.140 -1.2590 -0.7859  0.5084
 4526TIP3    H234994   3.777   2.496  13.159 -0.1867 -0.3503  1.6114
 4527TIP3   OH234995   6.171   1.949  11.710 -0.3860  0.2704  0.1842
 4527TIP3    H134996   6.193   2.040  11.731 -1.5236  1.3497 -3.0015
 4527TIP3    H234997   6.143   1.952  11.618 -2.7661 -2.9057  0.7291
 4528TIP3   OH234998   5.585   4.771  11.132 -0.2011 -0.6897  0.2191
 4528TIP3    H134999   5.503   4.814  11.155 -0.1719 -1.2361  1.3773
 4528TIP3    H235000   5.644   4.843  11.108 -0.4066 -0.1428  1.3297
 4529TIP3   OH235001   3.458   0.738  11.059  0.0697 -0.9016  0.1189
 4529TIP3    H135002   3.378   0.776  11.023 -0.0697 -0.8568  0.4712
 4529TIP3    H235003   3.454   0.759  11.152  0.9510 -0.0913 -0.0206
 4530TIP3   OH235004   3.524   5.002  13.187 -0.3256 -0.9273 -1.0777
 4530TIP3    H135005   3.444   5.022  13.236  1.2537 -1.7025  1.9155
 4530TIP3    H235006   3.550   5.085  13.148 -1.7340 -0.3306 -0.7818
 4531TIP3   OH235007   3.326   2.424  12.343 -0.2495  0.0629  0.0023
 4531TIP3    H135008   3.334   2.470  12.427  1.5879 -1.2705  0.6002
 4531TIP3    H235009   3.368   2.482  12.280 -0.3623  0.4164  0.2443
 4532TIP3   OH235010   5.840   3.948  13.181  0.2566  0.0395 -0.6953
 4532TIP3    H135011   5.768   3.948  13.117  0.8561  2.0441 -1.3986
 4532TIP3    H235012   5.845   3.857  13.210 -2.4484 -0.1957 -0.7561
 4533TIP3   OH235013   3.749   4.391  12.970  0.0192  0.2022 -0.1942
 4533TIP3    H135014   3.681   4.458  12.961  0.0679  0.4170  1.0212
 4533TIP3    H235015   3.707   4.311  12.938 -0.3761  0.5995 -0.6793
 4534TIP3   OH235016   4.184   3.420  14.513 -0.3384 -0.4761 -0.2160
 4534TIP3    H135017   4.257   3.359  14.521 -0.8146 -1.2379 -1.4733
 4534TIP3    H235018   4.146   3.425  14.601  2.7383  1.8822  1.0531
 4535TIP3   OH235019   5.187   0.875  11.250  0.0184  0.4119 -0.5930
 4535TIP3    H135020   5.211   0.939  11.317 -1.4721  0.8156 -0.4178
 4535TIP3    H235021   5.093   0.889  11.237  0.0379 -0.5576 -1.8223
 4536TIP3   OH235022   7.168   2.781  12.656 -0.2081 -0.3480  0.7023
 4536TIP3    H135023   7.258   2.791  12.624 -0.2726  1.8142  1.0782
 4536TIP3    H235024   7.178   2.756  12.748  0.0332  1.3650  1.1520
 4537TIP3   OH235025   2.602   4.917  10.921  0.1768  0.1091  0.1567
 4537TIP3    H135026   2.540   4.982  10.889 -0.9415 -0.5990  0.8476
 4537TIP3    H235027   2.572   4.898  11.010  1.3913 -0.2375  0.4966
 4538TIP3   OH235028   3.663   5.207  13.060  0.3039  0.2255  0.4809
 4538TIP3    H135029   3.593   5.268  13.035 -0.3909 -0.1413  1.5018
 4538TIP3    H235030   3.741   5.262  13.066  0.0382  0.7017 -0.3364
 4539TIP3   OH235031   2.467   1.282  12.306  0.1862  0.0624 -0.1734
 4539TIP3    H135032   2.418   1.337  12.367  0.9140  1.4996 -0.8605
 4539TIP3    H235033   2.404   1.260  12.238 -0.8249 -2.1295  1.4322
 4540TIP3   OH235034   5.180   3.132  13.875 -0.4209 -0.8143  0.1181
 4540TIP3    H135035   5.096   3.157  13.913 -0.1907 -1.0953  0.8105
 4540TIP3    H235036   5.213   3.213  13.836 -1.1191 -0.7591 -0.3608
 4541TIP3   OH235037   2.760   1.256  13.866  0.1520 -0.2904 -0.1620
 4541TIP3    H135038   2.695   1.201  13.822  0.7196 -2.0530  1.1435
 4541TIP3    H235039   2.800   1.307  13.795 -0.9185 -1.0053 -1.3049
 4542TIP3   OH235040   3.492   2.100  12.898  0.5655 -0.1185  0.9274
 4542TIP3    H135041   3.536   2.065  12.975  1.7895  1.2094  0.8419
 4542TIP3    H235042   3.552   2.166  12.863 -0.4153  0.0028 -0.5886
 4543TIP3   OH235043   3.156   1.865  15.682  0.9732  0.1579 -0.0462
 4543TIP3    H135044   3.148   1.770  15.676 -0.3184  0.3357 -1.4638
 4543TIP3    H235045   3.249   1.882  15.666  1.3835 -0.9131  1.1274
 4544TIP3   OH235046   4.608   3.106  12.723  0.0134 -0.3220 -0.0698
 4544TIP3    H135047   4.525   3.058  12.721  0.1079 -0.5308  0.7930
 4544TIP3    H235048   4.674   3.037  12.728  0.2422 -0.1577 -0.8719
 4545TIP3   OH235049   4.038   1.368  13.808 -0.5468 -0.5430  0.5071
 4545TIP3    H135050   4.032   1.362  13.903  1.0173  0.4347  0.6776
 4545TIP3    H235051   4.126   1.400  13.791 -1.0111 -0.1230 -1.2574
 4546TIP3   OH235052   4.421   0.703  12.044 -0.0163 -0.7770  0.0933
 4546TIP3    H135053   4.457   0.784  12.010 -1.4747 -0.2896 -0.3348
 4546TIP3    H235054   4.378   0.728  12.126  0.6366 -1.3567  0.6215
 4547TIP3   OH235055   6.847   0.975  13.708  0.1078  0.5205 -0.0780
 4547TIP3    H135056   6.881   0.933  13.788 -0.6438 -0.1845 -0.1230
 4547TIP3    H235057   6.855   0.908  13.641 -0.0620  0.8264 -0.4019
 4548TIP3   OH235058   6.090   1.693  10.967 -0.3552  0.2886 -0.9590
 4548TIP3    H135059   6.163   1.647  11.008 -0.1088  2.1492  0.7358
 4548TIP3    H235060   6.120   1.710  10.877  1.3417  1.1403 -0.2488
 4549TIP3   OH235061   4.022   4.304  13.003 -0.2713  0.1407 -0.0283
 4549TIP3    H135062   4.033   4.257  12.920  1.0364  1.7136 -0.7787
 4549TIP3    H235063   3.930   4.333  13.001 -1.0552 -2.1836  0.3854
 4550TIP3   OH235064   0.163   0.806  13.229  0.2312 -0.4644 -0.4988
 4550TIP3    H135065   0.192   0.731  13.176  1.9872  0.7547 -1.3020
 4550TIP3    H235066   0.206   0.794  13.313  1.6319  0.3708 -1.0875
 4551TIP3   OH235067   3.029   2.689  12.220  0.3738 -0.0534  0.1217
 4551TIP3    H135068   3.053   2.771  12.263 -1.1666  0.8060 -0.6555
 4551TIP3    H235069   3.113   2.653  12.189  1.3230  0.0957  2.4042
 4552TIP3   OH235070   5.080   7.118  10.406  0.0221  0.6449  0.3838
 4552TIP3    H135071   5.059   7.210  10.389 -0.5286  0.4849  0.1795
 4552TIP3    H235072   5.061   7.073  10.323 -1.3338  0.0769  0.9984
 4553TIP3   OH235073   4.988   2.394  13.199  0.5608 -0.2489  0.0994
 4553TIP3    H135074   5.000   2.431  13.111  1.3322  0.0140  0.3165
 4553TIP3    H235075   4.971   2.301  13.183 -2.8106  0.4040 -0.5410
 4554TIP3   OH235076   4.270   4.444  12.295 -0.6804 -0.3906  0.3647
 4554TIP3    H135077   4.261   4.452  12.200 -1.1863 -2.3942  0.2249
 4554TIP3    H235078   4.362   4.466  12.312 -0.8692  1.1150 -0.4294
 4555TIP3   OH235079   4.073   1.721  15.037 -0.6001  0.5360  0.8683
 4555TIP3    H135080   3.977   1.713  15.039 -0.7362  1.6174 -0.6464
 4555TIP3    H235081   4.098   1.680  14.954  0.0733  1.8843  0.4005
 4556TIP3   OH235082   4.268   1.406  12.830 -0.0672  0.8091 -0.0665
 4556TIP3    H135083   4.277   1.500  12.816  1.6845  0.7218  0.3385
 4556TIP3    H235084   4.312   1.389  12.914 -1.7021 -0.1557  0.6436
 4557TIP3   OH235085   4.576   2.339  13.230  0.0672 -0.4949 -0.5882
 4557TIP3    H135086   4.514   2.312  13.298  0.7562  0.1347  0.2944
 4557TIP3    H235087   4.586   2.433  13.243  1.0919 -0.5699 -0.8247
 4558TIP3   OH235088   2.940   0.404  12.644  0.1200  0.0863 -0.2173
 4558TIP3    H135089   3.025   0.441  12.667  0.1852 -1.1933  1.6455
 4558TIP3    H235090   2.878   0.475  12.659  0.3378 -0.2624  2.5877
 4559TIP3   OH235091   2.624   1.746  10.408  0.1809 -0.0999  0.4189
 4559TIP3    H135092   2.712   1.761  10.373 -1.2854  3.1416 -2.1685
 4559TIP3    H235093   2.586   1.680  10.350  0.5081 -0.6691  0.8494
 4560TIP3   OH235094   2.538   3.117  14.739  0.0384 -0.6930  0.5975
 4560TIP3    H135095   2.562   3.054  14.671  0.4086 -0.1106  0.1814
 4560TIP3    H235096   2.608   3.183  14.736 -0.8779  0.2809  0.3245
 4561TIP3   OH235097   3.203   1.143  12.793  0.0758 -0.2768  0.0850
 4561TIP3    H135098   3.160   1.062  12.821 -1.9428  0.8908  0.4579
 4561TIP3    H235099   3.294   1.132  12.821 -0.2466 -2.2495  0.4831
 4562TIP3   OH235100   3.331   3.437  10.801 -0.3917 -0.0009 -0.0887
 4562TIP3    H135101   3.284   3.515  10.832  1.0292  0.2891  1.4512
 4562TIP3    H235102   3.419   3.469  10.782 -0.1458 -1.0038 -0.6190
 4563TIP3   OH235103   4.319   4.587  12.985 -0.0608 -0.0277 -0.0632
 4563TIP3    H135104   4.235   4.633  12.984 -0.8223 -1.4156 -0.8420
 4563TIP3    H235105   4.350   4.596  13.075 -0.6652  1.1344  0.0427
 4564TIP3   OH235106   4.363   4.595  14.366 -0.5584  0.4140  0.6161
 4564TIP3    H135107   4.271   4.577  14.385 -0.6434  0.3627  0.1633
 4564TIP3    H235108   4.403   4.611  14.452 -0.6627 -1.0413  0.9458
 4565TIP3   OH235109   4.533   2.480  10.885 -0.0795  0.5283 -0.0450
 4565TIP3    H135110   4.566   2.400  10.844 -1.7749  0.4948 -1.3512
 4565TIP3    H235111   4.488   2.527  10.815  0.4377  2.3926  0.8295
 4566TIP3   OH235112   5.742   4.257  11.629  0.0179 -0.4481  0.5168
 4566TIP3    H135113   5.814   4.218  11.679 -0.4050 -0.2042  1.3124
 4566TIP3    H235114   5.665   4.207  11.655 -0.0157 -1.0960 -0.7760
 4567TIP3   OH235115   6.202   5.088  11.747  0.0763 -0.1671 -0.3240
 4567TIP3    H135116   6.204   5.127  11.835 -0.8014  0.3844 -0.5350
 4567TIP3    H235117   6.265   5.139  11.697  0.0708 -0.0267 -0.1881
 4568TIP3   OH235118   6.384   6.085  12.617  0.3615 -0.1699 -0.2649
 4568TIP3    H135119   6.321   6.016  12.633 -1.8365  2.1149  1.4081
 4568TIP3    H235120   6.444   6.081  12.691 -0.6487  0.6012  0.6202
 4569TIP3   OH235121   6.374   4.316  11.057 -0.1522 -0.3036 -0.3030
 4569TIP3    H135122   6.380   4.222  11.076 -2.3963 -0.6457 -1.0707
 4569TIP3    H235123   6.361   4.320  10.963  0.4013  0.8065 -0.3299
 4570TIP3   OH235124   0.111   3.022  11.636  0.1228  0.3522 -0.4396
 4570TIP3    H135125   0.079   2.934  11.613  0.4475  0.4319 -1.2026
 4570TIP3    H235126   0.104   3.025  11.731  0.5312 -0.6764 -0.3667
 4571TIP3   OH235127   0.076   1.599  13.971 -0.2346  0.6639  0.2235
 4571TIP3    H135128   0.026   1.562  14.044 -1.5301 -2.0877 -1.9610
 4571TIP3    H235129   0.012   1.609  13.900  1.5612  0.5756 -1.4636
 4572TIP3   OH235130   4.029   5.257  12.045  0.4780  0.2120 -0.2626
 4572TIP3    H135131   4.016   5.280  11.953 -0.4992  2.0133  0.3165
 4572TIP3    H235132   4.124   5.260  12.057  0.4604  2.6885 -0.5437
 4573TIP3   OH235133   6.224   1.276  15.379  0.8444 -0.2511 -0.4464
 4573TIP3    H135134   6.278   1.353  15.360  1.5256 -0.4568  0.6305
 4573TIP3    H235135   6.267   1.234  15.453 -2.0777  0.9135  2.0594
 4574TIP3   OH235136   5.376   2.435  11.439  0.7509 -0.0597 -0.2805
 4574TIP3    H135137   5.427   2.481  11.506  0.5981  0.9659 -0.8557
 4574TIP3    H235138   5.342   2.358  11.484  0.4082  0.7630  0.9011
 4575TIP3   OH235139   3.761   0.926  13.716  0.2728 -0.5561  0.0741
 4575TIP3    H135140   3.829   0.990  13.696  0.2589 -0.9583 -1.3175
 4575TIP3    H235141   3.738   0.888  13.631 -0.0859 -2.0407  0.8141
 4576TIP3   OH235142   5.167   3.457  11.711 -0.1191  0.0026  0.1502
 4576TIP3    H135143   5.230   3.387  11.727  1.7284  1.4673 -0.5595
 4576TIP3    H235144   5.119   3.428  11.633  0.5718 -0.5042 -0.0917
 4577TIP3   OH235145   6.038   3.454  12.101  0.1379 -0.0596 -0.1194
 4577TIP3    H135146   6.114   3.505  12.074 -0.5752  1.0022 -0.1667
 4577TIP3    H235147   6.014   3.490  12.187 -1.2671  0.7228 -0.8160
 4578TIP3   OH235148   4.507   2.018  10.415 -0.2632 -0.2633  0.0593
 4578TIP3    H135149   4.459   1.942  10.385 -3.5370  1.5997  0.3895
 4578TIP3    H235150   4.499   2.082  10.344  1.4304  0.2255  0.2743
 4579TIP3   OH235151   2.723   3.535  12.188 -0.2604  0.9670  0.4896
 4579TIP3    H135152   2.690   3.560  12.102 -0.8224  0.3097  0.5154
 4579TIP3    H235153   2.734   3.441  12.184  0.3198  1.0107  0.9317
 4580TIP3   OH235154   6.068   1.472  12.427 -0.3633  0.3671  0.2451
 4580TIP3    H135155   6.024   1.532  12.367  1.6972  2.3740  0.6735
 4580TIP3    H235156   6.081   1.392  12.376 -2.5591  0.4644 -0.5337
 4581TIP3   OH235157   2.082   2.824  14.360  0.3640  0.2757  0.0814
 4581TIP3    H135158   2.039   2.908  14.346  0.7827  0.3990 -0.4767
 4581TIP3    H235159   2.042   2.765  14.296 -1.3110 -0.4575  1.7622
 4582TIP3   OH235160   5.560   4.242  12.047 -0.7067  0.1013 -0.0654
 4582TIP3    H135161   5.528   4.219  11.960 -1.0864  0.3697  0.0009
 4582TIP3    H235162   5.573   4.337  12.044 -0.5903  0.0921  0.1247
 4583TIP3   OH235163   3.414   1.575  13.978  0.4678  0.3782  0.7139
 4583TIP3    H135164   3.341   1.513  13.981  0.8448  0.0281  3.3200
 4583TIP3    H235165   3.470   1.543  13.907 -0.3426 -1.1279  0.7454
 4584TIP3   OH235166   3.783   1.630  13.263 -0.0873 -0.2139  0.0703
 4584TIP3    H135167   3.845   1.588  13.204 -1.9035 -1.0555 -1.2867
 4584TIP3    H235168   3.701   1.582  13.249 -0.8517  0.3645  2.3916
 4585TIP3   OH235169   3.769   4.328  13.571  0.0220 -0.4507  0.0381
 4585TIP3    H135170   3.697   4.272  13.542 -1.3321  0.5436  1.4202
 4585TIP3    H235171   3.815   4.350  13.490 -2.1367  0.1321 -1.0911
 4586TIP3   OH235172   2.842   2.979  14.426 -0.0884  0.5366 -0.3570
 4586TIP3    H135173   2.898   2.911  14.387 -2.1846 -0.5123 -1.6603
 4586TIP3    H235174   2.767   2.984  14.367 -0.7448  2.8553  0.6342
 4587TIP3   OH235175   5.858   3.839  11.125 -0.1279 -0.5271  0.0249
 4587TIP3    H135176   5.916   3.863  11.052 -0.9579 -0.9158 -0.7782
 4587TIP3    H235177   5.862   3.744  11.128 -1.5953 -0.6418 -0.7951
 4588TIP3   OH235178   3.643   3.335  13.139 -0.1212  0.1485 -0.4653
 4588TIP3    H135179   3.559   3.306  13.104  0.3499  0.9016 -2.3314
 4588TIP3    H235180   3.687   3.254  13.166 -1.7708 -0.1672  1.3135
 4589TIP3   OH235181   4.544   4.247  13.238 -0.7211 -0.4168  0.0585
 4589TIP3    H135182   4.586   4.221  13.320  0.7547  0.5735 -0.3633
 4589TIP3    H235183   4.523   4.340  13.250 -0.9969 -0.4020 -0.4883
 4590TIP3   OH235184   3.461   1.471  11.723 -0.3272 -0.4887 -0.0651
 4590TIP3    H135185   3.518   1.432  11.788 -0.8094  0.4829  0.9560
 4590TIP3    H235186   3.513   1.471  11.642  1.8879  2.1634  1.2689
 4591TIP3   OH235187   4.306   3.633  11.593 -0.0142 -0.6658  0.2715
 4591TIP3    H135188   4.361   3.600  11.664 -0.7991 -0.4176  0.9945
 4591TIP3    H235189   4.281   3.555  11.543  0.4612 -0.8497  0.3196
 4592TIP3   OH235190   3.734   0.410  11.274  1.0998 -0.1929 -0.0394
 4592TIP3    H135191   3.640   0.422  11.262  0.5636 -2.3524  1.6049
 4592TIP3    H235192   3.767   0.389  11.186  0.5014  2.9286 -1.0774
 4593TIP3   OH235193   4.930   5.085  14.883  0.3551  0.1308 -0.7592
 4593TIP3    H135194   4.839   5.059  14.870  0.6825 -2.0940  1.1042
 4593TIP3    H235195   4.979   5.033  14.819  0.3426  1.2905 -1.7272
 4594TIP3   OH235196   5.041   3.818  15.108 -0.2432 -0.0937 -0.0315
 4594TIP3    H135197   5.094   3.789  15.183 -0.7292  0.5710  0.5805
 4594TIP3    H235198   5.044   3.745  15.046  1.4333 -0.0475 -0.0265
 4595TIP3   OH235199   7.008   1.766  12.448 -0.5348  0.8015  0.1079
 4595TIP3    H135200   7.028   1.822  12.523  1.3729 -1.0603  1.0285
 4595TIP3    H235201   6.929   1.719  12.473 -1.5429  2.2751 -0.2413
 4596TIP3   OH235202   4.568   1.171  14.549 -0.1663 -0.2016 -0.3829
 4596TIP3    H135203   4.473   1.160  14.545 -0.2287  0.5469 -1.4883
 4596TIP3    H235204   4.580   1.252  14.598 -0.2780  1.4979 -3.0078
 4597TIP3   OH235205   5.602   1.083  12.692 -0.1117  0.3318  0.5773
 4597TIP3    H135206   5.573   1.162  12.646  1.0578  1.2771  1.4561
 4597TIP3    H235207   5.684   1.060  12.649 -1.8227 -2.1111 -1.6317
 4598TIP3   OH235208   5.709   4.725  13.329 -0.5071  0.0830  0.5916
 4598TIP3    H135209   5.791   4.709  13.283 -0.0155 -0.2035  1.5563
 4598TIP3    H235210   5.646   4.666  13.289  0.1990 -1.0059  1.0602
 4599TIP3   OH235211   3.930   4.278  13.812 -0.1477  0.1705  0.0205
 4599TIP3    H135212   3.893   4.297  13.726  1.6492  0.7788 -0.6343
 4599TIP3    H235213   4.014   4.237  13.793  0.4234  0.6425  1.4790
 4600TIP3   OH235214   4.281   2.333  14.656 -0.0113  0.5396  0.5179
 4600TIP3    H135215   4.212   2.397  14.640 -1.5452 -0.9474  0.9619
 4600TIP3    H235216   4.290   2.332  14.752 -0.3650 -0.2743  0.5450
 4601TIP3   OH235217   6.914   2.350  11.646 -0.4151 -0.3649 -0.6534
 4601TIP3    H135218   6.861   2.350  11.725 -1.2891 -1.0171 -1.2311
 4601TIP3    H235219   6.980   2.282  11.661 -0.8115 -0.7467 -0.6405
 4602TIP3   OH235220   5.221   5.518  14.825 -0.5703 -0.2087  0.6266
 4602TIP3    H135221   5.127   5.508  14.842 -0.4440 -0.3609  1.2350
 4602TIP3    H235222   5.263   5.492  14.907  0.0450 -0.9893  0.0658
 4603TIP3   OH235223   5.180   0.799  12.031 -0.8157  0.2148  0.1510
 4603TIP3    H135224   5.269   0.829  12.013 -1.3015  0.6579 -1.7070
 4603TIP3    H235225   5.124   0.868  11.995 -1.9171 -0.9971 -0.5267
 4604TIP3   OH235226   2.636   0.450  10.587 -0.6026 -0.3081  0.0529
 4604TIP3    H135227   2.692   0.465  10.663 -1.4178 -0.2394  0.6567
 4604TIP3    H235228   2.690   0.401  10.526  0.6230  1.1102 -0.0310
 4605TIP3   OH235229   4.346   2.035  14.826 -0.4066  0.1405 -0.4721
 4605TIP3    H135230   4.375   2.124  14.844  3.0528 -0.8579 -0.6111
 4605TIP3    H235231   4.315   2.037  14.735  1.8685  0.7582 -1.2807
 4606TIP3   OH235232   6.779   3.158  10.712  0.4369 -0.0117 -0.6183
 4606TIP3    H135233   6.752   3.178  10.622 -0.3965 -1.2176 -0.6536
 4606TIP3    H235234   6.724   3.084  10.737 -0.3991  1.2564  1.4202
 4607TIP3   OH235235   7.244   6.908  11.210 -0.0511  0.1539 -0.3191
 4607TIP3    H135236   7.150   6.891  11.199  0.0251 -0.7778  0.4885
 4607TIP3    H235237   7.263   6.887  11.301  1.2395 -1.0585 -0.8473
 4608TIP3   OH235238   6.274   1.883  13.290  0.2263  0.1371  0.9285
 4608TIP3    H135239   6.220   1.806  13.269  1.7001 -0.9050  0.9047
 4608TIP3    H235240   6.245   1.950  13.228  0.8741 -1.2820 -0.9674
 4609TIP3   OH235241   2.904   7.279  13.331  0.1575 -0.3898 -0.0378
 4609TIP3    H135242   2.946   7.269  13.245  0.3799 -0.8566  0.1240
 4609TIP3    H235243   2.941   7.209  13.384 -0.4960 -0.5260  0.2422
 4610TIP3   OH235244   4.702   0.968  13.037 -0.1318  0.2929  0.4424
 4610TIP3    H135245   4.775   0.915  13.003 -2.5516 -3.3686  0.6682
 4610TIP3    H235246   4.724   0.983  13.129  1.5550  1.4887 -0.1273
 4611TIP3   OH235247   3.690   2.693  13.486 -0.5209 -0.1172  0.2221
 4611TIP3    H135248   3.777   2.732  13.492 -1.9484  3.3633 -0.4684
 4611TIP3    H235249   3.704   2.600  13.505  3.3993  0.2547 -0.3583
 4612TIP3   OH235250   0.519   2.052  11.947 -0.1859 -0.1546 -0.3583
 4612TIP3    H135251   0.510   1.980  11.885 -0.6814  0.2225 -0.7307
 4612TIP3    H235252   0.608   2.085  11.933 -0.3451  0.0253 -0.9785
 4613TIP3   OH235253   7.080   0.794  11.146  0.0012 -0.1725  0.4101
 4613TIP3    H135254   7.170   0.825  11.159  0.2783 -0.8367  0.1020
 4613TIP3    H235255   7.080   0.705  11.181 -0.0636 -0.8260 -1.2011
 4614TIP3   OH235256   5.910   3.949  15.075 -0.4216  0.1346 -0.0874
 4614TIP3    H135257   5.927   3.896  15.152 -0.8015  0.7168  0.4092
 4614TIP3    H235258   5.996   3.960  15.034 -0.4587 -1.5039 -0.6331
 4615TIP3   OH235259   5.785   2.329  11.678 -0.8474  0.2144  0.8014
 4615TIP3    H135260   5.820   2.248  11.716 -2.9780 -2.0026 -1.6960
 4615TIP3    H235261   5.802   2.319  11.584 -0.0949  3.2528  0.5839
 4616TIP3   OH235262   2.940   2.762  14.273 -0.0814 -0.2080  0.9275
 4616TIP3    H135263   2.985   2.731  14.194  0.9380 -0.1462  1.4766
 4616TIP3    H235264   2.894   2.685  14.306  1.2517 -0.8058  1.4646
 4617TIP3   OH235265   2.399   2.920  13.968 -0.1432 -0.4400 -0.4566
 4617TIP3    H135266   2.371   2.884  14.052 -1.1706  0.4934 -0.3924
 4617TIP3    H235267   2.362   2.860  13.903 -0.7292 -0.2435 -0.3052
 4618TIP3   OH235268   5.813   4.679  12.041 -0.3235  0.8729 -0.8458
 4618TIP3    H135269   5.717   4.687  12.046 -0.1999  2.3858 -0.6373
 4618TIP3    H235270   5.833   4.598  12.087 -1.4407  1.0099 -0.0935
 4619TIP3   OH235271   3.301   1.179  13.574  0.3430 -0.1864 -0.9868
 4619TIP3    H135272   3.277   1.181  13.481  0.1800  1.5415 -0.9356
 4619TIP3    H235273   3.218   1.167  13.620  0.3651 -0.5757 -1.0498
 4620TIP3   OH235274   5.835   1.195  15.203  0.0201 -0.4600  0.2623
 4620TIP3    H135275   5.796   1.154  15.125  0.2654  0.2353 -0.2282
 4620TIP3    H235276   5.929   1.193  15.186  0.0934 -0.5762  0.6804
 4621TIP3   OH235277   3.515   1.371  10.362  0.3238 -0.5162  0.1612
 4621TIP3    H135278   3.559   1.312  10.423 -0.1387 -0.7933  0.2277
 4621TIP3    H235279   3.583   1.397  10.300  0.4529 -1.3750 -0.0560
 4622TIP3   OH235280   3.658   4.506  13.761 -0.0870 -0.0992  0.5400
 4622TIP3    H135281   3.647   4.466  13.847  0.8063 -0.0130  0.7037
 4622TIP3    H235282   3.705   4.440  13.710  0.7210  0.4485  0.5795
 4623TIP3   OH235283   5.687   2.363  12.365  0.7238  0.3105 -0.4342
 4623TIP3    H135284   5.698   2.310  12.444 -0.0873 -0.9170 -1.1346
 4623TIP3    H235285   5.628   2.312  12.309  1.1131  1.2602 -1.7457
 4624TIP3   OH235286   6.471   1.813  10.723  0.2544 -0.3735 -0.1573
 4624TIP3    H135287   6.506   1.800  10.635  2.8316 -0.8366  0.8964
 4624TIP3    H235288   6.473   1.908  10.736  0.7764 -0.3755 -0.2314
 4625TIP3   OH235289   5.254   4.735  12.205 -0.3940 -0.0113 -0.3974
 4625TIP3    H135290   5.223   4.720  12.115  0.2789 -1.2600 -0.4365
 4625TIP3    H235291   5.249   4.650  12.247  0.7603  0.2451  0.2915
 4626TIP3   OH235292   6.183   3.639  11.260  1.1473  0.1256 -0.1011
 4626TIP3    H135293   6.226   3.677  11.185 -0.2312  1.0098 -0.4700
 4626TIP3    H235294   6.186   3.707  11.327 -0.3634  0.5162 -0.4026
 4627TIP3   OH235295   6.791   3.435  14.687  0.0187 -0.1845  0.3948
 4627TIP3    H135296   6.739   3.501  14.642 -1.3391 -1.1603  0.4913
 4627TIP3    H235297   6.775   3.355  14.638 -0.4255 -0.9795  1.7948
 4628TIP3   OH235298   5.045   4.523  11.696 -0.1172 -0.4173  0.3704
 4628TIP3    H135299   5.008   4.598  11.743 -1.8154 -2.1579  1.8835
 4628TIP3    H235300   5.111   4.562  11.637 -1.2168  2.2778  0.8427
 4629TIP3   OH235301   5.847   4.427  12.150  0.5866  0.5249  0.2118
 4629TIP3    H135302   5.898   4.356  12.111  0.1305 -0.0647  0.6737
 4629TIP3    H235303   5.850   4.410  12.244 -1.2056 -0.0278  0.1921
 4630TIP3   OH235304   5.463   0.789  14.373 -0.1129 -0.5243  0.4247
 4630TIP3    H135305   5.463   0.779  14.278 -1.6813  2.0261  0.1226
 4630TIP3    H235306   5.396   0.855  14.391  0.7748 -0.3057  3.2392
 4631TIP3   OH235307   1.332   3.086  12.895 -0.5190  0.4609  0.1525
 4631TIP3    H135308   1.274   3.023  12.937 -1.0665  0.9378  0.1050
 4631TIP3    H235309   1.279   3.127  12.827 -0.6340  2.0751  1.1803
 4632TIP3   OH235310   5.853   6.137  10.855  0.0163 -0.0048  0.1285
 4632TIP3    H135311   5.837   6.044  10.870 -2.3417 -0.1374 -2.7688
 4632TIP3    H235312   5.768   6.173  10.832  0.8330  2.9798  1.5113
 4633TIP3   OH235313   6.057   3.643  11.903  0.7605  0.1912  0.2965
 4633TIP3    H135314   6.096   3.588  11.836  1.6880 -2.5346  2.9453
 4633TIP3    H235315   5.991   3.588  11.945 -0.1448  1.9704  1.3003
 4634TIP3   OH235316   6.672   3.657  11.938 -0.2096  0.1673 -0.7875
 4634TIP3    H135317   6.759   3.643  11.901 -0.0897  1.6990 -1.0901
 4634TIP3    H235318   6.678   3.740  11.985 -0.7634 -1.0244  1.4953
 4635TIP3   OH235319   6.082   2.646  12.219  0.2266  0.0854  0.2362
 4635TIP3    H135320   6.086   2.566  12.166  0.2563  0.0701  0.2619
 4635TIP3    H235321   5.998   2.641  12.264  0.0538  0.2556 -0.0617
 4636TIP3   OH235322   5.959   4.634  12.534 -0.3071 -0.1635 -0.1316
 4636TIP3    H135323   6.033   4.573  12.537  0.9013  1.2560 -0.7724
 4636TIP3    H235324   5.882   4.577  12.527  0.8396 -1.6275 -1.2231
 4637TIP3   OH235325   7.198   3.262  14.593 -0.0627  0.4964  0.4280
 4637TIP3    H135326   7.149   3.258  14.511  0.1781 -1.1997  0.3375
 4637TIP3    H235327   7.228   3.353  14.599 -1.6329  1.0895 -0.4327
 4638TIP3   OH235328   3.563   2.577  12.888  0.1359  0.3629  0.0505
 4638TIP3    H135329   3.492   2.523  12.854 -0.6689  0.8062  1.0010
 4638TIP3    H235330   3.528   2.616  12.967  1.3532  0.8101  0.3863
 4639TIP3   OH235331   6.041   4.977  11.199  0.7492  0.3550  0.1662
 4639TIP3    H135332   6.082   4.896  11.168 -2.2060 -1.1319 -0.0150
 4639TIP3    H235333   6.041   4.970  11.294  1.7600  0.8057  0.2042
 4640TIP3   OH235334   6.651   3.194  11.607  0.3344  0.0082 -0.2535
 4640TIP3    H135335   6.607   3.265  11.559 -0.7922 -0.7188 -0.3073
 4640TIP3    H235336   6.738   3.229  11.627 -0.0134  1.1953 -0.7794
 4641TIP3   OH235337   6.894   1.145  12.151 -0.2232  0.0074 -0.6516
 4641TIP3    H135338   6.855   1.232  12.138 -0.6615 -0.0115  0.4521
 4641TIP3    H235339   6.836   1.086  12.103  1.4115  0.5687 -3.4311
 4642TIP3   OH235340   5.977   0.091  12.176 -0.6366  0.3258  0.3952
 4642TIP3    H135341   5.953   0.139  12.097  0.9624  0.5176  0.0166
 4642TIP3    H235342   6.035   0.021  12.145 -0.1286  0.3056  1.3720
 4643TIP3   OH235343   5.800   2.611  13.420 -0.0359  0.2164  0.0094
 4643TIP3    H135344   5.808   2.706  13.411 -1.0993  0.2997 -0.1684
 4643TIP3    H235345   5.719   2.589  13.373  0.0639 -0.7406  0.2642
 4644TIP3   OH235346   4.860   3.003  12.555 -0.4602  0.3068  0.1156
 4644TIP3    H135347   4.833   2.958  12.635  0.2419 -0.3705 -0.0155
 4644TIP3    H235348   4.885   2.932  12.495  0.4325  0.8594 -0.1766
 4645TIP3   OH235349   5.256   4.003  13.287  0.1818 -0.4152 -0.0373
 4645TIP3    H135350   5.331   4.057  13.264  0.0367 -1.1182 -2.3560
 4645TIP3    H235351   5.294   3.925  13.327  0.7123 -0.7049 -1.0763
 4646TIP3   OH235352   6.453   2.495  10.682  0.0284  0.2235 -0.0204
 4646TIP3    H135353   6.450   2.422  10.744  0.1495 -0.7892 -1.1787
 4646TIP3    H235354   6.524   2.551  10.714  0.8036 -0.8448  0.1620
 4647TIP3   OH235355   6.422   1.666  11.781 -0.1699  0.4925  0.1892
 4647TIP3    H135356   6.334   1.628  11.782 -0.1789  0.5163  0.3413
 4647TIP3    H235357   6.441   1.679  11.689 -0.4856  0.8571  0.1750
 4648TIP3   OH235358   3.825   3.093  13.495  0.3949 -0.6078 -0.6817
 4648TIP3    H135359   3.839   3.020  13.555 -0.3089 -1.1621 -1.1846
 4648TIP3    H235360   3.786   3.161  13.550 -0.4755 -1.2005 -0.5509
 4649TIP3   OH235361   6.192   0.089  11.956 -0.1783  0.2095 -0.2227
 4649TIP3    H135362   6.254   0.021  11.926 -0.3087  0.0801 -0.1969
 4649TIP3    H235363   6.143   0.112  11.878  0.6403  1.0887 -0.4858
 4650TIP3   OH235364   6.603   4.197  13.987 -0.3902 -0.5047  0.2953
 4650TIP3    H135365   6.659   4.222  14.061  0.6476  0.6369 -0.8553
 4650TIP3    H235366   6.616   4.103  13.978  1.4725 -0.2366 -0.0321
 4651TIP3   OH235367   5.978   4.058  12.402 -0.0250  0.4863  0.5375
 4651TIP3    H135368   5.955   3.985  12.344 -0.3756  1.3329 -0.4023
 4651TIP3    H235369   6.073   4.063  12.397 -0.1630  1.6979 -1.4078
 4652TIP3   OH235370   6.752   1.979  12.881  0.1662  0.7903 -0.2405
 4652TIP3    H135371   6.754   2.068  12.847  1.6167  1.3582  1.2616
 4652TIP3    H235372   6.811   1.981  12.956 -1.0217 -1.0446  0.7778
 4653TIP3   OH235373   5.569   1.384  11.759 -0.0230 -0.4844  0.1073
 4653TIP3    H135374   5.575   1.332  11.680 -0.1876 -0.0194 -0.2141
 4653TIP3    H235375   5.588   1.474  11.731 -2.1958  0.0331  0.2051
 4654TIP3   OH235376   0.286   3.804  12.873  0.5336 -0.1803 -0.2910
 4654TIP3    H135377   0.348   3.836  12.807 -2.1652  1.5895 -2.0763
 4654TIP3    H235378   0.267   3.714  12.846  0.5714  0.0391 -1.0649
 4655TIP3   OH235379   5.774   2.638  11.740 -0.1806  0.0047  0.4655
 4655TIP3    H135380   5.762   2.638  11.645 -1.3020  1.1745  0.5896
 4655TIP3    H235381   5.860   2.599  11.753 -0.1162 -0.3930 -1.0186
 4656TIP3   OH235382   1.538   3.255  11.620  0.2506 -0.2055 -0.1259
 4656TIP3    H135383   1.448   3.224  11.606  0.7407 -1.6761 -0.0982
 4656TIP3    H235384   1.542   3.275  11.714  0.0459 -0.4557 -0.0625
 4657TIP3   OH235385   1.086   2.437  14.433 -0.2549 -0.2232 -0.1975
 4657TIP3    H135386   1.136   2.356  14.438  2.9293  1.6959  0.3585
 4657TIP3    H235387   1.120   2.482  14.356 -0.5451  1.5001  0.6465
 4658TIP3   OH235388   5.585   3.737  12.398 -0.3642 -0.2047 -0.4002
 4658TIP3    H135389   5.627   3.702  12.319  1.7242  1.2860  0.0036
 4658TIP3    H235390   5.601   3.831  12.394 -0.4708 -0.0782  1.6564
 4659TIP3   OH235391   6.979   2.135  12.554 -0.2379  0.0956  0.0228
 4659TIP3    H135392   6.986   2.207  12.490 -0.4361 -0.6092 -0.8006
 4659TIP3    H235393   6.940   2.176  12.631  2.9088  1.6585  0.8455
 4660TIP3   OH235394   0.682   2.277  11.368  0.0356 -0.1179  0.3578
 4660TIP3    H135395   0.715   2.342  11.306 -0.8913 -0.7006 -0.7604
 4660TIP3    H235396   0.587   2.290  11.367 -0.2140 -1.8725 -0.3156
 4661TIP3   OH235397   5.060   3.544  12.017  0.8257  0.3360 -0.3865
 4661TIP3    H135398   5.091   3.633  12.031 -0.1593  0.8789 -1.5800
 4661TIP3    H235399   5.059   3.533  11.922 -0.9580 -0.2652 -0.3109
 4662TIP3   OH235400   1.314   4.113  10.768 -0.5441  0.7565 -0.0695
 4662TIP3    H135401   1.271   4.028  10.773  1.4007 -0.2871 -0.4210
 4662TIP3    H235402   1.289   4.147  10.682  1.2115 -0.9296 -1.3027
 4663TIP3   OH235403   5.547   4.601  13.166  0.7639 -0.4201 -0.6091
 4663TIP3    H135404   5.532   4.561  13.081  0.5272  0.4479 -0.9750
 4663TIP3    H235405   5.470   4.577  13.218  0.3143  0.1071 -1.0303
 4664TIP3   OH235406   5.864   2.323  11.397  0.8145  0.5817  0.1211
 4664TIP3    H135407   5.957   2.344  11.386  0.8444 -0.1400 -0.9700
 4664TIP3    H235408   5.850   2.245  11.344  0.3301 -1.3015  2.9274
 4665TIP3   OH235409   6.243   4.125  11.772 -0.2985  0.1806 -0.1988
 4665TIP3    H135410   6.315   4.062  11.767 -0.6090 -0.1921 -0.0082
 4665TIP3    H235411   6.286   4.210  11.777  0.1219 -0.0014 -0.6528
 4666TIP3   OH235412   4.700   4.299  12.650  0.3192 -0.2885 -0.5040
 4666TIP3    H135413   4.606   4.315  12.642  0.6163  1.6773 -0.2836
 4666TIP3    H235414   4.737   4.338  12.570  1.2098  1.4192  0.7016
 4667TIP3   OH235415   6.747   4.108  13.426 -0.0756  0.1115  0.1788
 4667TIP3    H135416   6.717   4.082  13.339 -1.6141  0.0186  0.7163
 4667TIP3    H235417   6.668   4.104  13.481  0.1211  3.5487  0.8067
 4668TIP3   OH235418   2.079   1.648  14.977 -0.2158 -0.1207  0.1313
 4668TIP3    H135419   2.089   1.645  14.882  1.4900  3.3252  0.1485
 4668TIP3    H235420   2.164   1.622  15.012 -0.0032  1.2541  0.6683
 4669TIP3   OH235421   4.748   5.343  11.724  0.3296 -0.4125 -0.0410
 4669TIP3    H135422   4.682   5.386  11.779  2.5041  0.9137  1.5940
 4669TIP3    H235423   4.766   5.406  11.655 -0.1086 -0.7756 -0.4875
 4670TIP3   OH235424   0.787   6.075  11.093 -0.0402  0.1151 -0.7171
 4670TIP3    H135425   0.766   6.088  11.001 -0.0027  1.3000 -0.5663
 4670TIP3    H235426   0.858   6.010  11.093 -0.0789  0.0692 -1.5147
 4671TIP3   OH235427   0.314   5.880  13.521 -0.3196 -0.0384 -0.7270
 4671TIP3    H135428   0.219   5.873  13.516 -0.2249 -2.5139 -0.0666
 4671TIP3    H235429   0.336   5.841  13.606  1.2520  0.7078 -0.7781
 4672TIP3   OH235430   6.963   3.408  13.197  0.3893 -0.0252 -0.3293
 4672TIP3    H135431   7.044   3.451  13.225  2.6279 -3.2952 -1.4426
 4672TIP3    H235432   6.921   3.382  13.279 -0.0228  2.4348  0.2898
 4673TIP3   OH235433   4.835   3.240  13.399 -0.1768  1.1194 -0.5877
 4673TIP3    H135434   4.817   3.334  13.400 -1.9684  0.8321 -2.3395
 4673TIP3    H235435   4.748   3.200  13.395  0.6186 -0.5692 -1.2841
 4674TIP3   OH235436   5.552   2.799  10.333 -0.0496 -0.1277  0.4713
 4674TIP3    H135437   5.512   2.721  10.292 -1.1010  0.2828  0.7012
 4674TIP3    H235438   5.644   2.793  10.309  0.0323 -1.8732  1.1384
 4675TIP3   OH235439   5.770   2.813  14.063 -0.2698 -0.1663 -0.1800
 4675TIP3    H135440   5.825   2.799  14.140 -3.3942  0.2378  2.1857
 4675TIP3    H235441   5.760   2.908  14.057 -3.0351 -0.3360  1.1503
 4676TIP3   OH235442   1.407   1.221  14.699  0.0223 -0.0515 -0.7627
 4676TIP3    H135443   1.458   1.268  14.765 -0.2636  0.1571 -0.6865
 4676TIP3    H235444   1.316   1.238  14.723 -0.0842 -0.6259 -0.7522
 4677TIP3   OH235445   5.087   1.821  12.616 -0.0631 -0.4043 -0.6835
 4677TIP3    H135446   5.121   1.907  12.591  0.4118 -0.2246  0.5574
 4677TIP3    H235447   5.077   1.826  12.711 -1.4387 -1.2232 -0.7657
 4678TIP3   OH235448   0.914   2.487  14.670 -0.6574 -0.0256  0.2696
 4678TIP3    H135449   0.970   2.445  14.605 -0.6685  0.4272 -0.0315
 4678TIP3    H235450   0.826   2.455  14.650 -0.6984  0.3175 -0.1037
 4679TIP3   OH235451   6.129   2.357  13.101 -0.5376  0.3802  0.1532
 4679TIP3    H135452   6.063   2.412  13.144 -0.1186  2.2449 -1.5334
 4679TIP3    H235453   6.189   2.419  13.061 -0.5364 -1.3096 -2.5641
 4680TIP3   OH235454   2.198   1.755  15.443 -0.2342  0.8348  0.3537
 4680TIP3    H135455   2.217   1.849  15.442  1.3848  0.5232  1.0690
 4680TIP3    H235456   2.150   1.739  15.362 -0.9263  2.3553  0.4501
 4681TIP3   OH235457   6.260   0.630  13.271 -0.1707  0.2759  0.3348
 4681TIP3    H135458   6.257   0.534  13.267  0.6157  0.1136  2.7503
 4681TIP3    H235459   6.205   0.659  13.199 -1.2534 -2.0105  0.1964
 4682TIP3   OH235460   4.479   3.384  12.239 -0.3506 -0.9221 -0.4475
 4682TIP3    H135461   4.472   3.354  12.148  1.8149  0.7852 -1.2320
 4682TIP3    H235462   4.530   3.316  12.283 -0.1961 -1.0757 -0.8568
 4683TIP3   OH235463   2.108   2.272  13.283  0.1273  0.2302 -0.0981
 4683TIP3    H135464   2.054   2.340  13.244 -2.4330  0.4301  3.5353
 4683TIP3    H235465   2.059   2.191  13.269 -1.5571  0.4847  3.7216
 4684TIP3   OH235466   1.486   1.290  13.438  0.7179  0.4771 -0.1217
 4684TIP3    H135467   1.408   1.287  13.383 -0.0313 -0.4041  0.9652
 4684TIP3    H235468   1.465   1.354  13.506  1.6361  1.5552 -0.8318
 4685TIP3   OH235469   0.827   1.971  13.111  0.1331 -0.0974 -0.2205
 4685TIP3    H135470   0.825   2.060  13.075  1.1662 -0.2805 -0.7447
 4685TIP3    H235471   0.745   1.931  13.080 -0.6971  0.9003  0.6366
 4686TIP3   OH235472   1.068   1.248  11.604  0.8579  0.1102 -0.1174
 4686TIP3    H135473   0.994   1.294  11.645  1.1343 -1.0291  1.7217
 4686TIP3    H235474   1.042   1.156  11.605  1.4462 -0.0685 -1.3178
 4687TIP3   OH235475   6.540   3.640  10.888  0.2618  0.2193 -0.2346
 4687TIP3    H135476   6.614   3.584  10.913 -0.4289 -0.2037  0.9035
 4687TIP3    H235477   6.537   3.635  10.792  0.0797 -1.8570 -0.1423
 4688TIP3   OH235478   5.920   3.315  15.063  0.3107 -0.3479 -0.4307
 4688TIP3    H135479   5.917   3.221  15.043  2.2580 -0.4983 -0.0757
 4688TIP3    H235480   5.990   3.349  15.009 -0.6451  1.0039 -0.8544
 4689TIP3   OH235481   5.086   3.008   9.858  0.4230  0.6346  0.3041
 4689TIP3    H135482   5.040   2.997   9.941  0.7052 -1.3686  0.2137
 4689TIP3    H235483   5.127   2.923   9.841 -0.1094  0.8347 -2.1683
 4690TIP3   OH235484   6.376   7.192  11.239 -0.1848 -0.2862  0.2500
 4690TIP3    H135485   6.337   7.279  11.235 -0.4584 -0.4714 -1.0933
 4690TIP3    H235486   6.375   7.170  11.333 -0.1852  1.1129  0.5875
 4691TIP3   OH235487   7.071   2.552  11.441  0.0300  0.3141 -0.0161
 4691TIP3    H135488   7.023   2.630  11.468  0.9504  1.4932 -1.7035
 4691TIP3    H235489   7.029   2.480  11.488 -0.6511  1.8534  1.7794
 4692TIP3   OH235490   3.953   2.990  11.946  0.1296 -0.0954 -0.5582
 4692TIP3    H135491   3.880   2.954  11.995 -0.8950  0.4649 -1.6337
 4692TIP3    H235492   3.942   2.956  11.857  0.2238  1.2870 -1.1228
 4693TIP3   OH235493   4.048   3.076  12.482 -0.0868  0.1980  0.0499
 4693TIP3    H135494   4.002   3.034  12.410 -0.6651 -0.1289  0.6125
 4693TIP3    H235495   4.130   3.027  12.491  0.4413  0.8634 -1.0361
 4694TIP3   OH235496   6.713   4.802  12.800 -0.2467 -0.2638  0.3864
 4694TIP3    H135497   6.696   4.869  12.733 -0.8055  0.4591  1.2429
 4694TIP3    H235498   6.672   4.723  12.766 -0.6635  0.1420 -0.0593
 4695TIP3   OH235499   5.606   2.195  12.936 -0.1154  0.0435  0.3423
 4695TIP3    H135500   5.523   2.242  12.943  0.5373  1.2993 -0.0029
 4695TIP3    H235501   5.655   2.222  13.014  0.5344  0.4994 -0.2116
 4696TIP3   OH235502   1.925   2.139  13.549  0.2849 -0.4057 -0.1620
 4696TIP3    H135503   1.936   2.187  13.631 -1.6673  0.2694 -0.2732
 4696TIP3    H235504   1.915   2.208  13.482  1.2434 -0.9538 -0.8911
 4697TIP3   OH235505   6.888   3.463  13.810 -0.1082 -0.3038 -0.3113
 4697TIP3    H135506   6.957   3.408  13.773  0.9659  0.3269  0.7051
 4697TIP3    H235507   6.891   3.543  13.758  0.2400 -0.1038  0.0070
 4698TIP3   OH235508   0.706   2.389  15.699  0.2967 -0.0315 -0.4659
 4698TIP3    H135509   0.758   2.385  15.619  0.5031  2.0979 -0.4592
 4698TIP3    H235510   0.672   2.479  15.702  1.0529  0.2279  2.2861
 4699TIP3   OH235511   7.109   2.157  11.717 -0.1705  0.3510  0.0436
 4699TIP3    H135512   7.113   2.065  11.743 -1.4288 -0.4752 -2.5279
 4699TIP3    H235513   7.176   2.165  11.649 -0.9535  1.0112 -0.6477
 4700TIP3   OH235514   0.576   3.277  12.352  0.4464  0.1858 -0.1341
 4700TIP3    H135515   0.539   3.362  12.332 -1.3094 -0.8076 -1.2588
 4700TIP3    H235516   0.668   3.294  12.370 -0.1350  2.4620  0.8507
 4701TIP3   OH235517   5.158   1.243  11.074 -0.2770  0.2579  0.0183
 4701TIP3    H135518   5.240   1.205  11.042 -0.7001 -1.4569  0.9371
 4701TIP3    H235519   5.184   1.301  11.145  0.1037 -0.5282  0.5137
 4702TIP3   OH235520   0.242   3.600  10.644  0.2875  0.2297  0.2853
 4702TIP3    H135521   0.323   3.561  10.679 -0.3693 -0.4384  1.0908
 4702TIP3    H235522   0.172   3.560  10.696 -0.4731  1.8072  0.4982
 4703TIP3   OH235523   4.875   0.390  11.129 -1.2492  0.4867 -0.3454
 4703TIP3    H135524   4.833   0.368  11.046 -1.0299 -1.9151  0.1401
 4703TIP3    H235525   4.965   0.358  11.119 -1.7970 -1.8377  1.5633
 4704TIP3   OH235526   5.362   0.094  10.582 -0.4969 -0.1076 -0.1060
 4704TIP3    H135527   5.374   0.160  10.514  0.4145  0.7641  0.8976
 4704TIP3    H235528   5.440   0.038  10.575 -1.3227 -1.1830 -1.0369
 4705TIP3   OH235529   6.405   1.664  10.302  0.1974  0.8280  0.4270
 4705TIP3    H135530   6.420   1.625  10.388 -0.7171 -0.9378 -0.1788
 4705TIP3    H235531   6.471   1.624  10.245 -0.6630  0.2400 -0.1764
 4706TIP3   OH235532   6.532   3.567  12.991 -0.5298 -0.0860 -0.6578
 4706TIP3    H135533   6.491   3.550  13.076  1.6316 -0.1368  0.4219
 4706TIP3    H235534   6.523   3.484  12.944 -3.2611  0.4648 -1.1685
 4707TIP3   OH235535   5.318   4.002  11.446  0.5468  0.5309  0.5431
 4707TIP3    H135536   5.250   3.962  11.392  1.0278  0.3906  0.0322
 4707TIP3    H235537   5.397   3.951  11.427  1.0562  1.4074  0.2548
 4708TIP3   OH235538   1.940   2.148  13.838 -0.5667 -0.1303 -0.3587
 4708TIP3    H135539   1.903   2.226  13.878 -1.2833  0.5271 -2.2562
 4708TIP3    H235540   1.909   2.076  13.893 -1.1477  0.7760  0.5272
 4709TIP3   OH235541   1.415   2.156  15.188 -0.0831 -0.5505  0.1050
 4709TIP3    H135542   1.335   2.166  15.239  0.1603 -2.1624  0.8491
 4709TIP3    H235543   1.470   2.229  15.214 -0.1321 -1.1184  1.8657
 4710TIP3   OH235544   5.345   4.773  10.595 -0.2519  0.0815 -0.3641
 4710TIP3    H135545   5.330   4.838  10.664  1.6313  0.5342 -0.3706
 4710TIP3    H235546   5.303   4.694  10.628 -0.9088  0.7796  0.5005
 4711TIP3   OH235547   6.021   5.919  10.931 -0.0146 -0.3961 -0.5921
 4711TIP3    H135548   6.101   5.947  10.887 -0.0491  0.0108 -0.3966
 4711TIP3    H235549   6.020   5.824  10.921 -0.1594 -0.2825 -1.7068
 4712TIP3   OH235550   6.788   5.224  12.963  0.1070  0.0481  0.6106
 4712TIP3    H135551   6.761   5.312  12.992  3.1268  1.1666  0.2471
 4712TIP3    H235552   6.779   5.227  12.868 -0.8285 -0.4132  0.6834
 4713TIP3   OH235553   5.978   4.652  13.233  0.0579 -0.0255  0.0855
 4713TIP3    H135554   6.023   4.732  13.259  1.2744 -0.1791 -1.4617
 4713TIP3    H235555   6.002   4.588  13.299  0.7661  0.3408  0.1860
 4714TIP3   OH235556   0.001   1.601  10.331 -0.4572 -0.6363 -0.1082
 4714TIP3    H135557   0.047   1.520  10.351  0.1533 -0.0224  1.0348
 4714TIP3    H235558   0.046   1.637  10.255  0.4724 -0.4255  0.5332
 4715TIP3   OH235559   0.302   3.959  11.027  0.4043 -0.2005 -0.2762
 4715TIP3    H135560   0.383   3.967  10.977  0.8262  1.1363  0.5735
 4715TIP3    H235561   0.331   3.927  11.113 -0.2049 -1.5946 -0.5745
 4716TIP3   OH235562   0.107   3.754  11.039 -0.1243 -0.3374  0.7391
 4716TIP3    H135563   0.131   3.724  11.126 -0.5195 -2.7755  0.0585
 4716TIP3    H235564   0.153   3.837  11.028  2.5034 -1.5610  2.0463
 4717TIP3   OH235565   6.476   2.610  14.021 -0.1703  0.1581 -0.0517
 4717TIP3    H135566   6.478   2.598  13.926  1.1797  0.5881 -0.0932
 4717TIP3    H235567   6.466   2.522  14.057 -1.4234  0.0700 -0.6125
 4718TIP3   OH235568   0.778   6.895  14.143  0.3562  0.7965 -0.3329
 4718TIP3    H135569   0.698   6.881  14.093  0.5482  2.0572 -1.0232
 4718TIP3    H235570   0.846   6.849  14.092  0.8707  3.5368 -2.2452
 4719TIP3   OH235571   6.204   5.122  12.694  0.4956  0.9476  0.4636
 4719TIP3    H135572   6.237   5.169  12.618 -1.1749  0.9827 -0.2659
 4719TIP3    H235573   6.168   5.041  12.659  1.5229  0.0380  1.4741
 4720TIP3   OH235574   6.300   4.419  12.913 -0.3107  0.3689  0.2761
 4720TIP3    H135575   6.208   4.439  12.925 -0.3921  0.3942 -0.3766
 4720TIP3    H235576   6.347   4.486  12.963 -0.6556 -0.1434  1.3062
 4721TIP3   OH235577   0.205   2.321  11.905 -0.1136  0.4378 -0.3751
 4721TIP3    H135578   0.284   2.376  11.905  1.0385 -1.1744 -3.1259
 4721TIP3    H235579   0.143   2.368  11.849 -0.6265  0.9556  0.6006
 4722TIP3   OH235580   3.780   3.229  12.432  0.2689 -0.9739  0.0781
 4722TIP3    H135581   3.768   3.138  12.406 -0.7913 -1.3669  1.8335
 4722TIP3    H235582   3.864   3.230  12.478  0.0125 -1.2056  0.5625
 4723TIP3   OH235583   5.818   4.113  12.851 -0.5938 -0.0927  0.0286
 4723TIP3    H135584   5.830   4.045  12.784 -0.8275 -0.5050  0.3939
 4723TIP3    H235585   5.893   4.171  12.841 -0.6211 -0.1609 -0.5842
 4724TIP3   OH235586   1.320   3.117  14.001 -0.5687  0.4606 -0.2954
 4724TIP3    H135587   1.353   3.196  13.958  1.4263  0.3079  0.9029
 4724TIP3    H235588   1.248   3.148  14.056 -0.0099  1.3912 -0.0753
 4725TIP3   OH235589   0.161   1.625  12.718 -0.5270  0.6275 -0.1687
 4725TIP3    H135590   0.193   1.537  12.741 -0.4746  1.3219  2.5216
 4725TIP3    H235591   0.076   1.610  12.678  0.0138 -0.7329 -0.8389
 4726TIP3   OH235592   5.760   2.828  12.110  0.0792 -0.0067  0.8284
 4726TIP3    H135593   5.851   2.829  12.080  0.0812  0.5596  0.8350
 4726TIP3    H235594   5.733   2.737  12.104 -0.0740  0.1545 -1.4208
 4727TIP3   OH235595   4.255   0.818  11.829  0.2459 -0.2449 -0.7174
 4727TIP3    H135596   4.221   0.855  11.910  0.0370  0.4639 -1.1228
 4727TIP3    H235597   4.219   0.729  11.826 -1.2397  0.3495 -0.9413
 4728TIP3   OH235598   0.683   3.131  14.369  0.0031 -0.2054 -0.1944
 4728TIP3    H135599   0.635   3.089  14.299 -0.7238 -0.6117  0.5416
 4728TIP3    H235600   0.714   3.213  14.331  0.7411 -1.0104 -1.3890
 4729TIP3   OH235601   1.001   2.465  13.206 -0.3889 -0.5348 -0.1883
 4729TIP3    H135602   0.939   2.458  13.279  0.1271 -1.1359  0.2068
 4729TIP3    H235603   0.991   2.554  13.174  0.8694  0.4312  1.9638
 4730TIP3   OH235604   0.020   2.691  10.432  0.0586 -0.2971  0.0022
 4730TIP3    H135605   0.095   2.636  10.455  1.4807  1.1215 -1.1146
 4730TIP3    H235606  -0.047   2.669  10.497  1.3324 -1.8144  0.8310
 4731TIP3   OH235607   5.135   2.283  10.166  0.5056  0.1655  0.4835
 4731TIP3    H135608   5.209   2.295  10.225 -0.2127  4.2105  0.6858
 4731TIP3    H235609   5.066   2.246  10.222  1.7914 -1.9608  0.6921
 4732TIP3   OH235610   0.221   1.704  13.634  0.2117 -0.3074 -0.4585
 4732TIP3    H135611   0.153   1.659  13.584 -0.4063 -1.8986  1.7319
 4732TIP3    H235612   0.207   1.797  13.615 -2.5561 -0.6154 -0.1122
 4733TIP3   OH235613   1.300   2.833  12.062 -0.1597 -0.1111  0.1961
 4733TIP3    H135614   1.213   2.808  12.032  0.1934 -0.2886 -0.6900
 4733TIP3    H235615   1.294   2.832  12.158 -0.7970 -1.3167  0.1495
 4734TIP3   OH235616   4.869   4.066  10.537 -0.3064  0.8926  0.0424
 4734TIP3    H135617   4.908   4.080  10.623  0.7331  1.5841 -0.5218
 4734TIP3    H235618   4.853   4.155  10.503 -0.0335  0.6428 -0.7641
 4735TIP3   OH235619   4.847   3.141   9.896  0.5113 -0.8620  0.4059
 4735TIP3    H135620   4.923   3.131   9.838  0.3983  0.8465 -0.0586
 4735TIP3    H235621   4.773   3.155   9.838  0.3699  0.6991  0.9398
 4736TIP3   OH235622   0.375   4.975  13.649 -0.0960  0.1446  0.0359
 4736TIP3    H135623   0.353   4.939  13.564  0.1177 -1.0275  0.4739
 4736TIP3    H235624   0.387   5.069  13.633  3.0543 -0.5000 -1.8437
 4737TIP3   OH235625   5.229   1.653  11.475 -0.3030  0.9589  0.5023
 4737TIP3    H135626   5.268   1.567  11.483  0.2963  1.3105  1.3293
 4737TIP3    H235627   5.163   1.643  11.405  1.8542  0.6000 -1.5395
 4738TIP3   OH235628   6.760   4.927  12.301 -0.2072 -0.1087  0.3603
 4738TIP3    H135629   6.701   4.928  12.226  1.2710  0.8388 -0.8102
 4738TIP3    H235630   6.753   5.015  12.338 -1.9105 -0.9411  2.1625
 4739TIP3   OH235631   5.740   4.039  10.570 -0.5907 -0.0408 -0.1903
 4739TIP3    H135632   5.667   3.979  10.556 -1.6595  0.8485  1.4290
 4739TIP3    H235633   5.701   4.115  10.614  1.4096  0.1111  1.4222
 4740TIP3   OH235634   5.297   4.286  11.480 -0.3268 -0.0644  0.7990
 4740TIP3    H135635   5.372   4.280  11.421 -1.8416  0.3087 -1.2400
 4740TIP3    H235636   5.301   4.206  11.532  0.5079 -0.8980 -0.5076
 4741TIP3   OH235637   5.471   1.720  12.195  0.1998  0.1633  0.2833
 4741TIP3    H135638   5.414   1.675  12.257 -1.5628  1.7622 -0.1445
 4741TIP3    H235639   5.435   1.697  12.109  0.2904  1.0510  0.0034
 4742TIP3   OH235640   0.310   3.301  12.931 -0.1430 -0.0758  0.3983
 4742TIP3    H135641   0.221   3.329  12.905 -0.3968 -0.1124  1.2278
 4742TIP3    H235642   0.296   3.241  13.003  0.6290  0.8529  1.3306
 4743TIP3   OH235643   6.370   6.616  10.796 -0.0797  0.0003 -0.3364
 4743TIP3    H135644   6.293   6.571  10.761 -0.4479  0.5573 -0.2405
 4743TIP3    H235645   6.394   6.565  10.873  0.8534 -1.3464 -1.4944
 4744TIP3   OH235646   0.784   2.977  12.987  0.6598  0.5531  0.6385
 4744TIP3    H135647   0.712   3.029  12.950  0.5041 -0.0922  0.0039
 4744TIP3    H235648   0.841   3.041  13.030 -1.2804  0.8564  2.8250
 4745TIP3   OH235649   6.023   4.187  12.111  0.0504  0.1621 -0.0712
 4745TIP3    H135650   5.943   4.136  12.095 -0.4420  1.4836 -1.9423
 4745TIP3    H235651   6.082   4.161  12.041  0.4848  0.7678  0.0689
 4746TIP3   OH235652   5.424   2.947  12.734 -0.3971  0.5516 -0.3596
 4746TIP3    H135653   5.406   3.026  12.784  0.8009  2.7850 -3.2875
 4746TIP3    H235654   5.352   2.941  12.671  0.2869  0.1806 -1.1293
 4747TIP3   OH235655   6.652   2.664  11.010 -0.1753 -0.5138  0.3725
 4747TIP3    H135656   6.728   2.640  11.062  0.8161  0.0137 -0.8003
 4747TIP3    H235657   6.687   2.682  10.923 -1.3208  1.8600  0.3426
 4748TIP3   OH235658   0.195   4.563  12.522  0.4391  0.2973 -0.2984
 4748TIP3    H135659   0.171   4.652  12.495  2.2664  0.7572 -0.4527
 4748TIP3    H235660   0.200   4.567  12.617 -1.1445 -0.0750 -0.1951
 4749TIP3   OH235661   0.098   3.772  13.628 -0.1770 -0.4093 -0.9176
 4749TIP3    H135662   0.008   3.798  13.649 -0.0505 -0.3305 -0.4641
 4749TIP3    H235663   0.143   3.855  13.612 -0.1776 -0.4468 -1.1120
 4750TIP3   OH235664   6.665   4.018  10.862 -0.3355 -0.3003 -0.0553
 4750TIP3    H135665   6.739   3.997  10.806 -1.2157 -0.4876 -1.1710
 4750TIP3    H235666   6.589   3.983  10.815 -0.8021 -3.1503  2.6598
 4751TIP3   OH235667   0.440   3.564  13.422 -0.0688 -0.0425 -0.3423
 4751TIP3    H135668   0.467   3.472  13.428  0.8991  0.2894  0.6071
 4751TIP3    H235669   0.434   3.582  13.328  1.9171 -0.4463 -0.5541
 4752TIP3   OH235670   6.100   2.113  12.167 -0.1775  1.1249  0.4936
 4752TIP3    H135671   6.076   2.117  12.260  3.0530 -0.8022  1.5114
 4752TIP3    H235672   6.185   2.068  12.167 -0.4796  0.4217 -3.4745
 4753TIP3   OH235673   5.706   3.760  14.887 -0.6800  0.4627 -0.3439
 4753TIP3    H135674   5.675   3.677  14.851  1.3670 -0.8299  0.7947
 4753TIP3    H235675   5.759   3.798  14.817 -0.2589  0.0045 -0.2785
 4754TIP3   OH235676   5.385   4.350  12.667  0.2442  0.4920 -0.3072
 4754TIP3    H135677   5.376   4.434  12.622  1.2342  1.4107  1.1759
 4754TIP3    H235678   5.466   4.313  12.632 -1.4269 -1.0007 -2.7563
 4755TIP3   OH235679   6.348   3.966  13.559 -0.1285 -0.4766 -0.1132
 4755TIP3    H135680   6.313   3.944  13.646 -0.1446  0.4235  0.1071
 4755TIP3    H235681   6.272   3.962  13.501 -0.6915  1.7798  0.4184
 4756TIP3   OH235682   6.198   4.480  14.922 -0.0281 -0.0477 -0.3475
 4756TIP3    H135683   6.258   4.554  14.911 -0.4456  0.3446  0.0438
 4756TIP3    H235684   6.123   4.501  14.867 -0.9110  0.6324  1.0951
 4757TIP3   OH235685   1.131   4.286  13.854 -0.6255 -0.5085  0.2085
 4757TIP3    H135686   1.077   4.257  13.928 -0.7415  1.3688  0.8889
 4757TIP3    H235687   1.076   4.349  13.808  0.4152  0.3031  0.0498
 4758TIP3   OH235688   0.797   4.322  15.822  0.0549 -0.0084  0.4741
 4758TIP3    H135689   0.708   4.311  15.855  0.5124  0.2236  1.8344
 4758TIP3    H235690   0.852   4.312  15.899  1.1897  0.2029 -0.2960
 4759TIP3   OH235691   6.178   3.112  15.031 -0.8448 -0.1020 -0.3507
 4759TIP3    H135692   6.173   3.130  15.125  2.1716  0.5631 -0.2565
 4759TIP3    H235693   6.172   3.198  14.990  0.9241 -0.0379 -0.5502
 4760TIP3   OH235694   4.579   1.668  12.775 -0.2465  0.0396 -0.4842
 4760TIP3    H135695   4.609   1.693  12.688 -0.5444  2.0399 -0.0371
 4760TIP3    H235696   4.643   1.707  12.835 -0.5429 -0.5556  0.2321
 4761TIP3   OH235697   0.649   2.742  12.335 -0.1014 -0.8265 -0.0481
 4761TIP3    H135698   0.597   2.718  12.411 -3.1327  0.9936 -1.4628
 4761TIP3    H235699   0.710   2.809  12.367 -2.4169  1.0709  0.5194
 4762TIP3   OH235700   6.112   2.745  14.641 -0.1193 -0.0885  0.6317
 4762TIP3    H135701   6.179   2.679  14.621 -0.0284  0.0209  0.5727
 4762TIP3    H235702   6.132   2.773  14.730 -0.0079  0.0370  0.5681
 4763TIP3   OH235703   3.445   1.482  14.276 -0.0420 -0.2679 -0.3050
 4763TIP3    H135704   3.407   1.494  14.189  1.5212 -0.8499 -1.0833
 4763TIP3    H235705   3.379   1.431  14.324 -1.0498  0.3380 -1.0410
 4764TIP3   OH235706   6.176   2.796  15.879  0.6619  0.5320  0.1821
 4764TIP3    H135707   6.185   2.763  15.790  0.1681 -0.3878  0.4666
 4764TIP3    H235708   6.114   2.868  15.872  0.3221  0.2078 -0.1564
 4765TIP3   OH235709   5.882   1.016  13.199  0.1021  0.4311 -0.3768
 4765TIP3    H135710   5.894   0.921  13.207  0.0140  0.2307 -2.3912
 4765TIP3    H235711   5.844   1.028  13.112 -1.3368  2.1991  0.4618
 4766TIP3   OH235712   0.078   2.334  14.651  0.3834 -0.5374 -0.0599
 4766TIP3    H135713   0.019   2.409  14.665  1.6546  0.4966 -0.1326
 4766TIP3    H235714   0.100   2.305  14.740  1.7765  0.7040  0.0237
 4767TIP3   OH235715   6.688   4.206  15.090 -0.0868 -0.2446 -0.0626
 4767TIP3    H135716   6.748   4.279  15.099  0.0529 -0.4546  0.7853
 4767TIP3    H235717   6.739   4.129  15.116 -0.8119 -0.3842  0.9876
 4768TIP3   OH235718   5.559   6.756  13.395 -0.2073 -0.2762 -0.0105
 4768TIP3    H135719   5.640   6.705  13.391  0.5987  0.6503  3.0648
 4768TIP3    H235720   5.518   6.730  13.478 -1.8274  1.0703 -0.3468
 4769TIP3   OH235721   5.353   0.232  12.208  0.2544  0.1455 -0.1163
 4769TIP3    H135722   5.364   0.169  12.137  0.8899 -0.0728  0.1714
 4769TIP3    H235723   5.442   0.253  12.236  0.0099 -0.0260  0.8377
 4770TIP3   OH235724   6.760   3.854  12.954 -0.1697  0.1378 -0.1611
 4770TIP3    H135725   6.762   3.768  12.996 -0.1127  0.8728  1.3780
 4770TIP3    H235726   6.841   3.858  12.903  0.2083 -0.4154  0.3931
 4771TIP3   OH235727   5.607   5.736  14.371  0.7898 -0.2451  0.2441
 4771TIP3    H135728   5.686   5.686  14.352  1.5596  0.0294  2.5178
 4771TIP3    H235729   5.631   5.789  14.447 -1.2216  0.7150  0.2313
 4772TIP3   OH235730   0.276   3.146  12.533 -0.4029 -0.1018  0.4888
 4772TIP3    H135731   0.236   3.122  12.617 -0.8100  0.0742  0.3455
 4772TIP3    H235732   0.370   3.133  12.547 -0.3359  1.2495  1.4157
 4773TIP3   OH235733   6.861   3.629  10.668  0.0243  0.4496  0.5350
 4773TIP3    H135734   6.779   3.673  10.644 -0.6497 -2.2411 -2.4952
 4773TIP3    H235735   6.843   3.590  10.753 -1.8582 -0.0390 -0.0606
 4774TIP3   OH235736   7.243   1.561  10.663  0.1154  0.0121 -0.7371
 4774TIP3    H135737   7.253   1.648  10.626  0.8678  0.5656  0.7070
 4774TIP3    H235738   7.155   1.534  10.639 -1.4502  2.6159  1.7523
 4775TIP3   OH235739   6.015   2.561  11.676  0.1207  0.3556  0.2852
 4775TIP3    H135740   5.972   2.577  11.592  1.6938  0.8082 -0.4433
 4775TIP3    H235741   5.979   2.477  11.706 -0.5236  0.2479 -0.7898
 4776TIP3   OH235742   0.079   0.512  14.051 -0.1550  0.1778 -0.2789
 4776TIP3    H135743  -0.007   0.479  14.078  0.4747 -0.1820  1.3713
 4776TIP3    H235744   0.065   0.606  14.037 -0.4843  0.4589  1.6564
 4777TIP3   OH235745   5.641   2.001  14.328  0.6669 -0.1100  0.6432
 4777TIP3    H135746   5.665   1.954  14.408 -0.0092 -2.5367 -0.4947
 4777TIP3    H235747   5.553   1.969  14.308  0.3739  1.3348 -0.4492
 4778TIP3   OH235748   5.470   2.570  12.338  0.2371  0.1792  0.3310
 4778TIP3    H135749   5.510   2.536  12.418  0.3242 -1.0874 -0.2451
 4778TIP3    H235750   5.542   2.577  12.276  0.1446  1.0207  0.3185
 4779TIP3   OH235751   1.028   1.223  11.021 -0.9416  0.0307  0.9239
 4779TIP3    H135752   1.078   1.245  11.100  0.2337  1.0426 -0.0679
 4779TIP3    H235753   1.025   1.305  10.972  0.4130 -1.1310 -1.1924
 4780TIP3   OH235754   6.663   3.090  12.891  0.3592  0.2152 -0.4970
 4780TIP3    H135755   6.683   3.086  12.984 -1.1225 -0.8944 -0.1944
 4780TIP3    H235756   6.740   3.053  12.847  0.1167 -1.4706  0.4471
 4781TIP3   OH235757   6.807   3.292  14.194  0.7322 -0.0483 -0.0248
 4781TIP3    H135758   6.889   3.250  14.169  0.4927 -0.8371  0.5017
 4781TIP3    H235759   6.739   3.241  14.149  0.4605 -0.0365  0.3674
 4782TIP3   OH235760   6.339   1.054  10.201  0.4577  0.6909  0.2093
 4782TIP3    H135761   6.366   1.012  10.282 -0.7220  1.0026  0.7846
 4782TIP3    H235762   6.313   0.983  10.143  1.1124  0.4789  0.1786
 4783TIP3   OH235763   6.246   2.137  10.904 -0.1561  0.0812 -0.3489
 4783TIP3    H135764   6.180   2.199  10.874 -0.5135 -0.1271  0.0010
 4783TIP3    H235765   6.314   2.139  10.836 -0.4353  0.4328 -0.6172
 4784TIP3   OH235766   5.778   0.162  12.973  0.0578  0.0732 -0.3034
 4784TIP3    H135767   5.705   0.141  13.032 -0.1342 -0.9104 -0.8930
 4784TIP3    H235768   5.796   0.081  12.927  2.3947 -0.0602  0.7660
 4785TIP3   OH235769   5.888   2.449  12.068 -0.1715 -0.2347  0.1969
 4785TIP3    H135770   5.840   2.513  12.015 -0.1944  0.0126  0.5143
 4785TIP3    H235771   5.847   2.453  12.154  0.5994  0.1857  0.5551
 4786TIP3   OH235772   3.589   3.372  11.399 -0.1733  0.0493 -0.5571
 4786TIP3    H135773   3.576   3.277  11.396 -0.0056 -0.1648  3.5866
 4786TIP3    H235774   3.501   3.407  11.415 -0.1794  0.6288 -1.7739
 4787TIP3   OH235775   4.400   2.436  12.120  0.9250  0.0940  0.5067
 4787TIP3    H135776   4.393   2.509  12.181  2.2866  0.1626  0.6026
 4787TIP3    H235777   4.363   2.361  12.166 -2.0455  1.0693 -0.2184
 4788TIP3   OH235778   5.869   2.988  11.787 -0.2286 -0.0805 -0.5384
 4788TIP3    H135779   5.808   3.045  11.739  0.5121 -0.3059 -1.7637
 4788TIP3    H235780   5.931   2.958  11.721  0.9475 -0.2284  0.6079
 4789TIP3   OH235781   0.127   5.593  13.454 -0.1460 -0.1073 -0.1561
 4789TIP3    H135782   0.116   5.688  13.442  0.1785  0.3012  2.4179
 4789TIP3    H235783   0.219   5.578  13.434 -0.4951 -0.1116 -1.8256
 4790TIP3   OH235784   5.526   3.356  12.315  0.0025  0.7551  0.7740
 4790TIP3    H135785   5.494   3.384  12.229  1.0175  0.8705  0.4282
 4790TIP3    H235786   5.615   3.390  12.319 -0.0801  0.8381  1.9194
 4791TIP3   OH235787   6.509   3.988  15.083  0.3417  0.1942  0.0271
 4791TIP3    H135788   6.595   4.018  15.056  1.0018 -2.2301 -0.7307
 4791TIP3    H235789   6.523   3.948  15.169  0.0464 -0.4701 -0.2274
 4792TIP3   OH235790   0.486   2.936  14.289 -0.3185  0.3208  0.5268
 4792TIP3    H135791   0.508   2.875  14.218  2.2267  1.1425  0.5467
 4792TIP3    H235792   0.392   2.926  14.301 -0.4749 -1.2512 -1.6570
 4793TIP3   OH235793   6.361   3.709  14.501  0.1691  0.3344  0.1586
 4793TIP3    H135794   6.390   3.798  14.522 -1.1035  0.6185  0.7421
 4793TIP3    H235795   6.271   3.719  14.472  0.5172 -0.5848 -1.3200
 4794TIP3   OH235796   4.053   7.274  11.465  0.5762  0.4608 -0.3660
 4794TIP3    H135797   4.040   7.222  11.544  4.9260  1.8378  1.3800
 4794TIP3    H235798   4.087   7.212  11.401 -1.1002 -0.2581 -0.5819
 4795TIP3   OH235799   3.871   1.325  12.836  0.2703 -0.4176 -0.5689
 4795TIP3    H135800   3.873   1.371  12.752  0.6742  0.4352 -0.0988
 4795TIP3    H235801   3.923   1.246  12.822  2.0792  0.7357 -0.5369
 4796TIP3   OH235802   6.853   4.697  12.200  0.1918 -0.0845  0.2917
 4796TIP3    H135803   6.888   4.730  12.118  2.9062 -0.1709  1.3726
 4796TIP3    H235804   6.824   4.775  12.247  0.9335  0.2093  0.2724
 4797TIP3   OH235805   6.802   1.638  13.264 -0.1952 -0.7028 -0.2758
 4797TIP3    H135806   6.720   1.676  13.295  1.1960  1.7686  0.5504
 4797TIP3    H235807   6.777   1.552  13.230 -3.3923  0.6223 -1.5553
 4798TIP3   OH235808   6.587   0.075  13.101  0.2170  0.2785  0.2838
 4798TIP3    H135809   6.544   0.095  13.184 -0.9236  1.1712 -0.5064
 4798TIP3    H235810   6.515   0.063  13.039  1.0467 -0.7205 -0.5059
 4799TIP3   OH235811   5.268   0.978  11.745 -0.1968 -0.8231  0.4576
 4799TIP3    H135812   5.243   1.045  11.808 -1.6221 -1.2513  0.3584
 4799TIP3    H235813   5.364   0.976  11.749  0.0329  2.7610 -1.1293
 4800TIP3   OH235814   6.218   3.435  11.695 -0.6939  0.3989  0.2290
 4800TIP3    H135815   6.265   3.351  11.699  0.1079  0.8351  0.0675
 4800TIP3    H235816   6.273   3.495  11.746 -0.6966  1.0982 -0.5978
 4801TIP3   OH235817   1.619   2.239  13.299 -0.1359 -0.4032 -0.0222
 4801TIP3    H135818   1.640   2.332  13.294 -0.1620 -0.2982  1.4886
 4801TIP3    H235819   1.601   2.213  13.209  3.5882  0.2026 -1.0202
 4802TIP3   OH235820   0.193   1.124  12.105  0.1390  0.8838 -0.5437
 4802TIP3    H135821   0.142   1.060  12.055  0.9816  1.3469 -2.0022
 4802TIP3    H235822   0.284   1.100  12.089  0.4222  0.3797  1.6419
 4803TIP3   OH235823   1.365   3.459  14.847  0.0637 -0.4485 -0.6360
 4803TIP3    H135824   1.426   3.516  14.800  0.7914 -0.3661  0.3996
 4803TIP3    H235825   1.408   3.374  14.850 -0.4135 -0.7033 -0.9748
 4804TIP3   OH235826   5.657   5.614  10.568  0.1503 -0.1596 -0.2500
 4804TIP3    H135827   5.665   5.547  10.500  0.4231 -1.0858  0.6816
 4804TIP3    H235828   5.705   5.689  10.533 -0.0189 -0.4941 -1.2344
 4805TIP3   OH235829   1.903   3.500  11.235  0.0154 -0.2605 -0.0150
 4805TIP3    H135830   1.900   3.554  11.314 -1.4247  0.5925 -0.6288
 4805TIP3    H235831   1.811   3.486  11.212  0.3872  1.4628 -2.8473
 4806TIP3   OH235832   6.486   1.080  11.512  0.9307 -0.2067 -0.4995
 4806TIP3    H135833   6.556   1.088  11.577 -0.1340  0.2606  0.6041
 4806TIP3    H235834   6.440   0.999  11.535 -0.3906  0.7477  0.2778
 4807TIP3   OH235835   0.381   1.963  12.563  0.2187  0.1355  0.2315
 4807TIP3    H135836   0.323   1.947  12.637 -1.3412  2.3400 -0.4775
 4807TIP3    H235837   0.445   2.026  12.595 -1.5372  2.4979 -0.7545
 4808TIP3   OH235838   6.612   5.204  13.470  0.2385 -0.0064  0.7438
 4808TIP3    H135839   6.573   5.216  13.384  2.5216  2.1240 -0.0373
 4808TIP3    H235840   6.644   5.113  13.469 -1.0793 -0.4805 -0.0506
 4809TIP3   OH235841   5.732   5.878  13.307  0.8778  0.3317 -0.3149
 4809TIP3    H135842   5.640   5.901  13.312  0.5723 -0.9527  0.1911
 4809TIP3    H235843   5.742   5.805  13.368  2.0097 -0.2000 -1.1210
 4810TIP3   OH235844   7.009   6.055  12.608 -0.0732  0.2493 -0.6610
 4810TIP3    H135845   6.917   6.071  12.630  0.4157  2.1416  0.0559
 4810TIP3    H235846   7.006   6.009  12.524 -1.6713  0.2242 -0.5987
 4811TIP3   OH235847   6.935   3.026  12.832 -0.6758 -0.2112  1.0542
 4811TIP3    H135848   6.989   2.995  12.905  1.1371  0.4939  0.0550
 4811TIP3    H235849   6.973   2.984  12.755 -1.2201  0.7266  0.2681
 4812TIP3   OH235850   2.631   4.409  14.921 -0.2307 -0.3662  0.1388
 4812TIP3    H135851   2.623   4.402  15.016 -0.1990  0.0736  0.1743
 4812TIP3    H235852   2.569   4.344  14.887 -0.8619  0.0744  0.4512
 4813TIP3   OH235853   2.864   4.422  11.937  0.1019 -0.2551 -0.7097
 4813TIP3    H135854   2.899   4.388  11.854 -1.0044  0.4388 -1.4743
 4813TIP3    H235855   2.938   4.467  11.978  0.4304  0.1461 -1.7261
 4814TIP3   OH235856   1.803   3.883  12.735  0.5682  0.1922  0.3186
 4814TIP3    H135857   1.832   3.939  12.664 -2.5275 -2.3346 -3.1114
 4814TIP3    H235858   1.871   3.817  12.744  1.4175  1.0611  0.4380
 4815TIP3   OH235859   0.672   5.445  11.747 -0.3608  0.0863 -0.2115
 4815TIP3    H135860   0.709   5.357  11.739 -0.8710 -0.1485 -0.0243
 4815TIP3    H235861   0.687   5.486  11.662  1.3787  0.4036  0.2282
 4816TIP3   OH235862   0.362   5.963  14.270  0.9592 -0.3544  0.4401
 4816TIP3    H135863   0.412   6.045  14.263  0.3475 -0.0555 -0.7083
 4816TIP3    H235864   0.293   5.983  14.332  0.0534  0.4218 -0.7896
 4817TIP3   OH235865   5.774   5.325  11.331  0.1060  0.2416  0.0537
 4817TIP3    H135866   5.827   5.302  11.255 -0.2659  0.8244 -0.3880
 4817TIP3    H235867   5.838   5.348  11.399  0.4454 -0.6340  0.0390
 4818TIP3   OH235868   0.479   4.758  13.203  0.0597 -0.7161  0.3895
 4818TIP3    H135869   0.550   4.723  13.258 -0.5861  1.0413  2.4280
 4818TIP3    H235870   0.423   4.683  13.185  0.8282 -1.5253  1.2900
 4819TIP3   OH235871   6.966   4.293  10.733  0.0408  0.3083 -0.4872
 4819TIP3    H135872   7.049   4.246  10.744 -0.2497 -0.0015  0.3778
 4819TIP3    H235873   6.987   4.363  10.670  1.1414  0.6868  0.2745
 4820TIP3   OH235874   1.733   3.439  12.148 -0.1947  0.2134 -0.2695
 4820TIP3    H135875   1.807   3.489  12.183  0.4158  0.2779 -1.6066
 4820TIP3    H235876   1.753   3.348  12.169  0.5541  0.1738 -1.1275
 4821TIP3   OH235877   2.252   3.438  12.302  0.2726 -0.2934 -0.4780
 4821TIP3    H135878   2.261   3.360  12.247  1.1914 -0.5011 -0.0417
 4821TIP3    H235879   2.342   3.465  12.321 -0.0244 -0.1232  0.7692
 4822TIP3   OH235880   3.341   4.180  13.179 -0.5363  0.3548  0.2562
 4822TIP3    H135881   3.400   4.113  13.145  0.3005  0.7584  0.8816
 4822TIP3    H235882   3.331   4.158  13.272  0.4426  1.5691  0.6769
 4823TIP3   OH235883   0.152   3.724  12.554 -0.0801 -0.1074 -1.2005
 4823TIP3    H135884   0.179   3.633  12.544  3.2077  0.5155  1.2295
 4823TIP3    H235885   0.128   3.733  12.646 -0.8125  1.3804 -1.5140
 4824TIP3   OH235886   0.484   6.587  15.370 -0.3296  0.1296  0.2819
 4824TIP3    H135887   0.497   6.680  15.353  0.6915 -0.0321  0.1599
 4824TIP3    H235888   0.562   6.544  15.334  0.1977 -0.5630  2.1831
 4825TIP3   OH235889   2.327   2.553  12.298  0.1473  0.3175  0.0139
 4825TIP3    H135890   2.406   2.548  12.243  0.5120 -1.1384  0.6406
 4825TIP3    H235891   2.282   2.471  12.281  0.3100 -0.1913  1.9620
 4826TIP3   OH235892   6.367   5.440  10.195  0.2023 -0.2612 -0.1329
 4826TIP3    H135893   6.357   5.407  10.106  0.8569  1.2220 -0.7680
 4826TIP3    H235894   6.323   5.526  10.194 -3.1829 -1.8462  1.9960
 4827TIP3   OH235895   0.927   5.225  11.359  0.0893 -0.0215 -0.0072
 4827TIP3    H135896   1.019   5.250  11.369 -0.2348  1.3668 -0.3671
 4827TIP3    H235897   0.880   5.280  11.421 -0.4243 -1.3250  0.7857
 4828TIP3   OH235898   6.723   0.015  12.378 -0.0203 -0.0311  0.1499
 4828TIP3    H135899   6.742  -0.014  12.289  2.0811  0.0964  0.5320
 4828TIP3    H235900   6.648  -0.038  12.405  0.4497 -1.3375 -1.0494
 4829TIP3   OH235901   7.199   5.691  12.909  0.0918  0.2360  0.2280
 4829TIP3    H135902   7.243   5.771  12.882 -0.4631  0.5511  0.2662
 4829TIP3    H235903   7.261   5.621  12.886 -0.1292  0.5377 -1.3411
 4830TIP3   OH235904   2.617   4.520  10.618  0.3760  0.4598 -0.3509
 4830TIP3    H135905   2.681   4.455  10.648 -1.4411 -0.8696  0.7516
 4830TIP3    H235906   2.613   4.584  10.689  0.7528  0.7739 -0.6050
 4831TIP3   OH235907   5.647   7.028  13.982 -0.0813  0.1079 -0.3206
 4831TIP3    H135908   5.646   6.983  14.066  1.5916 -2.1690 -1.4751
 4831TIP3    H235909   5.569   6.995  13.936 -0.2974  0.3924 -0.1616
 4832TIP3   OH235910   1.608   5.988  13.248  0.3641  0.2745  0.1073
 4832TIP3    H135911   1.633   6.012  13.337 -0.4431  1.4083  0.0345
 4832TIP3    H235912   1.547   6.056  13.221 -0.5889 -0.9013 -0.7637
 4833TIP3   OH235913   0.952   3.456  12.986 -0.4955  0.2402 -0.2006
 4833TIP3    H135914   0.963   3.533  13.041 -0.7991  0.5715 -0.5951
 4833TIP3    H235915   0.906   3.489  12.908 -1.5860 -0.5357  0.1011
 4834TIP3   OH235916   1.115   4.842  12.269 -0.0787 -0.0283 -0.4245
 4834TIP3    H135917   1.144   4.753  12.249  0.0934 -0.1328  0.2805
 4834TIP3    H235918   1.034   4.830  12.320  0.7321  0.1776  0.9431
 4835TIP3   OH235919   0.375   5.569  12.158 -0.5106  0.2320  0.3376
 4835TIP3    H135920   0.325   5.510  12.214 -0.0065  1.3491  1.9686
 4835TIP3    H235921   0.443   5.512  12.119 -1.1571 -0.6358  0.4699
 4836TIP3   OH235922   1.875   3.046  13.979  0.3669 -0.1264 -0.4227
 4836TIP3    H135923   1.816   3.075  14.049  0.6872  1.7367 -0.8763
 4836TIP3    H235924   1.962   3.075  14.007  0.5009  0.6071 -1.5534
 4837TIP3   OH235925   1.356   3.069  13.363 -0.4438 -0.0940  0.1329
 4837TIP3    H135926   1.412   3.146  13.370 -0.2165 -0.1576 -0.8960
 4837TIP3    H235927   1.385   3.011  13.433  0.2326  0.2134  0.1044
 4838TIP3   OH235928   6.792   0.407  14.020  0.4004  0.4219  0.3812
 4838TIP3    H135929   6.719   0.411  13.958  1.9614 -2.0658 -1.7120
 4838TIP3    H235930   6.810   0.314  14.031  2.4965  0.9428  1.7783
 4839TIP3   OH235931   0.700   4.959  13.491  0.3156  0.3220  0.0961
 4839TIP3    H135932   0.748   5.041  13.476  1.0088  0.2988  2.1404
 4839TIP3    H235933   0.683   4.958  13.585 -0.1522 -1.6520 -0.0017
 4840TIP3   OH235934   2.703   6.846  10.929 -0.0992 -0.2129 -0.4860
 4840TIP3    H135935   2.787   6.891  10.925 -0.7838  1.1763  0.3428
 4840TIP3    H235936   2.715   6.779  10.996  0.7489 -0.9008 -1.3128
 4841TIP3   OH235937   6.571   6.681  13.736 -0.3478  0.2693 -0.4567
 4841TIP3    H135938   6.553   6.628  13.658  0.4437 -0.0998 -0.3930
 4841TIP3    H235939   6.492   6.734  13.748 -1.0094 -0.6633 -0.7040
 4842TIP3   OH235940   2.158   5.238  12.563  0.5162  0.4796 -0.5792
 4842TIP3    H135941   2.102   5.313  12.586 -1.1679 -0.9482  0.1284
 4842TIP3    H235942   2.233   5.245  12.623 -0.4090  0.7166  0.5709
 4843TIP3   OH235943   2.054   2.897  12.106 -0.1679 -0.1112 -0.3801
 4843TIP3    H135944   2.061   2.989  12.077 -1.8054 -0.2603 -1.3343
 4843TIP3    H235945   2.115   2.891  12.180 -0.5087  1.9229  0.1234
 4844TIP3   OH235946   1.356   5.367  12.771 -0.0693  0.0652  1.1182
 4844TIP3    H135947   1.315   5.282  12.754  0.5842  0.2071 -1.2118
 4844TIP3    H235948   1.444   5.359  12.734  0.3287  1.4549  1.7331
 4845TIP3   OH235949   0.138   4.110  12.329 -0.5208 -0.2147 -0.3670
 4845TIP3    H135950   0.093   4.025  12.333 -0.8425  0.0090  1.5033
 4845TIP3    H235951   0.223   4.091  12.289  0.0227 -1.7207  1.4307
 4846TIP3   OH235952   7.213   5.148  13.898  0.7536  0.4424  0.0545
 4846TIP3    H135953   7.156   5.098  13.840  0.7235  0.2320  0.2641
 4846TIP3    H235954   7.291   5.093  13.909  1.0128  0.7471 -0.2594
 4847TIP3   OH235955   6.223   6.860  10.328  0.3168 -0.2288 -0.2284
 4847TIP3    H135956   6.192   6.950  10.334 -1.1329 -0.7854  0.8167
 4847TIP3    H235957   6.144   6.808  10.315  1.0100 -1.4615  0.3870
 4848TIP3   OH235958   1.036   5.557  13.903 -0.4223 -0.1920  0.6313
 4848TIP3    H135959   1.056   5.534  13.994  2.0542 -3.6345 -0.6773
 4848TIP3    H235960   0.953   5.514  13.885  0.6028 -2.1597  0.4138
 4849TIP3   OH235961   7.217   5.655  14.467 -0.2768 -0.1323 -0.3018
 4849TIP3    H135962   7.273   5.639  14.543  1.2980 -0.2070 -1.4309
 4849TIP3    H235963   7.209   5.570  14.424 -1.1621 -0.0943 -0.2159
 4850TIP3   OH235964   1.691   5.960  12.110  0.2281  0.6750 -0.2399
 4850TIP3    H135965   1.710   5.901  12.182  0.5578  2.4136  1.1526
 4850TIP3    H235966   1.729   5.919  12.032  0.3860 -0.9251  0.6833
 4851TIP3   OH235967   6.391   6.985  12.054 -0.1607 -0.1699 -0.4345
 4851TIP3    H135968   6.478   7.024  12.064 -0.0551 -0.7132  0.8400
 4851TIP3    H235969   6.338   7.027  12.122 -0.2310 -1.6814  0.4778
 4852TIP3   OH235970   6.294   5.528  12.423 -0.7125 -0.2698 -0.4626
 4852TIP3    H135971   6.389   5.524  12.430 -0.6776  0.6675 -0.3832
 4852TIP3    H235972   6.277   5.558  12.333 -0.9041  0.8527 -0.0562
 4853TIP3   OH235973   0.244   4.608  13.175  0.3068  0.7346  0.5259
 4853TIP3    H135974   0.260   4.532  13.231  0.7270 -0.8756 -1.7347
 4853TIP3    H235975   0.173   4.582  13.117  1.5319  1.4391 -1.3498
 4854TIP3   OH235976   3.153   6.225  12.198 -0.5909 -0.0246 -0.1861
 4854TIP3    H135977   3.140   6.248  12.106  0.1870  0.7029 -0.1173
 4854TIP3    H235978   3.216   6.289  12.230  1.1407 -1.8598  0.1753
 4855TIP3   OH235979   0.395   3.531  14.669 -0.9007  0.0930 -0.0616
 4855TIP3    H135980   0.390   3.615  14.716 -2.5468  0.8295 -1.4929
 4855TIP3    H235981   0.375   3.465  14.736 -1.3226  0.9779  0.7088
 4856TIP3   OH235982   2.788   2.181  12.943  0.0344  0.1125  0.5143
 4856TIP3    H135983   2.719   2.124  12.908 -0.5335  1.1391 -0.1073
 4856TIP3    H235984   2.764   2.268  12.910  1.2926  0.5759  0.8212
 4857TIP3   OH235985   5.291   4.476  13.508 -1.1035  0.0859 -0.4180
 4857TIP3    H135986   5.329   4.522  13.583 -1.6343  0.6695 -0.4982
 4857TIP3    H235987   5.219   4.533  13.480 -1.0554 -0.2477 -1.2215
 4858TIP3   OH235988   2.799   5.217  11.398 -0.0649 -0.0947 -0.5517
 4858TIP3    H135989   2.801   5.305  11.434 -0.5649 -0.1033 -0.4934
 4858TIP3    H235990   2.748   5.225  11.317 -1.0274 -0.5172 -0.0030
 4859TIP3   OH235991   6.903   6.625  12.105  0.4949  0.2004 -0.1464
 4859TIP3    H135992   6.947   6.569  12.168  1.0515  0.7635 -0.0247
 4859TIP3    H235993   6.875   6.701  12.155 -1.0230 -0.3539 -0.1391
 4860TIP3   OH235994   0.991   4.722  14.292 -0.0154 -0.4292  0.0572
 4860TIP3    H135995   1.010   4.725  14.386  2.3616  0.0231 -0.4034
 4860TIP3    H235996   0.996   4.814  14.265  0.7140 -0.7151 -0.7701
 4861TIP3   OH235997   3.934   4.941  12.526  0.3651  0.8268  0.3527
 4861TIP3    H135998   3.921   4.994  12.605  0.0739 -0.4651  1.1845
 4861TIP3    H235999   3.846   4.913  12.500  0.7160 -1.3330  1.3896
 4862TIP3   OH236000   1.714   4.690  12.579 -0.2959 -0.2016 -0.0757
 4862TIP3    H136001   1.665   4.770  12.596 -3.0680 -2.2497  2.0574
 4862TIP3    H236002   1.795   4.700  12.629  0.8473  2.5493 -2.3606
 4863TIP3   OH236003   2.327   7.102  11.868  0.2202  0.0334 -0.2107
 4863TIP3    H136004   2.303   7.013  11.894  2.4820 -0.5124  0.1449
 4863TIP3    H236005   2.407   7.121  11.918  0.3077  1.8893 -1.0172
 4864TIP3   OH236006   7.206   5.017  10.926 -0.1483  0.5655 -0.0499
 4864TIP3    H136007   7.112   5.003  10.918  0.3304 -2.0037 -1.8130
 4864TIP3    H236008   7.220   5.036  11.019 -2.1685 -0.9470  0.5983
 4865TIP3   OH236009   7.293   4.662  11.591  0.1463 -0.4772 -0.0734
 4865TIP3    H136010   7.210   4.702  11.565 -0.6375 -1.7539  0.4409
 4865TIP3    H236011   7.359   4.710  11.540 -0.8373  0.8913 -0.1061
 4866TIP3   OH236012   0.654   6.667  11.999 -0.1034 -0.1145  0.7121
 4866TIP3    H136013   0.689   6.631  11.917 -0.6964 -0.9350  0.8140
 4866TIP3    H236014   0.559   6.663  11.988 -0.1798  0.4085  1.1703
 4867TIP3   OH236015   2.085   4.620  11.936  0.2875  0.3740  0.5349
 4867TIP3    H136016   2.081   4.554  11.866 -1.2003  0.5368  0.4462
 4867TIP3    H236017   2.109   4.570  12.014 -2.5654 -0.6245  0.8328
 4868TIP3   OH236018   7.259   4.519  13.371 -0.6024 -0.0925  0.4274
 4868TIP3    H136019   7.306   4.439  13.346  0.1837  0.9649 -1.6065
 4868TIP3    H236020   7.199   4.535  13.297 -2.4989 -0.1224  1.9162
 4869TIP3   OH236021   1.794   4.230  12.776 -0.4780 -0.0108  0.1184
 4869TIP3    H136022   1.744   4.301  12.737 -1.1211 -0.6111 -0.1734
 4869TIP3    H236023   1.739   4.198  12.848 -0.4692 -0.5890 -0.1226
 4870TIP3   OH236024   6.728   2.556  13.298 -0.4860  0.0716  0.2021
 4870TIP3    H136025   6.658   2.520  13.352 -0.3474 -0.8973 -0.2563
 4870TIP3    H236026   6.800   2.494  13.307  0.5752  1.4053  1.2127
 4871TIP3   OH236027   6.082   1.892  15.320  0.3002 -0.3804  0.1167
 4871TIP3    H136028   6.096   1.969  15.376  0.0782 -0.8873  0.8812
 4871TIP3    H236029   6.012   1.843  15.364 -0.4984 -0.3378 -1.0831
 4872TIP3   OH236030   2.840   2.573  13.513  0.0888  0.0157  0.2900
 4872TIP3    H136031   2.908   2.559  13.447 -0.5230  0.6857 -0.4980
 4872TIP3    H236032   2.785   2.495  13.506  1.9344 -1.5411  2.3982
 4873TIP3   OH236033   6.676   5.434  11.602  0.6045 -0.4874  0.2299
 4873TIP3    H136034   6.721   5.386  11.671  1.0337  0.2377  0.4654
 4873TIP3    H236035   6.708   5.396  11.520 -1.2153 -2.5368  0.4263
 4874TIP3   OH236036   1.328   5.093  15.236  0.2493 -0.1518  0.3058
 4874TIP3    H136037   1.347   5.106  15.143  0.7830 -1.1004  0.2664
 4874TIP3    H236038   1.233   5.081  15.240  0.5087 -2.7834 -0.4858
 4875TIP3   OH236039   6.532   6.058  12.861 -0.3064 -0.1579  0.1635
 4875TIP3    H136040   6.615   6.062  12.910 -0.8221  1.4883  0.9121
 4875TIP3    H236041   6.467   6.036  12.927 -0.7883  0.6555 -0.0349
 4876TIP3   OH236042   3.859   3.871  12.706 -0.6477  0.1507 -0.3931
 4876TIP3    H136043   3.895   3.795  12.660  0.6028  0.4998 -0.0004
 4876TIP3    H236044   3.768   3.875  12.677 -0.1225 -0.1665 -2.1211
 4877TIP3   OH236045   5.716   3.835  15.422  0.1508  0.6552 -0.3734
 4877TIP3    H136046   5.673   3.834  15.336  0.7494  0.7061 -0.6772
 4877TIP3    H236047   5.660   3.890  15.476 -1.3201 -0.9966 -0.1637
 4878TIP3   OH236048   0.396   4.352  14.521 -0.0100  0.6043  0.1395
 4878TIP3    H136049   0.452   4.274  14.517  1.0180  1.3150  0.7813
 4878TIP3    H236050   0.348   4.343  14.603  1.3311  1.4813  1.0299
 4879TIP3   OH236051   4.609   5.035  12.479  0.7237 -0.3843 -0.4410
 4879TIP3    H136052   4.684   4.992  12.519  0.1632 -2.0694 -1.1502
 4879TIP3    H236053   4.642   5.069  12.396  0.6052 -1.5356 -0.9689
 4880TIP3   OH236054   6.932   4.082  11.546 -0.1040 -0.0466 -0.1959
 4880TIP3    H136055   6.960   4.069  11.455 -0.4931 -0.3369 -0.2732
 4880TIP3    H236056   6.988   4.153  11.578 -1.0271  1.1352 -1.1426
 4881TIP3   OH236057   0.305   5.778  12.931 -0.6875 -0.4060 -0.8502
 4881TIP3    H136058   0.353   5.822  13.001 -4.0363  1.4668  0.4105
 4881TIP3    H236059   0.366   5.712  12.897  2.3029  1.1204  1.3432
 4882TIP3   OH236060   0.776   3.041  11.880  0.5229 -0.7695  0.7787
 4882TIP3    H136061   0.742   3.070  11.965 -0.5453 -0.1720  0.1513
 4882TIP3    H236062   0.734   2.956  11.866 -1.0382  0.1562 -0.1874
 4883TIP3   OH236063   4.791   3.478  13.738 -0.4401 -0.4232 -0.5041
 4883TIP3    H136064   4.719   3.537  13.763 -1.1591 -0.4294 -2.4500
 4883TIP3    H236065   4.783   3.471  13.643  1.8698 -0.8062 -0.6810
 4884TIP3   OH236066   0.570   4.835   0.879  0.1614 -0.6191 -0.4237
 4884TIP3    H136067   0.663   4.831   0.854 -0.1204 -0.7844 -1.4651
 4884TIP3    H236068   0.523   4.838   0.796 -0.7439  0.2231  0.1106
 4885TIP3   OH236069   5.389   4.983  10.838 -0.1805 -0.2009 -0.2776
 4885TIP3    H136070   5.384   5.072  10.803 -1.5379 -0.6602 -1.2827
 4885TIP3    H236071   5.475   4.952  10.811 -0.0347  0.5024 -0.6381
 4886TIP3   OH236072   1.149   5.580  10.892 -0.5051 -0.3702 -0.4865
 4886TIP3    H136073   1.220   5.518  10.874  0.7372  1.2589 -1.4865
 4886TIP3    H236074   1.075   5.549  10.841  0.0959 -1.0469 -0.9478
 4887TIP3   OH236075   2.521   5.127  12.005  0.0022 -0.0630 -0.8331
 4887TIP3    H136076   2.526   5.182  12.083 -1.4459 -2.5094  1.0644
 4887TIP3    H236077   2.611   5.123  11.972  0.6814  0.7987  0.8779
 4888TIP3   OH236078   6.881   4.229   9.986 -0.0565  0.1460  0.4168
 4888TIP3    H136079   6.859   4.313   9.945  1.3446  1.3175  1.9500
 4888TIP3    H236080   6.864   4.164   9.919  0.9961  1.8837 -1.6073
 4889TIP3   OH236081   6.504   5.927  14.223  0.2690 -0.0724 -0.0005
 4889TIP3    H136082   6.432   5.919  14.161  0.3554  0.9173 -0.2409
 4889TIP3    H236083   6.463   5.959  14.304  0.4535  0.6359 -0.1821
 4890TIP3   OH236084   1.020   3.069  13.752  0.0638 -1.0145 -0.2149
 4890TIP3    H136085   1.037   2.975  13.742  3.1070 -0.7382  1.6894
 4890TIP3    H236086   1.041   3.107  13.667 -2.3600 -2.1431 -1.3799
 4891TIP3   OH236087   5.880   2.804  11.262 -0.5410 -0.0470  0.1964
 4891TIP3    H136088   5.798   2.812  11.212 -0.7626  0.9577  0.7249
 4891TIP3    H236089   5.911   2.894  11.271 -0.8281 -0.1620  2.4234
 4892TIP3   OH236090   7.004   5.058  12.910  0.0292 -0.2430 -0.1147
 4892TIP3    H136091   6.979   4.973  12.946  0.3863 -0.5851 -0.6511
 4892TIP3    H236092   6.930   5.116  12.927 -0.8536 -1.0636 -1.1024
 4893TIP3   OH236093   4.936   0.495  13.195  0.1450  0.5731 -0.7873
 4893TIP3    H136094   5.005   0.561  13.190  0.7116  0.0142 -0.3931
 4893TIP3    H236095   4.892   0.501  13.110  0.8687  0.7279 -1.1585
 4894TIP3   OH236096   6.137   6.124  12.250  0.9419  0.4175 -0.0998
 4894TIP3    H136097   6.207   6.123  12.184  0.5263  0.7572 -0.5411
 4894TIP3    H236098   6.056   6.121  12.199  0.6369 -1.2707  0.4374
 4895TIP3   OH236099   0.574   5.421  12.016  0.0795  0.3989  0.4676
 4895TIP3    H136100   0.639   5.478  12.055  1.4066 -0.8809  0.1676
 4895TIP3    H236101   0.583   5.434  11.921 -1.4597  1.6712  0.4646
 4896TIP3   OH236102   0.020   5.651  12.387 -0.3384  0.0349 -0.3824
 4896TIP3    H136103   0.009   5.743  12.364  0.2387 -0.0657 -1.0853
 4896TIP3    H236104   0.008   5.604  12.304 -0.2442 -0.4922 -0.1016
 4897TIP3   OH236105   3.192   4.701  13.024 -0.2600 -0.0654 -0.0541
 4897TIP3    H136106   3.101   4.678  13.006 -0.3612 -1.2336  1.7784
 4897TIP3    H236107   3.238   4.617  13.022  0.5204  0.3494  0.4248
 4898TIP3   OH236108   6.567   4.420  12.402 -0.4212 -0.1465  0.0244
 4898TIP3    H136109   6.541   4.502  12.361  0.0870  0.3087  0.5962
 4898TIP3    H236110   6.588   4.362  12.328  0.1854  0.5623 -0.3669
 4899TIP3   OH236111   3.972   5.676  12.955 -0.2530  0.4383 -0.0729
 4899TIP3    H136112   3.881   5.650  12.973 -0.2823 -0.0996 -0.9585
 4899TIP3    H236113   3.972   5.699  12.862  0.6884 -0.3466 -0.2781
 4900TIP3   OH236114   0.111   5.840  12.172 -1.0028 -0.2949  0.1641
 4900TIP3    H136115   0.069   5.909  12.120  0.8233 -0.8956 -2.2083
 4900TIP3    H236116   0.055   5.763  12.158 -1.3086 -0.0937  0.2656
 4901TIP3   OH236117   6.705   5.514  12.915  0.2817 -0.4017  0.3048
 4901TIP3    H136118   6.784   5.550  12.875  0.6555 -0.5946  0.8473
 4901TIP3    H236119   6.685   5.574  12.987 -0.0139 -0.4007  0.2222
 4902TIP3   OH236120   0.341   5.008  12.020 -0.6612 -0.4220  0.0024
 4902TIP3    H136121   0.426   4.991  12.060 -0.1179  0.9891 -0.5311
 4902TIP3    H236122   0.292   5.055  12.087 -0.3024  0.5516 -0.4104
 4903TIP3   OH236123   6.440   6.335  14.619  0.3958 -0.1098 -0.0193
 4903TIP3    H136124   6.472   6.250  14.648 -2.4712 -1.0559  0.5025
 4903TIP3    H236125   6.485   6.398  14.676  1.6067 -1.3410  0.4141
 4904TIP3   OH236126   0.442   4.638  11.520 -0.3473 -0.2681  0.1240
 4904TIP3    H136127   0.437   4.596  11.606  0.1218 -1.8990 -0.6193
 4904TIP3    H236128   0.506   4.708  11.530  0.5892 -1.2088  0.8193
 4905TIP3   OH236129   3.881   5.728  13.316 -0.1152  0.3589  0.1724
 4905TIP3    H136130   3.860   5.813  13.277 -1.1529  0.2835  0.5543
 4905TIP3    H236131   3.956   5.746  13.373 -0.3361  1.0235  0.2639
 4906TIP3   OH236132   1.542   6.178  10.761 -1.2187 -0.7262 -0.7480
 4906TIP3    H136133   1.499   6.172  10.676 -0.9723 -0.1521 -0.9132
 4906TIP3    H236134   1.609   6.246  10.750 -0.0273 -1.8532 -0.5954
 4907TIP3   OH236135   1.938   5.816  10.970  0.0276 -0.1401 -0.1268
 4907TIP3    H136136   1.888   5.758  11.027 -0.6424  1.0162  0.4966
 4907TIP3    H236137   1.876   5.885  10.947  1.0969  0.8745 -0.0134
 4908TIP3   OH236138   3.335   4.876  12.659  0.7430  0.0679 -0.0376
 4908TIP3    H136139   3.326   4.891  12.564  1.0393  0.9956  0.0804
 4908TIP3    H236140   3.269   4.809  12.678  0.1619  0.4188 -0.7693
 4909TIP3   OH236141   0.420   1.879  11.736  0.0450 -0.6547 -0.3525
 4909TIP3    H136142   0.369   1.957  11.714  1.5359  0.8108  1.2384
 4909TIP3    H236143   0.417   1.825  11.657 -1.6082  0.6858 -1.2287
 4910TIP3   OH236144   3.702   3.066  13.753  0.7734 -0.9027  0.1002
 4910TIP3    H136145   3.637   3.136  13.755  0.6857 -0.9779 -0.1320
 4910TIP3    H236146   3.650   2.985  13.755  0.8644 -0.9624  0.0638
 4911TIP3   OH236147   1.294   5.521  13.874 -0.2918 -0.0216  0.3740
 4911TIP3    H136148   1.353   5.527  13.798  1.3845 -1.6977  1.4966
 4911TIP3    H236149   1.208   5.542  13.838  0.8849  2.0936 -1.4047
 4912TIP3   OH236150   7.293   0.667  12.147 -0.1347  0.3708  0.2544
 4912TIP3    H136151   7.332   0.690  12.062  1.1885  1.8109  1.2203
 4912TIP3    H236152   7.204   0.701  12.142 -0.2245  0.0302 -0.7227
 4913TIP3   OH236153   1.310   6.225  10.875  0.0403 -0.1050  0.0075
 4913TIP3    H136154   1.357   6.192  10.952  2.2320 -0.7851 -1.5493
 4913TIP3    H236155   1.376   6.223  10.805 -1.4823  1.8809 -1.5439
 4914TIP3   OH236156   1.479   6.981  12.687 -0.7786  0.0129  0.1241
 4914TIP3    H136157   1.550   6.978  12.623  1.0275 -2.3590  2.1386
 4914TIP3    H236158   1.476   7.073  12.716  1.6496  0.1008  0.1847
 4915TIP3   OH236159   0.659   4.202  12.094 -0.0770 -0.5842  0.3321
 4915TIP3    H136160   0.674   4.193  12.000 -0.7232  0.0751  0.1646
 4915TIP3    H236161   0.743   4.177  12.134  1.2101  2.1392 -0.5478
 4916TIP3   OH236162   3.884   5.044  10.536 -0.4100  0.2169  0.1706
 4916TIP3    H136163   3.834   5.115  10.496 -3.9807 -0.6951  2.6717
 4916TIP3    H236164   3.913   5.080  10.620  1.2387  0.0148 -0.3108
 4917TIP3   OH236165   7.158   4.688  13.840 -0.2545  0.1691  0.0148
 4917TIP3    H136166   7.118   4.722  13.759  0.7472 -2.3726 -1.6013
 4917TIP3    H236167   7.252   4.686  13.820 -0.0484 -0.9289  1.0893
 4918TIP3   OH236168   0.148   2.793  12.523 -0.1438 -0.2999  0.0270
 4918TIP3    H136169   0.175   2.703  12.504 -1.2179 -1.1188  2.2681
 4918TIP3    H236170   0.195   2.846  12.458  2.2538 -2.2385  0.1094
 4919TIP3   OH236171   0.351   7.015  12.744  0.0097  0.0049  0.2677
 4919TIP3    H136172   0.419   6.964  12.700  0.0871 -0.6830  1.1666
 4919TIP3    H236173   0.341   6.973  12.829 -0.5318  0.9850  0.6905
 4920TIP3   OH236174   1.227   1.245  12.031 -0.3666 -0.8256  0.3618
 4920TIP3    H136175   1.194   1.215  11.946  0.3111  1.3764 -0.7208
 4920TIP3    H236176   1.199   1.337  12.037  0.0220 -0.8058  2.2981
 4921TIP3   OH236177   2.066   4.925  12.956 -0.4461  0.0952  0.4938
 4921TIP3    H136178   2.092   4.834  12.939  0.3552  0.2467  0.9155
 4921TIP3    H236179   2.002   4.944  12.888 -0.6784 -0.8098  0.4422
 4922TIP3   OH236180   0.748   5.274  11.060  0.5679 -0.1850  0.4535
 4922TIP3    H136181   0.824   5.290  11.117  0.6039  0.2210  0.2922
 4922TIP3    H236182   0.757   5.182  11.035  0.4708 -0.4078  1.2204
 4923TIP3   OH236183   7.206   3.591  12.683  0.6207  0.6684 -0.1549
 4923TIP3    H136184   7.210   3.589  12.588 -0.8998  1.2567 -0.2551
 4923TIP3    H236185   7.123   3.549  12.705  0.5063  1.3708  0.8489
 4924TIP3   OH236186   2.015   3.323  11.055 -0.4026  0.2970  0.5362
 4924TIP3    H136187   1.972   3.263  10.994  1.3912 -0.4244 -0.0479
 4924TIP3    H236188   1.954   3.331  11.128 -1.2162 -1.2558  0.0466
 4925TIP3   OH236189   0.935   4.206  12.155  0.1699  0.0472 -0.1002
 4925TIP3    H136190   1.006   4.170  12.209 -0.3127 -0.1539  0.4015
 4925TIP3    H236191   0.904   4.282  12.204 -1.7986 -1.4612  1.0451
 4926TIP3   OH236192   1.077   7.029  13.634  0.0484  0.2895 -0.7380
 4926TIP3    H136193   0.998   6.976  13.622  0.8501 -1.2721  0.7505
 4926TIP3    H236194   1.048   7.104  13.686 -0.4507 -0.2784 -0.1958
 4927TIP3   OH236195   1.931   3.741  15.301 -0.3381  0.3817  0.1116
 4927TIP3    H136196   1.917   3.676  15.370 -0.8951 -0.9303 -1.2027
 4927TIP3    H236197   2.026   3.744  15.290 -0.3384 -0.7745 -0.3177
 4928TIP3   OH236198   6.639   3.612  11.579  0.1850 -0.0166 -0.0665
 4928TIP3    H136199   6.595   3.538  11.538 -0.5263  0.7043 -0.6238
 4928TIP3    H236200   6.634   3.682  11.514  2.4072  0.0069 -0.2460
 4929TIP3   OH236201   6.659   0.055  12.680 -0.5098  0.2235 -1.0494
 4929TIP3    H136202   6.693   0.031  12.593  1.4498  0.1514 -0.2813
 4929TIP3    H236203   6.720   0.120  12.713 -0.3321 -0.9397  0.9543
 4930TIP3   OH236204   2.321   5.068  14.426  0.0924  0.5503 -0.0334
 4930TIP3    H136205   2.357   5.144  14.471 -0.6770  1.2242 -0.5515
 4930TIP3    H236206   2.355   5.074  14.337  1.2777 -0.5586  0.3180
 4931TIP3   OH236207   2.747   4.385  11.068 -0.4758  0.1924 -0.3114
 4931TIP3    H136208   2.787   4.362  10.984 -4.0032  1.0817 -2.3404
 4931TIP3    H236209   2.682   4.317  11.084 -0.0452  0.1870  1.5961
 4932TIP3   OH236210   2.265   2.515  12.891  0.1729 -0.7108 -0.0140
 4932TIP3    H136211   2.267   2.479  12.980  2.3180 -0.8946 -0.1054
 4932TIP3    H236212   2.230   2.603  12.902  0.9330 -0.5335  1.1040
 4933TIP3   OH236213   0.218   4.824  11.496 -0.0820 -0.0600 -0.0878
 4933TIP3    H136214   0.272   4.879  11.554  0.5341 -0.7356 -0.0148
 4933TIP3    H236215   0.269   4.744  11.485 -0.9600 -0.5981 -0.2442
 4934TIP3   OH236216   0.540   4.049  10.390 -0.9552 -0.6372 -0.1539
 4934TIP3    H136217   0.552   4.117  10.457  2.6939  2.1484 -3.4086
 4934TIP3    H236218   0.601   3.980  10.415 -0.7872 -0.3454  0.2571
 4935TIP3   OH236219   6.317   6.844  10.668 -0.3221 -0.0643 -0.0816
 4935TIP3    H136220   6.338   6.757  10.704 -1.5825  0.2998  1.5808
 4935TIP3    H236221   6.222   6.841  10.653 -0.5601  1.4489  1.1168
 4936TIP3   OH236222   1.285   4.947  12.512 -0.5422 -0.8132 -0.1495
 4936TIP3    H136223   1.279   5.038  12.484  0.6335 -0.9473 -0.8559
 4936TIP3    H236224   1.218   4.901  12.462 -1.6665 -0.2162  0.7713
 4937TIP3   OH236225   2.306   5.716  12.165  0.0626  0.5195 -0.1048
 4937TIP3    H136226   2.225   5.745  12.123 -1.1924  0.7459  2.3584
 4937TIP3    H236227   2.302   5.753  12.253  2.3170 -0.4235  0.4405
 4938TIP3   OH236228   0.800   6.583  15.307 -0.1318 -0.1000 -0.2315
 4938TIP3    H136229   0.815   6.663  15.358 -0.4867 -0.8832  1.1319
 4938TIP3    H236230   0.863   6.588  15.235  0.1344  1.2023  0.0763
 4939TIP3   OH236231   1.932   3.616  12.729  0.2714  0.0629  0.3600
 4939TIP3    H136232   1.876   3.563  12.785 -0.7772 -1.2980 -1.8969
 4939TIP3    H236233   2.021   3.596  12.757 -0.2205 -0.8529  1.2880
 4940TIP3   OH236234   0.060   6.640  13.159  0.4130 -0.4234  0.6687
 4940TIP3    H136235   0.024   6.669  13.075 -2.6069 -2.5009  1.1971
 4940TIP3    H236236   0.033   6.708  13.221  0.6939 -0.0468  0.3841
 4941TIP3   OH236237   7.240   4.055   0.163 -0.6304 -0.6817  0.2207
 4941TIP3    H136238   7.182   4.008   0.103  1.7228 -2.4883 -0.7203
 4941TIP3    H236239   7.298   3.988   0.198 -0.4950  0.7371  2.8180
 4942TIP3   OH236240   1.780   6.477  11.082 -0.6319  0.9690  0.4606
 4942TIP3    H136241   1.776   6.498  11.175 -0.4343 -1.6298  1.0789
 4942TIP3    H236242   1.873   6.462  11.065 -0.6941  1.2241 -0.1192
 4943TIP3   OH236243   1.784   4.679  12.288  0.0438 -0.1300  0.3050
 4943TIP3    H136244   1.829   4.601  12.320 -1.2639 -2.2067 -2.6610
 4943TIP3    H236245   1.745   4.718  12.366  1.7588 -1.7354  2.0068
 4944TIP3   OH236246   6.420   4.578  10.457  0.0399 -0.4499  0.2111
 4944TIP3    H136247   6.481   4.544  10.523 -0.2097 -0.4944  0.4225
 4944TIP3    H236248   6.444   4.533  10.376  1.6484  1.0608 -0.1884
 4945TIP3   OH236249   7.006   3.921  13.945  0.1765 -0.0317 -0.2554
 4945TIP3    H136250   7.047   4.007  13.949  0.2224 -0.0142 -0.9870
 4945TIP3    H236251   7.047   3.870  14.015 -0.6637  0.8934  0.9150
 4946TIP3   OH236252   1.954   4.432  11.588  0.3038 -0.9247  0.6099
 4946TIP3    H136253   1.947   4.525  11.566  1.4343 -0.7988  0.7681
 4946TIP3    H236254   1.921   4.426  11.678 -0.2523 -0.7613  0.4197
 4947TIP3   OH236255   1.799   6.414  12.129 -0.5329  0.0825  0.6106
 4947TIP3    H136256   1.775   6.458  12.211 -1.3654 -0.7928  0.8463
 4947TIP3    H236257   1.831   6.328  12.157  0.3998  0.2548  0.1006
 4948TIP3   OH236258   6.268   3.299  13.033  0.1651 -0.5528 -0.1874
 4948TIP3    H136259   6.280   3.352  13.112 -0.8081 -2.4776  1.3003
 4948TIP3    H236260   6.348   3.313  12.983  1.0727  0.2311  1.4244
 4949TIP3   OH236261   1.316   6.128  12.716 -0.2830  0.2411  0.2090
 4949TIP3    H136262   1.372   6.169  12.650  1.0963 -2.0631 -0.1192
 4949TIP3    H236263   1.371   6.060  12.755 -2.5356 -1.4300  0.5778
 4950TIP3   OH236264   7.222   5.201  10.732  0.3827  0.1663  0.3520
 4950TIP3    H136265   7.284   5.250  10.787  1.6998 -1.6503  0.5489
 4950TIP3    H236266   7.245   5.109  10.747 -2.8966 -0.5965  1.0076
 4951TIP3   OH236267   1.281   6.163  11.518  0.2761 -0.2073  0.1566
 4951TIP3    H136268   1.275   6.068  11.508 -1.4416 -0.2938  1.7488
 4951TIP3    H236269   1.255   6.197  11.432  1.8504 -1.1775 -0.7262
 4952TIP3   OH236270   1.757   5.199  15.429 -0.1585 -0.1558  0.8508
 4952TIP3    H136271   1.678   5.228  15.384  0.2164 -0.2214  0.1382
 4952TIP3    H236272   1.738   5.110  15.458 -0.3160 -0.2008  0.6078
 4953TIP3   OH236273   3.729   2.442  10.615 -0.0527  0.5597  0.2139
 4953TIP3    H136274   3.647   2.392  10.611  0.0381  0.2572  2.0444
 4953TIP3    H236275   3.760   2.431  10.705  2.4205  0.0313 -0.6603
 4954TIP3   OH236276   7.166   3.521  11.789 -0.1787 -0.1235  0.1153
 4954TIP3    H136277   7.135   3.452  11.732  0.5733  0.7786 -1.4311
 4954TIP3    H236278   7.094   3.583  11.794 -0.4451 -0.4666  0.6056
 4955TIP3   OH236279   2.213   3.700  13.653  0.2848 -0.2659 -0.0641
 4955TIP3    H136280   2.274   3.648  13.704  1.1487 -1.3356 -2.1275
 4955TIP3    H236281   2.253   3.787  13.649 -0.2228  0.0847  1.7542
 4956TIP3   OH236282   1.972   4.846  12.501  0.0656  0.1749 -0.1487
 4956TIP3    H136283   1.978   4.900  12.579 -1.1767 -1.3491  1.0239
 4956TIP3    H236284   1.965   4.908  12.429 -1.2070  1.5719  1.1569
 4957TIP3   OH236285   1.655   3.405  15.464 -0.0697  0.0691 -0.0465
 4957TIP3    H136286   1.718   3.358  15.519 -0.9270 -0.0124  0.8737
 4957TIP3    H236287   1.640   3.346  15.390  0.8117  0.0187 -0.1884
 4958TIP3   OH236288   3.597   3.469  13.403 -0.2795  0.3404  0.5069
 4958TIP3    H136289   3.612   3.402  13.336 -3.5669 -0.6354  0.6563
 4958TIP3    H236290   3.626   3.429  13.485  1.9658  0.8262 -0.0182
 4959TIP3   OH236291   0.875   2.929  14.433 -0.0747  0.1987 -0.2783
 4959TIP3    H136292   0.855   2.885  14.516 -1.0607 -1.3001 -1.2918
 4959TIP3    H236293   0.811   2.999  14.428  0.6683  0.9714  0.7240
 4960TIP3   OH236294   0.731   4.672  13.694  0.3409 -0.1446  0.0096
 4960TIP3    H136295   0.781   4.754  13.691  1.0106 -0.4844  1.3227
 4960TIP3    H236296   0.660   4.689  13.756 -0.1812 -0.1918 -0.5812
 4961TIP3   OH236297   6.069   4.719  14.023 -0.0077 -0.4334 -0.1305
 4961TIP3    H136298   5.994   4.696  13.969 -0.4381 -1.0922  0.7363
 4961TIP3    H236299   6.126   4.642  14.019 -0.0201 -0.4687  0.3084
 4962TIP3   OH236300   0.440   3.678  11.906 -0.2886  0.7006 -0.4937
 4962TIP3    H136301   0.532   3.656  11.913 -0.5359 -0.1101  0.2666
 4962TIP3    H236302   0.396   3.595  11.890 -1.2098  0.6108  2.2668
 4963TIP3   OH236303   0.410   2.392   0.542 -0.1135 -0.0867  0.3266
 4963TIP3    H136304   0.395   2.406   0.448  0.6307 -0.0295  0.2123
 4963TIP3    H236305   0.326   2.364   0.576  0.1146 -2.1278 -0.7414
 4964TIP3   OH236306   6.930   5.434  13.147 -0.2444  0.1264  0.5532
 4964TIP3    H136307   6.895   5.494  13.214 -0.5704  1.3961 -0.7312
 4964TIP3    H236308   6.972   5.492  13.083  0.2931 -1.0986 -0.2106
 4965TIP3   OH236309   6.911   4.435  14.073 -0.4049 -0.1384  0.5208
 4965TIP3    H136310   6.846   4.488  14.027 -1.1642 -0.4140  1.2764
 4965TIP3    H236311   6.860   4.370  14.121  0.5280 -2.0804 -1.0140
 4966TIP3   OH236312   1.182   3.854  13.217  0.5241  0.3326 -0.1091
 4966TIP3    H136313   1.243   3.911  13.170  1.2766  0.2628  0.7664
 4966TIP3    H236314   1.160   3.902  13.297  0.1684 -0.0569  0.0300
 4967TIP3   OH236315   5.875   5.672  12.891 -0.0152 -0.1005 -0.0068
 4967TIP3    H136316   5.892   5.751  12.839  1.5801 -0.5183 -0.1668
 4967TIP3    H236317   5.924   5.604  12.845 -0.7008 -1.0076  0.6132
 4968TIP3   OH236318   6.651   0.044  11.421 -0.1671 -0.0824 -0.0176
 4968TIP3    H136319   6.569  -0.002  11.437  0.3744 -0.6151  1.2901
 4968TIP3    H236320   6.624   0.130  11.388 -1.2633 -0.0429  0.9547
 4969TIP3   OH236321   0.629   4.382  10.186  0.5532  0.4606  0.1160
 4969TIP3    H136322   0.710   4.346  10.148  0.0657 -0.2725 -0.2318
 4969TIP3    H236323   0.611   4.327  10.262 -0.0704  0.1067 -0.2857
 4970TIP3   OH236324   6.615   6.812  10.744  0.4476 -0.0385  0.7754
 4970TIP3    H136325   6.630   6.721  10.770  0.2105 -0.3395 -0.0980
 4970TIP3    H236326   6.537   6.807  10.688  1.1651  0.5291 -0.2794
 4971TIP3   OH236327   0.976   5.572  11.772 -0.2665  0.0081  0.3261
 4971TIP3    H136328   0.939   5.492  11.809  0.4865 -1.0539 -1.1675
 4971TIP3    H236329   0.918   5.593  11.698 -0.1996  0.6000  0.4370
 4972TIP3   OH236330   7.223   0.054  13.638  0.1340  0.3375  0.1143
 4972TIP3    H136331   7.266   0.140  13.629  0.1567  0.6248  2.4855
 4972TIP3    H236332   7.138   0.074  13.678 -0.3977 -0.6437 -0.5010
 4973TIP3   OH236333   0.918   3.645  13.852 -0.6254  0.0069  0.1102
 4973TIP3    H136334   1.011   3.655  13.877 -1.0222  1.1558  1.2090
 4973TIP3    H236335   0.908   3.552  13.833  1.8914  0.5639 -4.7414
 4974TIP3   OH236336   1.054   4.858  10.954 -0.4101 -0.2728  0.1245
 4974TIP3    H136337   1.016   4.772  10.969  0.3855 -1.1399 -2.5298
 4974TIP3    H236338   0.979   4.917  10.948 -1.1816 -1.3726 -1.4798
 4975TIP3   OH236339   0.903   4.392  12.340 -0.5319  0.3845 -0.5187
 4975TIP3    H136340   0.962   4.377  12.413 -0.3617 -1.4259 -1.0126
 4975TIP3    H236341   0.904   4.487  12.328  0.9017  0.5287  0.6087
 4976TIP3   OH236342   2.339   4.991  12.314  0.7361 -0.3794  0.1802
 4976TIP3    H136343   2.299   4.990  12.227 -0.3543  0.6108  0.6476
 4976TIP3    H236344   2.374   4.903  12.326  0.2902 -0.7220 -0.9855
 4977TIP3   OH236345   1.571   6.358  13.079  0.2088 -0.7540 -0.1006
 4977TIP3    H136346   1.497   6.298  13.071 -0.0337 -0.4274 -0.3270
 4977TIP3    H236347   1.585   6.366  13.173  1.4362 -2.6154 -0.0938
 4978TIP3   OH236348   1.780   2.054  15.092 -0.2403 -0.2676  0.2860
 4978TIP3    H136349   1.729   2.134  15.086 -2.4155 -1.6633 -0.6641
 4978TIP3    H236350   1.715   1.984  15.092  1.5679 -2.0094  1.9839
 4979TIP3   OH236351   2.558   5.234  12.253 -0.1066  0.3064  0.2482
 4979TIP3    H136352   2.550   5.254  12.346  0.1341 -3.7941  1.2636
 4979TIP3    H236353   2.643   5.192  12.245 -0.7606 -0.7262 -1.5399
 4980TIP3   OH236354   2.655   6.818  12.024 -0.1632 -0.2463  0.0063
 4980TIP3    H136355   2.613   6.827  11.938  0.4960  1.2371 -0.1774
 4980TIP3    H236356   2.744   6.849  12.009 -0.4568  1.3595  1.5831
 4981TIP3   OH236357   4.374   5.095  10.923 -0.2423  0.0649  0.6252
 4981TIP3    H136358   4.400   5.006  10.901  0.9342  0.6051 -0.2256
 4981TIP3    H236359   4.348   5.133  10.839 -2.2038  0.0544  1.2091
 4982TIP3   OH236360   2.063   5.728  11.793  0.4880 -0.4267  0.1284
 4982TIP3    H136361   2.144   5.766  11.759 -0.1617  1.6271  0.7449
 4982TIP3    H236362   2.053   5.768  11.880 -2.1112  0.7808 -0.6728
 4983TIP3   OH236363   2.722   5.398  15.342  0.2096  0.3803 -0.3191
 4983TIP3    H136364   2.635   5.432  15.363  0.3842 -0.0318  1.0830
 4983TIP3    H236365   2.781   5.443  15.403  1.0775  1.1492 -1.7005
 4984TIP3   OH236366   1.769   3.589  13.960  0.3721 -0.0948  0.0147
 4984TIP3    H136367   1.860   3.561  13.952  1.1576  1.2484  3.4153
 4984TIP3    H236368   1.769   3.681  13.934 -0.0780 -0.1403 -0.1686
 4985TIP3   OH236369   1.507   4.987  11.983 -0.3954  0.1318  0.1164
 4985TIP3    H136370   1.580   4.964  12.040 -1.7206  0.8312  2.1140
 4985TIP3    H236371   1.468   5.065  12.022 -3.6823 -1.5731  0.4406
 4986TIP3   OH236372   2.789   4.577  12.237  0.2591  0.3643  0.4034
 4986TIP3    H136373   2.741   4.622  12.307 -0.3665  0.6737 -0.2207
 4986TIP3    H236374   2.722   4.552  12.174  0.2320 -3.6139  1.8488
 4987TIP3   OH236375   0.458   7.045  12.410 -0.4612 -0.4358  0.2433
 4987TIP3    H136376   0.552   7.028  12.418 -0.1650  0.7257 -0.7079
 4987TIP3    H236377   0.417   6.967  12.448  0.8757 -0.4569  1.7222
 4988TIP3   OH236378   0.507   2.606  12.966  0.0272 -0.4581 -0.1828
 4988TIP3    H136379   0.479   2.542  12.901  0.0418  0.5145 -1.1599
 4988TIP3    H236380   0.597   2.629  12.940  0.2104 -0.4234  0.4677
 4989TIP3   OH236381   7.287   2.267  13.907 -0.1015 -0.7957  0.1516
 4989TIP3    H136382   7.357   2.309  13.957  0.9754 -1.6977 -0.5852
 4989TIP3    H236383   7.259   2.194  13.961 -1.2929  0.2589  0.9814
 4990TIP3   OH236384   1.999   2.245  11.526  0.4489  0.0358  0.1238
 4990TIP3    H136385   2.079   2.286  11.558  2.2446 -4.1188  1.3686
 4990TIP3    H236386   2.023   2.209  11.440 -0.4803 -0.0656 -0.1017
 4991TIP3   OH236387   0.338   4.023  13.045  0.0685  0.2316  0.1410
 4991TIP3    H136388   0.398   4.075  12.991  1.3950 -0.7047  0.6680
 4991TIP3    H236389   0.304   3.956  12.985  1.1117 -0.4641  0.3097
 4992TIP3   OH236390   2.018   5.094  12.378 -0.6449 -0.2326  1.0841
 4992TIP3    H136391   1.985   5.171  12.424  1.5630  1.6811 -0.4028
 4992TIP3    H236392   2.113   5.095  12.393 -0.6083 -2.8364  1.2714
 4993TIP3   OH236393   6.274   3.875  13.175  0.3140  0.2532  0.0028
 4993TIP3    H136394   6.237   3.937  13.113  0.5894  1.6069  1.1646
 4993TIP3    H236395   6.275   3.792  13.128  0.1091  1.1566 -1.6406
 4994TIP3   OH236396   0.551   4.329  10.491  0.1285  0.7448 -0.3687
 4994TIP3    H136397   0.495   4.401  10.462  0.1267  1.6550  1.7603
 4994TIP3    H236398   0.583   4.357  10.577  1.2612 -1.1838 -0.1313
 4995TIP3   OH236399   6.765   6.583  10.810  0.5949  0.0120 -0.0397
 4995TIP3    H136400   6.836   6.577  10.746  0.3410  1.3493 -0.4524
 4995TIP3    H236401   6.807   6.617  10.889  0.6752 -0.5087  0.1451
 4996TIP3   OH236402   1.290   5.695  10.439  0.1297 -0.4281  0.5349
 4996TIP3    H136403   1.340   5.732  10.367  1.9199 -1.8108  1.0277
 4996TIP3    H236404   1.337   5.723  10.518  0.6303 -2.3925  0.9686
 4997TIP3   OH236405   7.238   4.390  11.215  0.3932 -0.3327 -0.1774
 4997TIP3    H136406   7.292   4.458  11.174 -0.2707  0.9770  1.0713
 4997TIP3    H236407   7.285   4.369  11.296 -0.1852 -0.2688  0.1766
 4998TIP3   OH236408   1.765   3.974  13.954  0.0134 -0.7241  0.5738
 4998TIP3    H136409   1.840   3.978  13.894 -0.4049 -0.6101  0.0520
 4998TIP3    H236410   1.803   3.984  14.041  0.7843 -2.1150  0.4269
 4999TIP3   OH236411   7.201   6.123  12.171 -0.7167  0.1466 -0.5222
 4999TIP3    H136412   7.141   6.159  12.105  0.5007  3.0604 -0.1195
 4999TIP3    H236413   7.282   6.172  12.159 -0.8522  1.7003  3.9879
 5000TIP3   OH236414   0.187   4.469  14.349  0.0003  0.0878  0.1254
 5000TIP3    H136415   0.229   4.448  14.265  0.4522 -1.0977  0.6408
 5000TIP3    H236416   0.251   4.443  14.415 -1.1594 -0.9052  0.8899
 5001TIP3   OH236417   0.752   4.294  15.520 -0.1522  0.1045 -0.0420
 5001TIP3    H136418   0.738   4.348  15.598 -1.0234 -0.2236  0.0278
 5001TIP3    H236419   0.834   4.247  15.538 -0.3254  0.0673  0.6530
 5002TIP3   OH236420   1.931   0.782   0.088 -0.2579  0.2029  0.3760
 5002TIP3    H136421   2.001   0.828   0.134  0.1627  0.8818 -0.9033
 5002TIP3    H236422   1.975   0.711   0.042 -0.2521  1.1222 -1.0947
 5003TIP3   OH236423   6.533   4.300  13.377 -0.0506  1.0444  0.1824
 5003TIP3    H136424   6.622   4.265  13.372 -0.7013 -0.4808 -1.0109
 5003TIP3    H236425   6.515   4.305  13.471  0.3427 -1.1313  0.3989
 5004TIP3   OH236426   1.001   4.592  11.092  0.0447  0.0400  0.6284
 5004TIP3    H136427   1.096   4.595  11.103  0.0004 -1.0658  1.4703
 5004TIP3    H236428   0.975   4.511  11.137 -1.0341 -0.8109 -1.4925
 5005TIP3   OH236429   0.475   6.389  11.888  0.2506  0.0526  0.2143
 5005TIP3    H136430   0.411   6.443  11.935 -0.3808 -0.6327  0.1542
 5005TIP3    H236431   0.495   6.439  11.809 -1.2722 -0.3619 -0.4489
 5006TIP3   OH236432   2.591   6.577  11.468 -0.6080  0.0359 -0.6028
 5006TIP3    H136433   2.676   6.535  11.451 -1.7054 -2.5401 -0.0694
 5006TIP3    H236434   2.580   6.569  11.563 -2.3585 -1.5997 -0.9073
 5007TIP3   OH236435   1.438   6.316  12.125  0.1208 -0.1454 -0.5795
 5007TIP3    H136436   1.483   6.360  12.054  1.4258  0.1647  0.4304
 5007TIP3    H236437   1.360   6.369  12.141 -0.7908 -0.8547 -2.5269
 5008TIP3   OH236438   6.888   0.453  12.744  0.0717 -0.3235  0.2815
 5008TIP3    H136439   6.807   0.496  12.718  1.4662  2.4926  0.3247
 5008TIP3    H236440   6.952   0.482  12.678  1.0777 -2.3588  0.3355
 5009TIP3   OH236441   6.401   5.448  11.643 -0.1059 -0.3596  0.0786
 5009TIP3    H136442   6.492   5.432  11.619 -0.3387  0.5909 -1.5476
 5009TIP3    H236443   6.395   5.542  11.657 -0.5764 -0.5757  1.4010
 5010TIP3   OH236444   7.040   4.911  11.265 -0.6598 -0.2964 -0.0643
 5010TIP3    H136445   7.130   4.878  11.264 -0.5478  0.0158 -0.2985
 5010TIP3    H236446   7.017   4.922  11.172 -0.5951  0.5544  0.0131
 5011TIP3   OH236447   0.265   2.499  13.286 -0.2670  0.1776 -0.1811
 5011TIP3    H136448   0.199   2.430  13.295 -0.9647  1.1053  2.1866
 5011TIP3    H236449   0.343   2.463  13.329 -0.7389  0.9675  1.3733
 5012TIP3   OH236450   6.955   4.676  13.284 -0.2357 -0.0979  0.0039
 5012TIP3    H136451   6.872   4.714  13.313 -0.9123 -1.1460 -0.5218
 5012TIP3    H236452   7.015   4.690  13.357 -0.4885  1.8713 -0.1224
 5013TIP3   OH236453   0.763   6.520  13.520 -0.1808  0.1513  0.3262
 5013TIP3    H136454   0.780   6.433  13.485 -0.1138  0.6075 -0.7767
 5013TIP3    H236455   0.735   6.504  13.611  0.7392 -0.9464  0.4215
 5014TIP3   OH236456   1.029   3.812  12.338 -0.1905  0.2263 -0.9533
 5014TIP3    H136457   1.027   3.824  12.244 -0.0924 -1.7114 -1.2335
 5014TIP3    H236458   1.115   3.844  12.365 -0.5045  1.4550 -1.4143
 5015TIP3   OH236459   0.492   4.769  13.812  0.3149 -0.7371  0.0242
 5015TIP3    H136460   0.464   4.780  13.903  0.7823 -0.5978  0.1531
 5015TIP3    H236461   0.447   4.839  13.764  0.5484 -0.4220  0.2565
 5016TIP3   OH236462   2.434   2.755  14.363  0.2046 -0.1947  0.1222
 5016TIP3    H136463   2.393   2.692  14.304 -0.5800  0.2769  0.1563
 5016TIP3    H236464   2.425   2.716  14.450 -0.7202  0.1836  0.2022
 5017TIP3   OH236465   7.165   2.143  10.739  0.2909  0.5260 -0.5635
 5017TIP3    H136466   7.128   2.214  10.791 -3.2532 -1.3951 -0.2516
 5017TIP3    H236467   7.225   2.098  10.799  0.4615  1.6043  0.0924
 5018TIP3   OH236468   4.555   4.122  14.164  0.1735 -0.4838 -0.0020
 5018TIP3    H136469   4.541   4.217  14.160 -2.3474 -0.8056  0.6349
 5018TIP3    H236470   4.578   4.105  14.255  1.8195 -0.3639 -0.3731
 5019TIP3   OH236471   1.150   5.681  13.495  0.2520  0.1102 -0.6538
 5019TIP3    H136472   1.210   5.754  13.510  0.5574 -0.4268  0.8733
 5019TIP3    H236473   1.070   5.706  13.541  0.3891 -0.5467 -0.0525
 5020TIP3   OH236474   0.507   4.543  11.775 -0.0936 -0.2906  0.0881
 5020TIP3    H136475   0.497   4.629  11.815 -1.6488 -0.4419  0.0552
 5020TIP3    H236476   0.583   4.504  11.819 -0.0019  0.6966  0.8112
 5021TIP3   OH236477   0.957   5.352  10.536  0.5344  0.0388  0.3012
 5021TIP3    H136478   1.030   5.391  10.489 -0.3817  2.1914  0.6059
 5021TIP3    H236479   0.948   5.407  10.614 -0.7784 -0.8158  0.7516
 5022TIP3   OH236480   0.736   4.196  11.020 -0.0356  0.1632 -0.0144
 5022TIP3    H136481   0.684   4.257  11.071  0.5025  1.5964 -1.1481
 5022TIP3    H236482   0.686   4.114  11.023  0.1569  0.1002  3.0546
 5023TIP3   OH236483   1.517   4.015  10.316 -1.1332 -0.8308 -0.1250
 5023TIP3    H136484   1.500   3.921  10.308  0.2895 -0.8964 -2.6852
 5023TIP3    H236485   1.441   4.056  10.274 -1.1029 -0.8665 -0.2151
 5024TIP3   OH236486   0.512   6.101  11.385  0.6772  0.3137  0.6827
 5024TIP3    H136487   0.579   6.090  11.452  1.2435  0.7348  0.1860
 5024TIP3    H236488   0.536   6.182  11.340 -0.4402  0.7307  0.8219
 5025TIP3   OH236489   6.979   1.908  13.492 -0.1332  0.0437  0.3473
 5025TIP3    H136490   6.974   1.981  13.430 -2.3391  0.2931  0.7777
 5025TIP3    H236491   6.914   1.928  13.559  1.1837 -0.9586  1.9718
 5026TIP3   OH236492   1.210   4.942  13.212 -0.1550  0.7965  0.1532
 5026TIP3    H136493   1.295   4.980  13.235  0.0204  0.6599 -0.2654
 5026TIP3    H236494   1.226   4.896  13.129 -0.3444 -0.2950  0.7187
 5027TIP3   OH236495   3.199   3.938  12.581  0.1323  0.4571  0.5566
 5027TIP3    H136496   3.218   3.934  12.487  0.2430  1.2421  0.5431
 5027TIP3    H236497   3.174   3.848  12.604  2.3032 -0.2451  0.2461
 5028TIP3   OH236498   0.908   4.049  14.379 -0.0690  0.1471 -0.2964
 5028TIP3    H136499   0.842   4.003  14.327 -0.2075  0.5175 -0.4432
 5028TIP3    H236500   0.985   3.991  14.374 -0.1921  0.0055 -0.6184
 5029TIP3   OH236501   4.338   4.079  15.066 -0.0630 -0.1874 -0.2862
 5029TIP3    H136502   4.336   4.028  14.984 -0.1474 -1.2060  0.3358
 5029TIP3    H236503   4.431   4.098  15.080  0.1349 -1.4593  0.2396
 5030TIP3   OH236504   1.461   2.449  11.276  0.3932 -0.3816 -0.4431
 5030TIP3    H136505   1.449   2.544  11.278 -1.1726 -0.5614 -0.6454
 5030TIP3    H236506   1.441   2.424  11.185  0.8922 -0.9002 -0.4150
 5031TIP3   OH236507   1.569   2.050  12.057 -0.1711  0.0644  0.2671
 5031TIP3    H136508   1.652   2.022  12.021 -0.8402 -1.4266 -0.1538
 5031TIP3    H236509   1.567   2.014  12.145  0.1155  1.0759  0.6982
 5032TIP3   OH236510   5.703   5.400  13.280 -0.2234 -0.4418 -0.1902
 5032TIP3    H136511   5.733   5.310  13.264 -0.0926 -0.5911  0.9062
 5032TIP3    H236512   5.697   5.439  13.192 -0.5145 -1.5903 -0.6876
 5033TIP3   OH236513   4.375   4.638  11.689 -0.1490 -0.1118 -0.0882
 5033TIP3    H136514   4.421   4.564  11.728 -0.9746 -0.2990  0.5317
 5033TIP3    H236515   4.442   4.683  11.637  0.7280 -0.4262  0.7532
 5034TIP3   OH236516   0.893   3.412  12.205 -0.0574 -0.1574  0.0098
 5034TIP3    H136517   0.890   3.497  12.162 -0.2559 -0.4038 -0.4671
 5034TIP3    H236518   0.899   3.349  12.133 -0.0522 -0.5531  0.3541
 5035TIP3   OH236519   0.869   5.758  12.362 -0.1346  0.1807 -0.8459
 5035TIP3    H136520   0.918   5.676  12.358  0.0985  0.2474  0.5182
 5035TIP3    H236521   0.778   5.732  12.372  0.1802  0.0692  2.1934
 5036TIP3   OH236522   2.891   4.966  11.353 -0.0586 -0.7362 -0.4533
 5036TIP3    H136523   2.862   5.051  11.387 -2.0559 -1.8058  0.6306
 5036TIP3    H236524   2.973   4.985  11.308  0.6618  1.3923  1.6620
 5037TIP3   OH236525   3.021   4.333  13.365 -0.4674 -0.2390 -0.4356
 5037TIP3    H136526   3.101   4.385  13.374  0.0951 -0.7856 -2.1791
 5037TIP3    H236527   3.018   4.282  13.445  0.2358  0.7332  0.2372
 5038TIP3   OH236528   3.286   4.489  12.217 -0.3078  0.0073  0.6933
 5038TIP3    H136529   3.266   4.558  12.280  1.9971  2.8311 -1.5304
 5038TIP3    H236530   3.216   4.495  12.151  0.2665  0.6998  0.1397
 5039TIP3   OH236531   4.514   4.800  12.846 -0.2110  0.3349 -0.0203
 5039TIP3    H136532   4.450   4.729  12.857  0.0123  0.3266  1.2355
 5039TIP3    H236533   4.483   4.847  12.769 -1.6018  0.1831  0.4241
 5040TIP3   OH236534   5.575   2.673  15.156 -0.1202  1.0193 -0.0555
 5040TIP3    H136535   5.584   2.747  15.216  1.1519 -0.3535  1.4877
 5040TIP3    H236536   5.623   2.602  15.198 -2.5724 -1.1431 -0.7728
 5041TIP3   OH236537   1.049   5.295  14.233 -0.4458 -0.8313 -0.1978
 5041TIP3    H136538   1.133   5.298  14.188 -1.0165 -2.8827 -1.4561
 5041TIP3    H236539   1.056   5.362  14.301  0.9683  1.3646 -2.3923
 5042TIP3   OH236540   1.724   4.188  13.204 -0.3198  0.0388 -0.0930
 5042TIP3    H136541   1.770   4.270  13.186 -0.4615 -0.2842 -2.0712
 5042TIP3    H236542   1.719   4.184  13.299  0.6349  1.7982  0.0630
 5043TIP3   OH236543   0.456   4.654  10.650 -0.2807  0.1336  0.2155
 5043TIP3    H136544   0.509   4.718  10.603  0.6134  0.1724  1.2555
 5043TIP3    H236545   0.515   4.579  10.664 -1.0634 -0.5823 -0.2694
 5044TIP3   OH236546   4.178   7.278  13.441  0.2312 -0.5407 -0.0167
 5044TIP3    H136547   4.120   7.264  13.367 -2.9685 -5.3873  3.0886
 5044TIP3    H236548   4.262   7.241  13.414 -0.2030 -0.0951 -2.0069
 5045TIP3   OH236549   3.003   3.007  11.961  0.1949 -0.1376  0.8003
 5045TIP3    H136550   3.048   3.038  11.883  0.8974 -0.3674  1.1090
 5045TIP3    H236551   2.988   2.914  11.945 -1.3395  0.2153  0.1483
 5046TIP3   OH236552   3.032   3.890  12.051  0.5520 -0.3038 -0.3741
 5046TIP3    H136553   2.973   3.901  12.126  0.3253 -0.9296 -0.4610
 5046TIP3    H236554   2.979   3.915  11.975  0.4319 -0.7597 -0.4413
 5047TIP3   OH236555   4.124   7.208  10.979 -0.4262  0.2582 -0.0602
 5047TIP3    H136556   4.190   7.143  10.958 -0.0694  1.0999 -1.6083
 5047TIP3    H236557   4.163   7.261  11.048 -0.4115 -0.6751  0.6524
 5048TIP3   OH236558   3.273   3.750  12.057 -0.1331 -0.4272 -0.2092
 5048TIP3    H136559   3.335   3.780  12.124 -0.3451  0.5283 -0.4360
 5048TIP3    H236560   3.197   3.808  12.067 -1.2596 -1.9550  0.4706
 5049TIP3   OH236561   3.421   7.271  11.551 -0.1863 -0.2740  0.0643
 5049TIP3    H136562   3.354   7.284  11.484 -0.3294  2.9587  0.7725
 5049TIP3    H236563   3.378   7.218  11.618 -0.9445 -1.0725 -1.0378
 5050TIP3   OH236564   0.767   4.914  11.945  0.0750  0.0348 -0.2506
 5050TIP3    H136565   0.863   4.914  11.946  0.0693  0.1086  0.6075
 5050TIP3    H236566   0.743   4.828  11.911  0.4432 -0.1718  0.0124
 5051TIP3   OH236567   1.406   4.964  11.725 -0.1204  0.1209  0.3200
 5051TIP3    H136568   1.477   4.995  11.668 -0.4081  1.2861  0.5874
 5051TIP3    H236569   1.435   4.986  11.814 -1.7235  2.4583  0.2875
 5052TIP3   OH236570   4.844   6.387  12.295 -0.0500  0.4149 -0.3044
 5052TIP3    H136571   4.774   6.321  12.289 -0.5448  0.8567  0.6437
 5052TIP3    H236572   4.852   6.405  12.388  0.5118  1.2562 -0.5164
 5053TIP3   OH236573   4.149   2.692  13.198  0.0341 -0.6030  0.3298
 5053TIP3    H136574   4.210   2.678  13.271  0.5666 -2.7708 -0.4704
 5053TIP3    H236575   4.147   2.607  13.153 -2.1655 -0.0059 -0.7411
 5054TIP3   OH236576   1.941   2.346  12.389  0.5722  0.0832 -0.2460
 5054TIP3    H136577   1.945   2.256  12.422 -0.8119  0.7833  1.9570
 5054TIP3    H236578   1.854   2.377  12.414  2.0844  2.9935  1.7047
 5055TIP3   OH236579   2.861   5.197  14.384  0.1076 -0.2092 -0.0899
 5055TIP3    H136580   2.785   5.143  14.408 -0.5443  1.2943  1.3260
 5055TIP3    H236581   2.856   5.204  14.289 -2.5774  1.3352  0.1147
 5056TIP3   OH236582   4.433   0.440  10.810 -0.0203  0.8549 -0.7362
 5056TIP3    H136583   4.345   0.478  10.806 -0.7417 -0.6097  0.3799
 5056TIP3    H236584   4.489   0.511  10.841 -1.2212  1.1929  0.7407
 5057TIP3   OH236585   2.397   6.688  13.401  0.3494  0.4137 -1.0060
 5057TIP3    H136586   2.338   6.660  13.331 -1.8786  1.8474  0.2264
 5057TIP3    H236587   2.430   6.773  13.371 -0.2272  0.8051 -0.5195
 5058TIP3   OH236588   2.716   5.466  11.481 -0.3222  0.1329 -0.0585
 5058TIP3    H136589   2.645   5.506  11.532 -0.5870  1.1670 -1.2055
 5058TIP3    H236590   2.679   5.455  11.394  0.8083  0.3119 -0.5649
 5059TIP3   OH236591   1.650   3.508  14.556  0.3521  0.4160 -0.6157
 5059TIP3    H136592   1.718   3.447  14.587 -0.0127 -1.1584 -2.7782
 5059TIP3    H236593   1.651   3.497  14.461 -1.4905  1.9468 -0.8225
 5060TIP3   OH236594   2.559   2.815  13.147  0.7896 -0.0326 -0.4590
 5060TIP3    H136595   2.642   2.863  13.143  0.1813  0.9044 -2.4165
 5060TIP3    H236596   2.515   2.836  13.065 -0.7834 -1.6473 -0.0621
 5061TIP3   OH236597   1.739   5.422  13.217 -0.4444  0.2402 -0.2655
 5061TIP3    H136598   1.723   5.345  13.271 -1.9487 -0.1673 -1.2540
 5061TIP3    H236599   1.702   5.399  13.132 -0.6443  1.9568 -0.6494
 5062TIP3   OH236600   1.682   3.540  10.933  0.5710  0.5075 -0.3848
 5062TIP3    H136601   1.634   3.622  10.937 -0.1177  0.0831  0.0569
 5062TIP3    H236602   1.686   3.510  11.024  0.3972 -0.1919 -0.6059
 5063TIP3   OH236603   3.584   3.930  11.166  0.0950 -0.2523  0.3537
 5063TIP3    H136604   3.626   3.974  11.092  0.1153 -0.8678 -0.0036
 5063TIP3    H236605   3.647   3.863  11.193 -0.5906 -1.1049 -0.1129
 5064TIP3   OH236606   2.366   5.381  11.812 -0.5425 -0.0137 -0.2151
 5064TIP3    H136607   2.363   5.408  11.904 -3.3627 -0.7575 -0.0420
 5064TIP3    H236608   2.287   5.329  11.800  1.4123 -2.6554 -2.2520
 5065TIP3   OH236609   1.693   5.413  11.776  0.1661  0.3497  0.1574
 5065TIP3    H136610   1.605   5.452  11.776 -0.6466 -1.4203 -0.7817
 5065TIP3    H236611   1.716   5.406  11.868 -0.5229  1.1814  0.4030
 5066TIP3   OH236612   2.107   5.261  10.426  0.6356 -0.4005  0.6685
 5066TIP3    H136613   2.096   5.242  10.519 -1.2978 -0.2356  0.5075
 5066TIP3    H236614   2.157   5.343  10.424 -0.2367  0.1709  1.5981
 5067TIP3   OH236615   0.779   6.669  10.896  0.1068  0.2794 -0.1660
 5067TIP3    H136616   0.779   6.764  10.899  0.1297  0.2699  0.1448
 5067TIP3    H236617   0.750   6.648  10.807 -1.9838  0.5593  0.4052
 5068TIP3   OH236618   1.660   5.622   9.952 -0.2602  0.2773 -0.4982
 5068TIP3    H136619   1.594   5.603   9.885 -0.9821 -0.0004  0.2832
 5068TIP3    H236620   1.617   5.599  10.035  0.8395  0.0356  0.0094
 5069TIP3   OH236621   1.628   3.416  15.863  0.5581 -0.1146  0.1246
 5069TIP3    H136622   1.634   3.502  15.904 -0.1119 -1.2983  2.7929
 5069TIP3    H236623   1.534   3.401  15.854  0.6873 -0.2686 -1.0251
 5070TIP3   OH236624   3.863   5.498  11.628 -0.1001 -0.0789  0.0360
 5070TIP3    H136625   3.768   5.512  11.631 -0.1492 -0.4981  0.3229
 5070TIP3    H236626   3.891   5.547  11.550 -0.6190 -0.3543 -0.3276
 5071TIP3   OH236627   2.041   5.349  11.432 -0.9358 -0.2540  0.3650
 5071TIP3    H136628   1.979   5.308  11.492 -2.0081 -0.3178 -0.7812
 5071TIP3    H236629   2.048   5.439  11.463 -0.1137 -0.7343  1.6558
 5072TIP3   OH236630   4.130   4.248  12.373 -0.0790  0.0755  0.1532
 5072TIP3    H136631   4.171   4.331  12.346 -2.3240  1.1374 -0.0977
 5072TIP3    H236632   4.127   4.197  12.292 -0.4353  0.5222 -0.1240
 5073TIP3   OH236633   3.564   7.236  11.904  0.5091  0.1833  0.2838
 5073TIP3    H136634   3.658   7.250  11.899  0.6223 -0.9502 -1.2597
 5073TIP3    H236635   3.525   7.320  11.881  1.1286  0.6764  1.0182
 5074TIP3   OH236636   3.939   4.433  10.484 -0.0757 -0.0421 -0.3195
 5074TIP3    H136637   3.858   4.383  10.496 -0.3324 -0.1254 -2.1617
 5074TIP3    H236638   4.006   4.366  10.469  0.0029  0.0851 -0.5405
 5075TIP3   OH236639   3.503   6.958  13.913  0.2703  0.3779 -0.0495
 5075TIP3    H136640   3.438   6.927  13.975  1.1930  1.8247  1.6835
 5075TIP3    H236641   3.543   6.878  13.878 -0.3397 -0.4507  1.1319
 5076TIP3   OH236642   2.234   6.527  15.121 -0.0200  0.1152  0.2378
 5076TIP3    H136643   2.328   6.540  15.107 -0.4783 -0.2637 -3.5052
 5076TIP3    H236644   2.195   6.537  15.035 -3.3738 -0.4902  1.6201
 5077TIP3   OH236645   0.400   3.934  11.686 -0.1664  0.2305  0.1537
 5077TIP3    H136646   0.334   3.929  11.617  0.8257  1.2823 -0.8829
 5077TIP3    H236647   0.351   3.916  11.767 -0.8502 -3.8133 -1.0548
 5078TIP3   OH236648   6.043   6.478  12.912  0.1326 -0.7512 -0.2111
 5078TIP3    H136649   6.060   6.528  12.832 -0.5698 -1.5540 -0.8712
 5078TIP3    H236650   6.027   6.388  12.882 -0.4074 -1.0090  0.8044
 5079TIP3   OH236651   1.672   4.184  13.775 -0.3962 -0.0960  0.4095
 5079TIP3    H136652   1.657   4.100  13.818  0.0009  0.0962  0.9280
 5079TIP3    H236653   1.676   4.248  13.847  2.7352 -0.1152  0.2996
 5080TIP3   OH236654   2.209   4.944  11.425  0.9082 -0.0335  0.6868
 5080TIP3    H136655   2.292   4.957  11.379  0.9276  1.6400  1.1663
 5080TIP3    H236656   2.146   4.996  11.376  0.1856 -1.0816  0.4911
 5081TIP3   OH236657   3.423   4.324  12.538  0.9573  0.0881  0.0422
 5081TIP3    H136658   3.396   4.324  12.446  2.4888 -1.6974 -0.4440
 5081TIP3    H236659   3.519   4.328  12.534  0.9893  0.9201  1.5890
 5082TIP3   OH236660   3.751   5.106  10.838 -0.1104 -0.5884  0.0067
 5082TIP3    H136661   3.678   5.140  10.889  0.6694 -0.3870  1.0059
 5082TIP3    H236662   3.723   5.019  10.810 -1.0604 -0.1751 -0.3224
 5083TIP3   OH236663   1.379   3.345  13.110 -0.2150  0.3345 -0.1089
 5083TIP3    H136664   1.322   3.417  13.082  0.1289  0.9531  0.7649
 5083TIP3    H236665   1.441   3.335  13.037 -1.4384 -0.3701 -1.0786
 5084TIP3   OH236666   0.349   6.757  12.444 -0.1050 -0.0261  0.2207
 5084TIP3    H136667   0.260   6.746  12.479 -0.3022  2.1395  0.4366
 5084TIP3    H236668   0.406   6.734  12.518 -0.4910  0.2935  0.6175
 5085TIP3   OH236669   2.091   3.634  15.045 -0.1085 -0.4642  0.0481
 5085TIP3    H136670   2.139   3.558  15.076  0.9979  0.2926  0.2232
 5085TIP3    H236671   2.153   3.707  15.054 -0.7173  0.2319 -1.3241
 5086TIP3   OH236672   3.026   5.058  13.436  0.0981 -0.1615 -0.2490
 5086TIP3    H136673   2.992   4.993  13.375  0.6881 -0.8224  0.1235
 5086TIP3    H236674   3.099   5.099  13.389 -0.3120  0.2800 -0.5087
 5087TIP3   OH236675   6.135   4.795  12.047  0.8311 -0.5004  0.5245
 5087TIP3    H136676   6.041   4.775  12.049  0.7866 -0.8370 -2.6265
 5087TIP3    H236677   6.176   4.716  12.014  1.8789  0.6347 -0.9689
 5088TIP3   OH236678   3.207   4.531  11.670  0.2287  0.0563 -0.3253
 5088TIP3    H136679   3.159   4.455  11.638  0.0843 -0.7938  1.8546
 5088TIP3    H236680   3.223   4.583  11.591 -1.4256 -1.2242 -1.5599
 5089TIP3   OH236681   6.312   0.312  10.986 -0.0970  0.3101  0.8785
 5089TIP3    H136682   6.391   0.259  10.977  1.0939  2.2142 -0.2661
 5089TIP3    H236683   6.273   0.313  10.899  0.2098  1.7655  0.7400
 5090TIP3   OH236684   2.837   5.527  13.438  0.5105  0.1848  0.4976
 5090TIP3    H136685   2.755   5.537  13.486  0.7727 -1.4146  1.2858
 5090TIP3    H236686   2.900   5.577  13.488  0.6517 -0.9888  1.5175
 5091TIP3   OH236687   2.171   1.634  10.953 -0.8519 -0.5170  0.0126
 5091TIP3    H136688   2.102   1.607  10.893  0.8363 -2.4787 -1.1434
 5091TIP3    H236689   2.247   1.581  10.927  0.9059  1.1285  1.6233
 5092TIP3   OH236690   3.464   3.225  12.582  0.0233 -0.0657  0.9194
 5092TIP3    H136691   3.454   3.293  12.516  3.1145  0.5197  0.9863
 5092TIP3    H236692   3.432   3.145  12.540 -0.8093  0.8552 -0.2107
 5093TIP3   OH236693   4.655   5.074  13.511  0.5693 -0.4179 -0.3960
 5093TIP3    H136694   4.654   5.131  13.588 -0.5217  1.2877 -1.6539
 5093TIP3    H236695   4.747   5.052  13.499  0.8254 -0.1488  0.9905
 5094TIP3   OH236696   2.448   5.343  13.132  0.1679  0.3839 -0.6370
 5094TIP3    H136697   2.512   5.276  13.154  1.5823  2.5296  2.0441
 5094TIP3    H236698   2.445   5.343  13.036  1.9344 -1.7901 -0.7252
 5095TIP3   OH236699   6.778   2.765  14.334  0.1891  0.7484 -0.0522
 5095TIP3    H136700   6.822   2.680  14.340 -0.7383  0.4255  3.0213
 5095TIP3    H236701   6.685   2.744  14.324  0.0204  1.4191  0.0599
 5096TIP3   OH236702   3.297   4.487  11.268  0.1310  0.0240  0.1496
 5096TIP3    H136703   3.229   4.499  11.202  0.0351  0.8521  0.3942
 5096TIP3    H236704   3.340   4.405  11.243 -0.9555 -0.5050  0.0046
 5097TIP3   OH236705   1.187   0.968  12.643  0.2269 -0.0777 -0.1112
 5097TIP3    H136706   1.119   1.033  12.623 -1.0633 -0.4041  2.9836
 5097TIP3    H236707   1.269   1.018  12.640 -0.2769  0.6739 -2.2668
 5098TIP3   OH236708   2.334   2.902  11.930  0.1317  0.1912 -0.5768
 5098TIP3    H136709   2.313   2.983  11.977 -0.6112 -0.4950  0.2750
 5098TIP3    H236710   2.371   2.845  11.997  0.0285 -0.4236 -1.0463
 5099TIP3   OH236711   4.957   6.717  11.903 -0.4877  0.0191 -0.1550
 5099TIP3    H136712   4.952   6.679  11.991 -0.4978 -0.1031 -0.2086
 5099TIP3    H236713   4.876   6.769  11.895 -0.5310 -0.0431 -0.1270
 5100TIP3   OH236714   1.137   0.995  11.341  0.1143 -0.2246 -0.4957
 5100TIP3    H136715   1.164   0.951  11.260 -2.4007 -0.7619 -1.0726
 5100TIP3    H236716   1.199   1.067  11.351  0.8427 -0.5310 -2.5644
 5101TIP3   OH236717   1.049   3.036  11.404  0.0041  0.4369  0.8881
 5101TIP3    H136718   1.115   3.020  11.472  0.3118  2.4058  1.1010
 5101TIP3    H236719   1.026   3.128  11.416  0.8421  1.1240 -2.3661
 5102TIP3   OH236720   1.050   4.054  11.918  0.2271 -0.2283  0.0454
 5102TIP3    H136721   1.048   4.042  12.013  0.1823  0.2349  0.1005
 5102TIP3    H236722   1.117   4.120  11.902 -0.1902  0.1429 -0.1959
 5103TIP3   OH236723   1.577   3.697  13.178 -0.5386  0.0489  0.4541
 5103TIP3    H136724   1.588   3.770  13.117  1.2795 -0.1166  0.5531
 5103TIP3    H236725   1.574   3.619  13.123  0.5971 -0.0584  0.5444
 5104TIP3   OH236726   1.939   6.071  13.489 -0.5028  0.5247  0.6807
 5104TIP3    H136727   1.955   5.994  13.435  0.1508  0.9022  0.3457
 5104TIP3    H236728   1.962   6.043  13.578 -2.3818 -0.3634  0.9317
 5105TIP3   OH236729   6.575   0.060  13.792 -0.2950  0.2198  0.1098
 5105TIP3    H136730   6.509   0.102  13.736  0.0439  1.2011  0.4298
 5105TIP3    H236731   6.530  -0.014  13.831 -0.6393 -0.2881 -1.2033
 5106TIP3   OH236732   3.562   4.625  14.848  0.0391 -0.1718  1.0098
 5106TIP3    H136733   3.584   4.583  14.931 -1.2208 -2.3386  0.2830
 5106TIP3    H236734   3.614   4.578  14.783 -0.0858  0.5478  0.3836
 5107TIP3   OH236735   3.942   5.029  13.918 -0.4465  0.3636  0.1835
 5107TIP3    H136736   3.978   4.941  13.915  0.5412  0.7553  0.4756
 5107TIP3    H236737   4.018   5.087  13.913 -1.1418  1.2117 -0.9466
 5108TIP3   OH236738   1.644   1.293  15.718 -0.1065 -0.2918 -0.3930
 5108TIP3    H136739   1.681   1.360  15.776 -0.2531  0.5586 -1.2737
 5108TIP3    H236740   1.662   1.211  15.763 -0.1838  0.3553  0.8405
 5109TIP3   OH236741   3.414   2.463  14.078  0.5426  0.2070  0.2625
 5109TIP3    H136742   3.460   2.547  14.078  0.0290  0.4934 -1.2355
 5109TIP3    H236743   3.386   2.452  14.169 -0.4200  2.2357  0.2531
 5110TIP3   OH236744   2.546   4.122  11.213 -0.4627  0.1605  0.4576
 5110TIP3    H136745   2.472   4.103  11.270 -1.1208 -1.4481 -0.8790
 5110TIP3    H236746   2.508   4.125  11.125  1.4444 -3.2553 -0.5357
 5111TIP3   OH236747   1.158   3.259  14.736 -0.0010  0.0992  0.5649
 5111TIP3    H136748   1.135   3.282  14.646 -0.1637 -0.3249  0.4974
 5111TIP3    H236749   1.254   3.258  14.737  0.0001  0.0570  0.3813
 5112TIP3   OH236750   3.282   1.264  11.439  0.1670  0.7859 -0.2101
 5112TIP3    H136751   3.273   1.172  11.463  0.7356  1.4081  2.5644
 5112TIP3    H236752   3.225   1.274  11.362 -0.7903 -1.6104  0.1285
 5113TIP3   OH236753   2.059   4.778  14.214 -0.0934  0.3198  0.5637
 5113TIP3    H136754   1.979   4.778  14.160  0.5847  0.0057 -0.4651
 5113TIP3    H236755   2.066   4.867  14.246  0.4916  1.0119 -1.4024
 5114TIP3   OH236756   2.308   6.078  11.250  0.5339 -0.3350  0.1095
 5114TIP3    H136757   2.263   6.084  11.334  0.7529 -2.1959  0.3895
 5114TIP3    H236758   2.354   5.995  11.254  0.0158 -0.7637 -2.1033
 5115TIP3   OH236759   3.230   2.071  14.021  0.4556  0.2149  0.5440
 5115TIP3    H136760   3.281   2.083  14.101  0.8234 -0.2921  0.3860
 5115TIP3    H236761   3.248   1.981  13.994 -1.0636 -0.1959  0.8637
 5116TIP3   OH236762   2.465   2.976  12.933  0.1929  0.1434  0.1720
 5116TIP3    H136763   2.433   2.920  12.861 -2.5442  2.7822 -0.7808
 5116TIP3    H236764   2.529   3.034  12.892 -0.8750  1.2006 -0.0334
 5117TIP3   OH236765   2.655   5.507  10.852 -0.3623  0.2538 -0.1032
 5117TIP3    H136766   2.602   5.538  10.779  0.7233 -0.2092 -1.1150
 5117TIP3    H236767   2.745   5.529  10.827 -0.0371  0.6998  1.4120
 5118TIP3   OH236768   2.136   4.210  13.180 -0.3763  0.1347 -0.3754
 5118TIP3    H136769   2.187   4.164  13.247  3.3754  2.7919 -1.2641
 5118TIP3    H236770   2.139   4.151  13.104  1.3805  0.2130 -0.3925
 5119TIP3   OH236771   2.114   5.207  13.729  0.5901 -0.7122 -0.1748
 5119TIP3    H136772   2.178   5.270  13.697 -0.7371  0.7061 -0.1066
 5119TIP3    H236773   2.160   5.158  13.798  1.4208  0.6829  0.2772
 5120TIP3   OH236774   2.358   5.319  11.480  0.9022 -0.6635  0.5973
 5120TIP3    H136775   2.404   5.286  11.557 -0.0360 -2.5680  0.3871
 5120TIP3    H236776   2.266   5.300  11.497  0.2694  2.2610  0.6010
 5121TIP3   OH236777   0.020   6.765  12.095 -0.7970 -0.1737 -0.3914
 5121TIP3    H136778  -0.009   6.734  12.181 -1.4053  2.7295  0.5231
 5121TIP3    H236779  -0.045   6.731  12.034 -2.1071  0.2858  0.7199
 5122TIP3   OH236780   2.277   4.523  10.611 -0.0288  0.0972 -0.7058
 5122TIP3    H136781   2.346   4.484  10.665  2.5345  2.7046 -1.9204
 5122TIP3    H236782   2.239   4.591  10.665 -0.0070  0.2497 -0.8806
 5123TIP3   OH236783   2.950   4.748  10.333  0.1594 -0.4069 -0.5072
 5123TIP3    H136784   2.895   4.674  10.358  0.7689 -0.1575  1.7636
 5123TIP3    H236785   2.890   4.822  10.325 -0.0885 -0.5303  0.1578
 5124TIP3   OH236786   0.724   5.767  13.157 -0.1043 -0.2297  0.6565
 5124TIP3    H136787   0.652   5.825  13.131  0.9884  0.9247  0.2103
 5124TIP3    H236788   0.803   5.814  13.134  0.8285 -1.0823  2.0304
 5125TIP3   OH236789   1.808   6.874  10.075 -0.1284 -0.0684 -0.5923
 5125TIP3    H136790   1.903   6.884  10.086  0.0317 -0.8680 -1.1743
 5125TIP3    H236791   1.798   6.846   9.984 -0.8263 -1.2419 -0.1593
 5126TIP3   OH236792   2.360   5.232  10.619 -0.0554  0.1618 -0.3146
 5126TIP3    H136793   2.274   5.226  10.660  0.0388  2.5228  0.3201
 5126TIP3    H236794   2.418   5.184  10.678 -0.6621 -0.1128  0.0667
 5127TIP3   OH236795   2.617   5.284  12.550  0.5615 -0.0755 -0.1880
 5127TIP3    H136796   2.575   5.285  12.636  0.5103 -1.2564 -0.1887
 5127TIP3    H236797   2.687   5.349  12.557  1.4811 -1.1786  1.2233
 5128TIP3   OH236798   0.063   0.191  11.638  0.0399  0.4770 -0.2305
 5128TIP3    H136799   0.020   0.126  11.693  1.5320  0.5990  1.1046
 5128TIP3    H236800   0.058   0.155  11.550 -2.1636  0.1728 -0.0107
 5129TIP3   OH236801   2.455   3.458  11.116  0.2774  0.2740  0.6733
 5129TIP3    H136802   2.492   3.458  11.028  1.8438  0.6939  1.3006
 5129TIP3    H236803   2.381   3.398  11.112 -0.5313  1.3889 -1.2773
 5130TIP3   OH236804   3.349   3.913  10.496 -0.6112  0.4098  0.4260
 5130TIP3    H136805   3.375   3.989  10.547 -0.4414 -0.4277  1.6071
 5130TIP3    H236806   3.409   3.844  10.524 -0.8036 -0.1777 -0.5887
 5131TIP3   OH236807   3.766   6.031  11.979 -0.0810  0.1169  0.2359
 5131TIP3    H136808   3.706   5.970  11.938  0.4393 -1.5495  1.8919
 5131TIP3    H236809   3.742   6.031  12.071  1.1165  1.0011  0.5676
 5132TIP3   OH236810   4.526   6.333  12.242  0.0405  0.1848 -0.5517
 5132TIP3    H136811   4.577   6.255  12.262 -1.3780 -0.7151 -0.3597
 5132TIP3    H236812   4.545   6.351  12.150 -0.2351 -0.8797 -0.8262
 5133TIP3   OH236813   2.770   3.895  11.792  0.3242 -0.0996  0.0513
 5133TIP3    H136814   2.752   3.889  11.885  1.8306 -0.7532  0.3072
 5133TIP3    H236815   2.767   3.988  11.772  2.4323  0.2433  1.2432
 5134TIP3   OH236816   6.733   3.136  15.538  0.0793 -0.1211 -0.3048
 5134TIP3    H136817   6.796   3.143  15.466 -0.7475 -0.8809 -1.1138
 5134TIP3    H236818   6.651   3.168  15.501 -0.4734 -1.0036  0.1469
 5135TIP3   OH236819   1.196   6.293  11.286 -0.1269 -0.2621  0.0583
 5135TIP3    H136820   1.230   6.368  11.238 -1.2201  1.3276  1.6866
 5135TIP3    H236821   1.102   6.294  11.271 -0.5861  0.6699  2.7064
 5136TIP3   OH236822   0.836   7.199  12.710 -0.1827 -0.1503 -0.0161
 5136TIP3    H136823   0.863   7.274  12.657  0.4006 -1.0603 -1.0169
 5136TIP3    H236824   0.741   7.195  12.699 -0.0144 -0.6118 -1.3828
 5137TIP3   OH236825   1.522   5.390  12.155 -0.4841 -0.3998  0.4313
 5137TIP3    H136826   1.476   5.454  12.100 -1.3269 -0.2116  1.3291
 5137TIP3    H236827   1.612   5.390  12.122 -0.8473  0.1071 -0.5852
 5138TIP3   OH236828   7.085   5.165  11.383  0.1723 -0.3465  0.5470
 5138TIP3    H136829   7.081   5.098  11.315  0.6628  0.0591  0.1194
 5138TIP3    H236830   7.125   5.120  11.458  2.1463 -0.0622 -0.3067
 5139TIP3   OH236831   1.919   6.423  13.853  0.2187  0.1501 -0.6534
 5139TIP3    H136832   1.933   6.517  13.840  0.5084 -0.0608 -2.0147
 5139TIP3    H236833   2.001   6.382  13.823 -0.1019 -0.5618 -0.5748
 5140TIP3   OH236834   2.080   3.337  13.071  0.4221  0.6443  0.1442
 5140TIP3    H136835   2.173   3.341  13.051  0.6747 -0.6271  0.9831
 5140TIP3    H236836   2.076   3.338  13.167 -0.4955  1.8270  0.1131
 5141TIP3   OH236837   0.310   5.907  11.290  0.4495  0.2636 -0.0968
 5141TIP3    H136838   0.367   5.984  11.293  0.7086  0.0424  0.6666
 5141TIP3    H236839   0.323   5.864  11.374 -0.6269  0.0488 -0.0364
 5142TIP3   OH236840   3.947   4.298  13.322  0.0807  0.0718 -0.6482
 5142TIP3    H136841   3.977   4.332  13.238  1.0542  1.3409  0.2055
 5142TIP3    H236842   4.027   4.279  13.370 -0.4741  1.0497  0.6712
 5143TIP3   OH236843   3.307   2.305  13.855  0.1685 -0.7194  0.3367
 5143TIP3    H136844   3.380   2.348  13.899 -0.1997  0.6736 -0.3820
 5143TIP3    H236845   3.267   2.250  13.923  0.1996  0.6432  1.4895
 5144TIP3   OH236846   0.979   1.672  15.743  0.2981 -0.3051 -0.3551
 5144TIP3    H136847   0.953   1.690  15.833 -1.9328  1.9392 -1.3568
 5144TIP3    H236848   1.073   1.687  15.741  0.1715  0.8403  1.3511
 5145TIP3   OH236849   2.093   4.227  11.867 -0.1869 -0.2157 -0.5447
 5145TIP3    H136850   2.081   4.176  11.947 -0.9759 -1.9410 -1.7127
 5145TIP3    H236851   2.012   4.277  11.859 -0.7541 -1.2005 -1.0500
 5146TIP3   OH236852   2.055   4.275  12.367  0.0582  0.6137 -0.6687
 5146TIP3    H136853   1.974   4.325  12.354 -0.1749  0.3415 -0.2731
 5146TIP3    H236854   2.075   4.286  12.460  0.4346  0.6132 -0.7494
 5147TIP3   OH236855   3.378   3.943  14.538  0.2072 -0.0001  0.3800
 5147TIP3    H136856   3.332   3.997  14.602 -0.5823 -0.5524  0.2833
 5147TIP3    H236857   3.375   3.994  14.457  0.3840  0.2773  0.5463
 5148TIP3   OH236858   4.918   4.218  13.502 -0.3588 -0.2510 -0.7390
 5148TIP3    H136859   4.884   4.299  13.462 -0.5125 -0.8357 -1.8159
 5148TIP3    H236860   4.863   4.149  13.465 -1.5613 -0.6623  1.7423
 5149TIP3   OH236861   1.678   5.683  11.199  0.5378 -0.6149 -0.1260
 5149TIP3    H136862   1.633   5.736  11.133  2.0688 -0.3590 -0.9944
 5149TIP3    H236863   1.622   5.687  11.275  0.6142  2.3374 -0.1583
 5150TIP3   OH236864   1.815   3.586  12.483  0.4322 -0.3880  0.1494
 5150TIP3    H136865   1.864   3.619  12.558 -0.3308 -2.2652  1.5330
 5150TIP3    H236866   1.875   3.523  12.441 -0.1183 -1.3666  0.8068
 5151TIP3   OH236867   2.547   6.889  14.403  0.1383 -0.2933 -0.0417
 5151TIP3    H136868   2.602   6.961  14.373  1.0181 -0.1122  1.9548
 5151TIP3    H236869   2.464   6.929  14.425  0.3048 -0.0377  0.1217
 5152TIP3   OH236870   3.310   3.664  11.717 -0.9050 -0.3640 -0.4696
 5152TIP3    H136871   3.258   3.662  11.637 -0.8586  0.2396 -0.5134
 5152TIP3    H236872   3.392   3.707  11.692 -1.4654  1.1408  0.2483
 5153TIP3   OH236873   0.734   6.813  11.591  0.1157 -0.3968  0.0727
 5153TIP3    H136874   0.738   6.885  11.655 -0.2611  0.4638 -0.8628
 5153TIP3    H236875   0.663   6.838  11.532 -0.2976 -1.7545 -0.0029
 5154TIP3   OH236876   3.707   2.623  15.403  0.7857 -0.3311  0.0722
 5154TIP3    H136877   3.694   2.549  15.462 -1.5125 -0.1746 -0.1997
 5154TIP3    H236878   3.739   2.694  15.460  0.0056 -0.6164  0.8704
 5155TIP3   OH236879   2.636   4.654  12.496 -0.1114  0.2970 -0.5466
 5155TIP3    H136880   2.593   4.645  12.581  0.0706  0.8961 -0.3932
 5155TIP3    H236881   2.564   4.643  12.433 -0.0599 -1.2979 -0.3560
 5156TIP3   OH236882   4.186   6.041  10.242 -0.3360 -0.6542  0.2244
 5156TIP3    H136883   4.205   5.956  10.200  1.3355  0.6258 -1.7169
 5156TIP3    H236884   4.252   6.100  10.205 -2.1012  1.7093  0.8233
 5157TIP3   OH236885   4.124   6.127  13.192  0.5346  0.0545  0.1856
 5157TIP3    H136886   4.216   6.128  13.219  0.3858 -0.8050  0.7237
 5157TIP3    H236887   4.127   6.151  13.099  1.0366  3.2028  0.9653
 5158TIP3   OH236888   3.968   4.956  12.121 -0.0884 -0.0465  0.4332
 5158TIP3    H136889   4.063   4.967  12.120 -0.2057  1.0448  0.9124
 5158TIP3    H236890   3.940   4.986  12.035  0.2354 -2.8059 -0.7148
 5159TIP3   OH236891   7.274   5.602  12.101  0.2185  0.1230  0.1046
 5159TIP3    H136892   7.298   5.638  12.016  1.4601  2.3232  1.3448
 5159TIP3    H236893   7.312   5.514  12.101  0.3453  0.1577 -1.5495
 5160TIP3   OH236894   1.212   5.844  10.024 -0.3295 -0.2580  0.6193
 5160TIP3    H136895   1.208   5.929   9.981 -0.5032 -0.4451  0.2632
 5160TIP3    H236896   1.123   5.811  10.021 -0.2251 -0.5383  0.5830
 5161TIP3   OH236897   3.181   5.793  14.188 -0.0089 -0.0742  0.1979
 5161TIP3    H136898   3.249   5.836  14.136  0.4299 -2.4023 -1.1935
 5161TIP3    H236899   3.101   5.806  14.138 -0.0985  0.0983  0.3791
 5162TIP3   OH236900   3.289   5.661  11.332  0.1695  0.1347 -0.3624
 5162TIP3    H136901   3.343   5.675  11.410  2.6545  0.6154 -2.0833
 5162TIP3    H236902   3.334   5.712  11.264 -1.7803 -0.5100 -2.1581
 5163TIP3   OH236903   3.354   6.414  11.816 -0.1315  0.2688 -0.7913
 5163TIP3    H136904   3.329   6.443  11.728 -0.2075  2.2573 -0.1334
 5163TIP3    H236905   3.428   6.354  11.801 -1.3513 -0.9159 -2.3189
 5164TIP3   OH236906   1.948   4.698  12.735  0.0846  0.4542 -0.3662
 5164TIP3    H136907   1.995   4.730  12.659 -1.6175 -1.5895 -2.3301
 5164TIP3    H236908   2.013   4.649  12.785  1.0997  1.4511 -0.6939
 5165TIP3   OH236909   4.019   3.765  11.250  0.6266  0.2271  0.7988
 5165TIP3    H136910   4.064   3.805  11.325  0.0452 -0.8816  1.7580
 5165TIP3    H236911   4.037   3.671  11.259  0.7226  0.1030 -0.5751
 5166TIP3   OH236912   2.341   4.026  12.565  0.8609  0.8919  0.1662
 5166TIP3    H136913   2.416   4.036  12.623  0.9852 -1.2175  0.4310
 5166TIP3    H236914   2.312   3.935  12.579 -0.1098  0.8593 -1.8618
 5167TIP3   OH236915   2.347   4.266  12.313 -0.5626 -0.4615 -0.1123
 5167TIP3    H136916   2.295   4.187  12.303  0.7868 -1.4388  0.4071
 5167TIP3    H236917   2.283   4.338  12.312 -1.9725 -1.6667  1.1432
 5168TIP3   OH236918   5.288   4.088  11.705  0.0409 -0.5629  0.3347
 5168TIP3    H136919   5.198   4.071  11.731 -0.3630 -1.2103 -1.4907
 5168TIP3    H236920   5.301   4.038  11.625  1.3755  1.1817 -0.5717
 5169TIP3   OH236921   3.767   4.320  10.233 -0.1752 -0.0902 -0.0271
 5169TIP3    H136922   3.826   4.254  10.195  0.0890  0.8796 -1.3553
 5169TIP3    H236923   3.712   4.348  10.160  0.5350  2.0340  0.2072
 5170TIP3   OH236924   1.602   6.158  12.303 -0.3181  0.1563 -0.1382
 5170TIP3    H136925   1.522   6.197  12.267 -0.6009  0.8799  1.2553
 5170TIP3    H236926   1.634   6.102  12.232 -1.0095  1.3402 -1.4349
 5171TIP3   OH236927   4.398   3.842  15.211  0.0472 -0.2956  0.7138
 5171TIP3    H136928   4.308   3.861  15.183  0.3149 -3.9672 -3.0533
 5171TIP3    H236929   4.388   3.778  15.282 -0.3123  0.0813  1.0063
 5172TIP3   OH236930   0.218   3.421  12.493  0.4109 -0.3130 -0.3785
 5172TIP3    H136931   0.241   3.335  12.528 -0.3367 -0.2715  0.2345
 5172TIP3    H236932   0.150   3.403  12.428  0.6959 -0.2453 -0.6931
 5173TIP3   OH236933   4.994   5.847  14.290 -0.2027 -0.7622  0.3877
 5173TIP3    H136934   5.042   5.809  14.216  1.6752 -0.8319  1.6246
 5173TIP3    H236935   4.929   5.780  14.313  1.6295 -2.3393  1.1345
 5174TIP3   OH236936   0.944   6.316  12.384 -0.0844  0.4923  0.4794
 5174TIP3    H136937   0.865   6.265  12.366 -1.0335  0.9012  3.2468
 5174TIP3    H236938   0.996   6.260  12.442 -0.7023  2.2016  2.7758
 5175TIP3   OH236939   6.091   3.766  13.643  0.5263 -0.0968  0.0736
 5175TIP3    H136940   6.150   3.693  13.664  0.9531  0.7213  1.7854
 5175TIP3    H236941   6.118   3.836  13.701 -1.8736  0.4583  0.5660
 5176TIP3   OH236942   3.157   3.850  10.696 -0.4298  0.7093  0.3959
 5176TIP3    H136943   3.135   3.867  10.604 -0.7549  1.0529  0.5363
 5176TIP3    H236944   3.252   3.843  10.697 -0.4959 -0.2066 -0.1168
 5177TIP3   OH236945   3.610   4.642  13.100 -0.4858  0.4415 -0.3964
 5177TIP3    H136946   3.584   4.644  13.009 -1.3449  0.1884 -0.1571
 5177TIP3    H236947   3.540   4.595  13.145  0.4222 -0.3286  0.2370
 5178TIP3   OH236948   4.819   3.509  12.156 -0.0803 -0.0613 -0.9287
 5178TIP3    H136949   4.826   3.434  12.214  1.7238  1.3902  0.7895
 5178TIP3    H236950   4.898   3.505  12.102  0.7851  1.4025  0.1927
 5179TIP3   OH236951   6.220   4.089  12.991 -0.2004  0.2007 -0.0648
 5179TIP3    H136952   6.172   4.170  12.971 -0.8745 -0.3060 -0.5061
 5179TIP3    H236953   6.277   4.113  13.065 -0.4198  1.0677 -0.1688
 5180TIP3   OH236954   3.719   3.360  13.645  0.2837 -0.2080  0.4889
 5180TIP3    H136955   3.786   3.304  13.684  0.6646  0.4871  0.8455
 5180TIP3    H236956   3.687   3.413  13.718  0.0935  0.2117  0.1031
 5181TIP3   OH236957   3.773   5.470  12.750  0.0049 -0.2903 -0.5442
 5181TIP3    H136958   3.750   5.456  12.842 -0.2148  0.9773 -0.4010
 5181TIP3    H236959   3.847   5.412  12.734  0.9820  0.5894  0.8353
 5182TIP3   OH236960   4.657   4.145  15.975 -0.1600 -0.0908  0.4746
 5182TIP3    H136961   4.659   4.052  15.996 -1.0403 -0.3952 -0.7289
 5182TIP3    H236962   4.749   4.172  15.972  0.0628 -0.6642  1.8850
 5183TIP3   OH236963   4.604   5.417  11.957  0.0360 -0.1700 -0.1523
 5183TIP3    H136964   4.530   5.461  12.000  0.2878  0.5013 -0.4013
 5183TIP3    H236965   4.654   5.379  12.030  0.1499  0.4754  0.1054
 5184TIP3   OH236966   2.740   6.257  12.201 -0.3346 -0.1758  0.2801
 5184TIP3    H136967   2.779   6.206  12.273  1.1941 -0.1582 -0.5156
 5184TIP3    H236968   2.669   6.202  12.169 -0.9740 -0.2289  1.7427
 5185TIP3   OH236969   1.983   5.127  11.285  0.0968  0.2495  0.8201
 5185TIP3    H136970   1.961   5.172  11.203 -1.1110  0.0213  1.0049
 5185TIP3    H236971   2.008   5.197  11.345 -0.6176  0.5700  0.7492
 5186TIP3   OH236972   2.909   4.919  14.124  0.1897  0.5116  0.3305
 5186TIP3    H136973   2.981   4.865  14.157 -0.8897 -1.6907 -0.7620
 5186TIP3    H236974   2.830   4.876  14.157 -0.7050  1.4989 -0.4826
 5187TIP3   OH236975   3.820   4.952  13.100 -0.4900 -0.5432 -0.2485
 5187TIP3    H136976   3.914   4.937  13.088 -0.6602 -1.7482 -0.1818
 5187TIP3    H236977   3.810   5.047  13.098  1.2325 -0.1928  3.3604
 5188TIP3   OH236978   3.006   6.717  13.843 -0.1633 -0.2417  0.6047
 5188TIP3    H136979   3.003   6.735  13.749 -1.8664  1.9972  1.0358
 5188TIP3    H236980   3.097   6.730  13.867  0.3035 -0.9025 -0.7434
 5189TIP3   OH236981   4.155   4.373  12.635 -0.0840  0.6317  0.2778
 5189TIP3    H136982   4.125   4.357  12.546  1.5888  1.6469 -0.5026
 5189TIP3    H236983   4.078   4.359  12.690 -1.7044  2.2626 -1.5409
 5190TIP3   OH236984   3.716   6.044  12.628 -0.1315  0.2540  1.3916
 5190TIP3    H136985   3.631   6.012  12.595  0.3071 -0.9755  1.4323
 5190TIP3    H236986   3.733   6.124  12.576  0.4704 -1.5582 -1.3342
 5191TIP3   OH236987   4.224   2.613  13.666 -0.1268 -0.0793 -0.1351
 5191TIP3    H136988   4.132   2.609  13.689 -0.1195  1.7990  0.3340
 5191TIP3    H236989   4.249   2.522  13.648 -1.8419 -0.7008  0.5525
 5192TIP3   OH236990   1.912   3.534  10.754  0.0566 -0.5247 -0.0525
 5192TIP3    H136991   1.844   3.496  10.810  0.9259 -2.9450 -0.5892
 5192TIP3    H236992   1.971   3.462  10.736  1.5588  1.0169 -1.4647
 5193TIP3   OH236993   3.366   5.160  12.344 -0.4206  0.0620 -0.1895
 5193TIP3    H136994   3.450   5.132  12.309 -1.0950 -1.1595 -0.8814
 5193TIP3    H236995   3.379   5.167  12.438 -0.1878 -2.5471  0.0140
 5194TIP3   OH236996   3.541   4.055  11.433  0.0586  0.1890  0.0496
 5194TIP3    H136997   3.604   4.124  11.456 -0.4433  0.9110 -0.7401
 5194TIP3    H236998   3.550   4.045  11.338  0.0207 -0.7274  0.1393
 5195TIP3   OH236999   2.400   4.795  13.581 -0.5819  0.3701 -0.0828
 5195TIP3    H137000   2.369   4.791  13.672 -4.0134 -0.8601 -1.2494
 5195TIP3    H237001   2.375   4.882  13.550  2.5224  1.6294  0.7303
 5196TIP3   OH237002   4.938   4.514  14.257  0.1992  0.0748 -0.2033
 5196TIP3    H137003   5.025   4.546  14.283  0.4892 -1.0633  0.2616
 5196TIP3    H237004   4.898   4.484  14.338  0.2198 -1.3785 -0.7084
 5197TIP3   OH237005   2.496   4.630  10.849  0.3135  0.1293  0.1480
 5197TIP3    H137006   2.489   4.535  10.836  2.2304 -0.2071  1.3602
 5197TIP3    H237007   2.445   4.647  10.928 -0.3755  0.1636 -0.3082
 5198TIP3   OH237008   3.478   3.112  11.177  0.3051 -0.1813 -0.3447
 5198TIP3    H137009   3.383   3.101  11.175  0.0635  1.6196  0.2618
 5198TIP3    H237010   3.502   3.103  11.269  0.6351 -0.0505 -0.4159
 5199TIP3   OH237011   3.916   4.855  14.621 -0.0487 -0.3175 -0.1590
 5199TIP3    H137012   3.996   4.805  14.604  0.1308 -0.7338  1.8468
 5199TIP3    H237013   3.946   4.944  14.640 -0.2872  0.2853 -2.4808
 5200TIP3   OH237014   4.252   2.654  11.129 -0.5701  0.5857  0.2635
 5200TIP3    H137015   4.292   2.629  11.045  0.3150  1.0927  0.5266
 5200TIP3    H237016   4.184   2.588  11.143  0.2965 -0.4226 -0.1118
 5201TIP3   OH237017   1.246   3.548  12.999  0.0563 -0.4920  0.3062
 5201TIP3    H137018   1.278   3.574  12.913 -0.3143  0.9321  0.5812
 5201TIP3    H237019   1.171   3.492  12.981 -3.0567  3.6578 -0.3366
 5202TIP3   OH237020   4.324   4.843  13.118  0.5188 -0.4851 -0.1431
 5202TIP3    H137021   4.300   4.871  13.206  0.9786 -1.5518  0.3276
 5202TIP3    H237022   4.417   4.821  13.123 -0.2114 -3.8108 -0.0185
 5203TIP3   OH237023   5.506   5.504  12.057  0.3800  0.2056 -0.1619
 5203TIP3    H137024   5.528   5.438  11.992 -1.4442 -1.2070  0.6158
 5203TIP3    H237025   5.542   5.470  12.139 -1.1037 -0.1588  0.3545
 5204TIP3   OH237026   0.920   4.670  12.442  0.1507  0.1734  0.1336
 5204TIP3    H137027   0.852   4.730  12.472 -0.3846 -0.2046 -0.3150
 5204TIP3    H237028   0.946   4.622  12.520 -0.0977  0.3231  0.3105
 5205TIP3   OH237029   4.182   4.106  12.130 -0.0446  0.5616 -0.0135
 5205TIP3    H137030   4.250   4.062  12.079  2.0615  1.7042  1.7606
 5205TIP3    H237031   4.152   4.178  12.074  1.3659  1.0538 -0.1384
 5206TIP3   OH237032   2.470   2.742  12.440 -0.3035  0.1314 -0.4807
 5206TIP3    H137033   2.414   2.683  12.389 -0.2445  0.9820 -1.5546
 5206TIP3    H237034   2.512   2.798  12.374 -0.7210  1.6858  0.5395
 5207TIP3   OH237035   2.695   5.083  11.614 -0.8101 -0.1128 -0.0236
 5207TIP3    H137036   2.713   4.990  11.621 -1.4787 -0.4477 -2.3109
 5207TIP3    H237037   2.758   5.115  11.549  0.5857  1.3891  2.0219
 5208TIP3   OH237038   7.221   5.552  13.263  0.6815 -0.5005 -0.1395
 5208TIP3    H137039   7.260   5.565  13.177  1.4775 -1.6987  0.0356
 5208TIP3    H237040   7.292   5.568  13.325 -0.3914  2.5020  0.4378
 5209TIP3   OH237041   3.705   1.619  14.604 -0.4026 -0.3239  0.5048
 5209TIP3    H137042   3.653   1.596  14.680 -0.9401  0.9329  0.5365
 5209TIP3    H237043   3.763   1.690  14.635  0.4591 -0.8618  0.1536
 5210TIP3   OH237044   3.651   5.422  10.711 -0.0070  0.3665  0.7393
 5210TIP3    H137045   3.712   5.400  10.782  0.1494 -2.3636 -0.1534
 5210TIP3    H237046   3.684   5.372  10.636 -1.4323  1.4979 -0.6607
 5211TIP3   OH237047   2.451   4.483  10.392 -0.1827 -0.7647 -0.3840
 5211TIP3    H137048   2.389   4.496  10.465  1.3879 -0.0128  0.8492
 5211TIP3    H237049   2.533   4.461  10.435  0.6784 -0.6860 -1.9748
 5212TIP3   OH237050   3.781   4.022  11.708 -0.1765  0.0231  0.4596
 5212TIP3    H137051   3.688   4.030  11.728 -0.4971 -1.3488 -0.3949
 5212TIP3    H237052   3.790   4.062  11.621 -0.0417 -0.2146  0.3641
 5213TIP3   OH237053   1.565   3.985  11.887  0.2906  0.4089 -0.0561
 5213TIP3    H137054   1.493   4.009  11.829  0.7440  3.2277  0.4774
 5213TIP3    H237055   1.565   4.053  11.955  3.2573  0.3075  0.1066
 5214TIP3   OH237056   1.373   0.505  13.587 -0.4866 -0.2849  0.1999
 5214TIP3    H137057   1.392   0.557  13.666  2.0247 -1.4070  0.3669
 5214TIP3    H237058   1.305   0.555  13.542  0.6456  2.2796  1.2299
 5215TIP3   OH237059   4.194   4.907  12.446  0.2661  0.4760  0.0154
 5215TIP3    H137060   4.243   4.936  12.369  0.5594  0.7491  0.3061
 5215TIP3    H237061   4.107   4.945  12.435 -0.1632 -0.7079 -0.9368
 5216TIP3   OH237062   3.926   0.368  13.406 -0.3055 -0.1885 -0.0110
 5216TIP3    H137063   3.884   0.333  13.327 -0.3049 -0.1427 -0.0315
 5216TIP3    H237064   3.853   0.387  13.465 -0.2017 -1.9143  0.6861
 5217TIP3   OH237065   2.220   7.067  13.501  0.5454 -0.1247 -0.5512
 5217TIP3    H137066   2.255   7.155  13.495 -1.7526  1.1098  2.4863
 5217TIP3    H237067   2.136   7.071  13.454  0.8939 -0.9798 -1.2649
 5218TIP3   OH237068   2.864   3.152  11.730  0.2067 -0.7110  0.0781
 5218TIP3    H137069   2.789   3.100  11.760 -1.3031  1.9440  1.1177
 5218TIP3    H237070   2.825   3.230  11.691  2.4352  0.5758  0.3385
 5219TIP3   OH237071   7.303   6.291  14.161 -0.0950  0.1500 -0.6129
 5219TIP3    H137072   7.397   6.276  14.159 -0.0746  0.2353 -0.3422
 5219TIP3    H237073   7.268   6.235  14.091  0.1646  0.2006 -0.7833
 5220TIP3   OH237074   1.563   4.354  14.915  0.2955 -0.7463 -0.0001
 5220TIP3    H137075   1.637   4.294  14.920  2.8829  2.1146 -1.8886
 5220TIP3    H237076   1.504   4.316  14.850  3.1229 -0.0679 -3.0845
 5221TIP3   OH237077   1.085   0.691  12.664  0.2363  0.4673 -0.0609
 5221TIP3    H137078   1.174   0.659  12.654 -0.3511 -1.0590 -0.5462
 5221TIP3    H237079   1.095   0.784  12.685  2.0125 -0.3073  2.7433
 5222TIP3   OH237080   4.668   4.231  11.601  0.2446 -0.4307  0.2603
 5222TIP3    H137081   4.706   4.150  11.637  0.7867 -1.1760 -1.9336
 5222TIP3    H237082   4.741   4.293  11.599  0.4163 -0.6541 -0.3546
 5223TIP3   OH237083   4.834   6.134  14.457  0.1786 -0.3240 -0.0683
 5223TIP3    H137084   4.819   6.226  14.478 -2.3470 -0.7665  0.2577
 5223TIP3    H237085   4.852   6.092  14.541 -1.8220 -0.6517  0.2281
 5224TIP3   OH237086   2.243   3.775  12.709 -0.0128 -0.5206  0.7991
 5224TIP3    H137087   2.320   3.724  12.681  0.1221 -0.4599  1.0607
 5224TIP3    H237088   2.208   3.726  12.783 -0.9377 -1.2054 -0.0664
 5225TIP3   OH237089   6.538   6.793  11.758 -0.1053  0.2661  0.0623
 5225TIP3    H137090   6.614   6.777  11.813 -1.5049 -2.9024  1.1582
 5225TIP3    H237091   6.468   6.816  11.820 -1.2143 -1.4950 -0.4998
 5226TIP3   OH237092   7.069   5.927  13.323  0.2294  0.1735  0.4209
 5226TIP3    H137093   7.082   5.999  13.261 -0.9857  0.6583  0.7003
 5226TIP3    H237094   7.026   5.859  13.271  0.2380  0.1403  0.4569
 5227TIP3   OH237095   1.079   4.816  11.255 -0.1194 -0.1614 -0.2832
 5227TIP3    H137096   1.000   4.870  11.261 -0.7771 -1.1321 -0.1143
 5227TIP3    H237097   1.054   4.742  11.200  0.1938 -1.3138  1.1127
 5228TIP3   OH237098   3.906   3.509  14.976  0.4602 -0.1400 -0.0155
 5228TIP3    H137099   3.951   3.454  15.041 -2.3843 -0.2431  1.9571
 5228TIP3    H237100   3.933   3.598  14.999  1.3194 -0.3432 -0.2030
 5229TIP3   OH237101   2.028   3.873  12.200 -0.4287  0.0128 -0.1811
 5229TIP3    H137102   2.000   3.796  12.149 -0.0058  0.5241 -1.2135
 5229TIP3    H237103   2.112   3.847  12.237 -1.2244 -0.7356  1.1170
 5230TIP3   OH237104   2.256   4.294  11.095 -0.0229 -0.0017  0.2835
 5230TIP3    H137105   2.193   4.231  11.060 -0.0060 -0.0734  0.3835
 5230TIP3    H237106   2.271   4.265  11.185  0.7024 -0.3957  0.0314
 5231TIP3   OH237107   0.014   1.797  11.084  0.0082  0.1197  0.2317
 5231TIP3    H137108   0.094   1.788  11.136 -0.3148  0.0752  0.7201
 5231TIP3    H237109   0.032   1.746  11.005  0.3430 -0.1532  0.4806
 5232TIP3   OH237110   3.021   4.640  12.101  0.4623  0.5319  0.5036
 5232TIP3    H137111   2.974   4.653  12.184  1.1201  0.0051  0.9697
 5232TIP3    H237112   3.094   4.701  12.105  1.2968 -0.4721  0.9442
 5233TIP3   OH237113   1.136   5.509  12.600  0.3409 -1.0056 -0.0999
 5233TIP3    H137114   1.213   5.474  12.645  0.7852 -1.1522 -0.9769
 5233TIP3    H237115   1.124   5.596  12.638  2.1025 -0.2058 -1.3395
 5234TIP3   OH237116   2.209   4.543  12.642 -0.1181  0.4168  0.0601
 5234TIP3    H137117   2.296   4.569  12.673  0.1055  0.6510 -0.7579
 5234TIP3    H237118   2.213   4.448  12.638  0.1385  0.4351 -0.1021
 5235TIP3   OH237119   1.205   5.059  11.176 -0.0890  0.1965  0.1817
 5235TIP3    H137120   1.207   5.107  11.260 -0.0088  0.7383 -0.1254
 5235TIP3    H237121   1.133   4.997  11.186  1.1524 -1.0667  1.3699
 5236TIP3   OH237122   1.645   4.446  12.679 -0.1456 -0.5164  0.1861
 5236TIP3    H137123   1.637   4.472  12.771 -0.6468 -1.4680  0.4099
 5236TIP3    H237124   1.664   4.528  12.633  0.7367 -0.1316  1.2178
 5237TIP3   OH237125   2.562   4.214  12.497  0.0072 -0.1098 -0.1676
 5237TIP3    H137126   2.545   4.248  12.585  1.4895  0.9091 -0.2447
 5237TIP3    H237127   2.489   4.246  12.444 -0.0162  0.6928  0.3404
 5238TIP3   OH237128   6.765   5.186  11.684 -0.6092 -0.1282 -0.5268
 5238TIP3    H137129   6.805   5.170  11.770 -2.6795  0.9966  0.6922
 5238TIP3    H237130   6.743   5.099  11.651  1.0358 -0.6267 -0.3380
 5239TIP3   OH237131   1.899   3.215  12.673 -0.2424 -0.3515 -0.3888
 5239TIP3    H137132   1.931   3.303  12.654  1.3116 -0.5534  1.1009
 5239TIP3    H237133   1.961   3.181  12.738 -0.8895 -2.4922 -0.8441
 5240TIP3   OH237134   1.930   1.169  12.203 -0.3617  0.1932 -0.0716
 5240TIP3    H137135   1.961   1.220  12.129  1.0547  0.2616  0.5593
 5240TIP3    H237136   1.928   1.079  12.171  0.8989  0.1324 -0.0030
 5241TIP3   OH237137   2.807   5.146  12.199  0.1298  0.0081 -0.5364
 5241TIP3    H137138   2.899   5.170  12.211  0.0383  0.6890 -1.1955
 5241TIP3    H237139   2.806   5.097  12.117  0.1309 -1.2550  0.2123
 5242TIP3   OH237140   1.058   4.345  11.218  0.0231 -0.0708  0.3843
 5242TIP3    H137141   1.070   4.399  11.296 -0.4858  1.4116 -0.5549
 5242TIP3    H237142   1.082   4.257  11.247  2.3889  0.8976  1.5012
 5243TIP3   OH237143   6.511   4.890  14.455 -0.1446  0.1826  0.2533
 5243TIP3    H137144   6.594   4.901  14.408 -0.3649  1.2907  0.1288
 5243TIP3    H237145   6.469   4.816  14.411  0.0855  0.5947 -0.6633
 5244TIP3   OH237146   5.093   7.141  14.828 -0.1730  0.0166  0.6770
 5244TIP3    H137147   5.005   7.180  14.823 -0.7074 -1.0789  1.3399
 5244TIP3    H237148   5.084   7.070  14.891  0.5565 -1.7533 -1.1422
 5245TIP3   OH237149   5.307   4.097  15.136 -0.4847  0.3178  0.2498
 5245TIP3    H137150   5.396   4.131  15.145  0.0926 -0.7920 -1.1138
 5245TIP3    H237151   5.319   4.007  15.106 -2.0594 -0.1112  0.8683
 5246TIP3   OH237152   4.211   4.204  13.150  0.2895  0.6081 -0.5656
 5246TIP3    H137153   4.283   4.192  13.088 -0.1635 -1.1937 -0.7689
 5246TIP3    H237154   4.139   4.238  13.097  0.7078  1.5394 -0.5360
 5247TIP3   OH237155   3.628   5.130  11.175 -0.0630 -0.2514 -0.3148
 5247TIP3    H137156   3.547   5.078  11.180 -0.0093 -0.4587 -1.4645
 5247TIP3    H237157   3.615   5.188  11.100  0.7014 -0.0139 -0.2695
 5248TIP3   OH237158   5.707   0.610  11.625  0.1117  0.0598 -0.0465
 5248TIP3    H137159   5.674   0.554  11.555 -0.2686 -0.2520  0.3776
 5248TIP3    H237160   5.729   0.548  11.695 -1.0527  0.5110  0.7263
 5249TIP3   OH237161   2.898   2.977  10.901 -0.4347  0.4911 -0.3412
 5249TIP3    H137162   2.846   2.899  10.920 -0.0089  0.4461  0.6563
 5249TIP3    H237163   2.959   2.949  10.833  1.2762 -0.7205  1.6220
 5250TIP3   OH237164   2.287   3.366  12.776 -0.0995  0.0598 -0.0576
 5250TIP3    H137165   2.315   3.275  12.784  1.5291  0.5936  0.7359
 5250TIP3    H237166   2.209   3.363  12.721 -1.0534 -1.9823  1.3428
 5251TIP3   OH237167   2.318   4.769  11.066 -0.0656  0.3944 -0.2170
 5251TIP3    H137168   2.303   4.859  11.095  1.2214  0.6066 -0.1820
 5251TIP3    H237169   2.287   4.714  11.138  2.5423  0.8943  1.3575
 5252TIP3   OH237170   4.653   5.460  13.298 -0.5621 -0.4919 -0.2927
 5252TIP3    H137171   4.742   5.496  13.296 -0.8417  0.1741 -1.5350
 5252TIP3    H237172   4.647   5.406  13.219 -0.0564 -3.5968  1.6845
 5253TIP3   OH237173   3.630   3.528  11.763  0.2538 -0.2951 -0.2127
 5253TIP3    H137174   3.653   3.577  11.684 -0.2569  0.6652  0.2240
 5253TIP3    H237175   3.642   3.591  11.835 -0.9583 -0.6365  0.2996
 5254TIP3   OH237176   5.185   2.461  11.054 -0.4539  0.3826  0.5227
 5254TIP3    H137177   5.173   2.556  11.049 -1.0340  0.3058  0.4178
 5254TIP3    H237178   5.232   2.439  10.974  0.0341  0.6339  0.7387
 5255TIP3   OH237179   1.403   4.350  12.247 -0.0152  0.3796  0.2593
 5255TIP3    H137180   1.418   4.361  12.341  1.1313  0.3931  0.0890
 5255TIP3    H237181   1.410   4.438  12.211 -3.3870  0.8047  0.5272
 5256TIP3   OH237182   5.135   3.022  10.326  0.4223  0.8863 -0.1109
 5256TIP3    H137183   5.139   3.117  10.314  0.8494  0.6561 -1.9427
 5256TIP3    H237184   5.080   2.991  10.255 -0.9969 -0.1068  1.3952
 5257TIP3   OH237185   5.356   4.377  11.146  0.3188  0.2732 -0.3368
 5257TIP3    H137186   5.311   4.413  11.070 -1.3765  2.5164  1.6488
 5257TIP3    H237187   5.444   4.415  11.142  0.1867  0.5138 -1.0704
 5258TIP3   OH237188   3.899   4.690  12.755 -0.4256  0.1425  0.0361
 5258TIP3    H137189   3.935   4.658  12.838 -1.2619  0.7895  0.6623
 5258TIP3    H237190   3.807   4.666  12.758 -0.9119  1.9812  0.2155
 5259TIP3   OH237191   4.173   5.549  12.698 -0.5923 -0.1656 -0.3875
 5259TIP3    H137192   4.152   5.564  12.606  0.0910 -1.8293 -0.8484
 5259TIP3    H237193   4.105   5.595  12.747 -2.4713 -1.3935 -1.7602
 5260TIP3   OH237194   5.319   3.748  11.147 -0.2718 -0.4156 -0.0515
 5260TIP3    H137195   5.397   3.734  11.092  0.6149 -0.9600  1.3192
 5260TIP3    H237196   5.335   3.695  11.225 -0.2563  2.4382  1.9613
 5261TIP3   OH237197   3.434   4.840  11.221 -0.2425 -0.8493  0.5463
 5261TIP3    H137198   3.515   4.792  11.239 -0.0481 -0.8547 -0.2878
 5261TIP3    H237199   3.409   4.812  11.132 -0.1684  0.5333  0.0798
 5262TIP3   OH237200   5.331   3.726  12.334 -0.1022 -0.0096  0.3357
 5262TIP3    H137201   5.420   3.723  12.368  0.0992  0.2171 -0.1772
 5262TIP3    H237202   5.284   3.782  12.394  0.5554  1.4190 -0.4636
 5263TIP3   OH237203   2.556   3.262  12.483 -0.2636 -0.0600  0.1170
 5263TIP3    H137204   2.651   3.252  12.486 -0.0990  1.3182 -0.2840
 5263TIP3    H237205   2.522   3.179  12.517  1.0776 -0.4493  0.5330
 5264TIP3   OH237206   4.518   3.318  13.894  0.5387  0.1200 -0.3472
 5264TIP3    H137207   4.509   3.279  13.807 -3.4279  0.4927 -0.1665
 5264TIP3    H237208   4.539   3.410  13.877  2.6601 -0.4120 -0.8220
 5265TIP3   OH237209   2.883   4.626  11.176  0.5183 -0.3992 -0.6554
 5265TIP3    H137210   2.972   4.633  11.141  1.1697 -2.2973  0.5237
 5265TIP3    H237211   2.856   4.537  11.153 -0.4036 -0.4331  0.5262
 5266TIP3   OH237212   1.660   4.784  10.551  0.0884 -0.4786  0.7066
 5266TIP3    H137213   1.585   4.841  10.568  0.4549 -0.2556  1.6105
 5266TIP3    H237214   1.722   4.805  10.620  1.1190 -0.4407 -0.2103
 5267TIP3   OH237215   4.738   7.233  13.280 -0.2128  0.1218 -0.5185
 5267TIP3    H137216   4.720   7.159  13.222 -1.3693  0.5643 -0.7312
 5267TIP3    H237217   4.662   7.290  13.272 -0.2558  0.3453  1.2090
 5268TIP3   OH237218   4.793   3.782  11.956 -0.5609  0.4151  0.3224
 5268TIP3    H137219   4.859   3.798  11.888  0.2097 -2.1375  0.4167
 5268TIP3    H237220   4.828   3.826  12.034  1.5386 -1.6203  0.6099
 5269TIP3   OH237221   4.893   3.204  13.831 -0.1603 -0.1169  0.0356
 5269TIP3    H137222   4.826   3.231  13.893 -1.5219  0.6866 -1.7141
 5269TIP3    H237223   4.898   3.277  13.768  1.4964 -0.6980 -0.5445
 5270TIP3   OH237224   6.490   3.794  12.830  0.0883  0.5742 -0.5464
 5270TIP3    H137225   6.475   3.714  12.882 -1.3504  0.5612 -0.9581
 5270TIP3    H237226   6.558   3.841  12.878 -0.0000 -0.2687  0.4250
 5271TIP3   OH237227   2.939   6.364  12.636  0.4045  0.9155  0.1719
 5271TIP3    H137228   2.974   6.297  12.694  1.7950  1.2040 -0.3072
 5271TIP3    H237229   3.017   6.410  12.603 -0.3920  1.0533 -1.5501
 5272TIP3   OH237230   4.416   3.899  12.947  0.5337  0.3269  0.8569
 5272TIP3    H137231   4.455   3.930  12.865 -0.7391 -0.9737 -0.2663
 5272TIP3    H237232   4.484   3.913  13.013  1.6373  1.2210 -0.4505
 5273TIP3   OH237233   6.728   4.049  13.152 -0.6106  0.3298  0.3055
 5273TIP3    H137234   6.727   3.982  13.083  0.8601  0.1511  0.4423
 5273TIP3    H237235   6.714   4.131  13.106 -0.0019  0.1719 -0.1699
 5274TIP3   OH237236   5.494   2.860  10.594 -0.2439  0.5016  0.3759
 5274TIP3    H137237   5.430   2.923  10.561  0.4224  0.5992 -0.7465
 5274TIP3    H237238   5.520   2.810  10.517 -0.8324 -1.2111  1.2591
 5275TIP3   OH237239   3.155   4.349  12.607  0.7028  0.0836 -0.1589
 5275TIP3    H137240   3.249   4.344  12.590  0.2277 -1.3200 -2.7298
 5275TIP3    H237241   3.114   4.319  12.525 -1.9662 -0.4706  1.2907
 5276TIP3   OH237242   4.033   1.913  12.690 -0.2410 -0.2945  0.2963
 5276TIP3    H137243   3.954   1.923  12.743  0.7891  1.2235  1.6110
 5276TIP3    H237244   4.065   1.826  12.711 -0.9598 -0.4891  0.6163
 5277TIP3   OH237245   6.260   4.017  12.458  0.0393 -0.5765 -1.0820
 5277TIP3    H137246   6.350   3.983  12.461 -0.4863 -1.9312 -0.5367
 5277TIP3    H237247   6.230   4.014  12.548 -0.4344  0.2369 -1.2104
 5278TIP3   OH237248   6.786   4.361  12.564 -0.0839  0.3879  0.8286
 5278TIP3    H137249   6.700   4.360  12.522 -0.3913  2.7743  1.3263
 5278TIP3    H237250   6.817   4.270  12.558 -1.7870 -0.1027 -1.0512
 5279TIP3   OH237251   4.698   5.413  12.233 -0.3384 -0.0188  0.7056
 5279TIP3    H137252   4.756   5.432  12.306  0.8643 -0.0160 -0.2385
 5279TIP3    H237253   4.627   5.478  12.241 -0.4277 -0.2757  2.0828
 5280TIP3   OH237254   4.412   4.292  12.961  0.5932  0.2510  0.1869
 5280TIP3    H137255   4.480   4.254  13.017  0.1747 -1.5026 -0.4637
 5280TIP3    H237256   4.389   4.374  13.004  2.1892  0.2301  1.1332
 5281TIP3   OH237257   3.858   6.119  13.799  0.2597  0.1954  0.0565
 5281TIP3    H137258   3.893   6.033  13.821 -0.4051  0.1476  0.9287
 5281TIP3    H237259   3.808   6.146  13.876 -1.2304  0.4718 -0.9900
 5282TIP3   OH237260   4.363   5.529  12.880 -0.1969 -0.2722  0.7046
 5282TIP3    H137261   4.332   5.593  12.945 -0.9672  0.7307 -0.6415
 5282TIP3    H237262   4.314   5.549  12.801  1.0223 -1.2498 -0.3171
 5283TIP3   OH237263   3.191   6.199  13.664  0.0556  0.5114  0.4964
 5283TIP3    H137264   3.185   6.194  13.569  0.3117  1.4115  0.4249
 5283TIP3    H237265   3.101   6.195  13.695 -0.1263  1.7297  0.1283
 5284TIP3   OH237266   3.990   6.308  10.689  0.2626 -0.4019  0.5458
 5284TIP3    H137267   3.937   6.304  10.610  0.2246  1.9325  0.3996
 5284TIP3    H237268   4.011   6.217  10.709 -1.5081 -1.1657 -0.9266
 5285TIP3   OH237269   6.160   4.476  13.798 -0.1922  0.3894 -0.6612
 5285TIP3    H137270   6.081   4.525  13.820 -0.7133 -0.7887  0.1699
 5285TIP3    H237271   6.128   4.402  13.746  0.3540 -0.1125 -0.2854
 5286TIP3   OH237272   6.415   0.287  10.517 -0.2050  0.5481 -0.3475
 5286TIP3    H137273   6.371   0.295  10.433  0.2385 -1.7527 -0.8386
 5286TIP3    H237274   6.507   0.276  10.495  0.0260  0.7972  0.4785
 5287TIP3   OH237275   3.098   3.980  11.378  0.1291  0.2141  0.0938
 5287TIP3    H137276   3.017   4.022  11.406  0.1182 -0.6765  1.4449
 5287TIP3    H237277   3.150   4.050  11.338  0.1419  1.5344  2.3537
 5288TIP3   OH237278   5.092   4.739  12.691  0.4899  0.1963  0.3630
 5288TIP3    H137279   5.099   4.722  12.785 -1.4181  1.7547  0.8088
 5288TIP3    H237280   5.007   4.704  12.666  1.4514 -1.2254 -1.0468
 5289TIP3   OH237281   3.530   3.721  11.565 -0.1495 -0.4226  0.4720
 5289TIP3    H137282   3.549   3.805  11.524 -3.0153 -0.1647 -0.4986
 5289TIP3    H237283   3.584   3.658  11.518 -0.5858  0.4184 -1.2099
 5290TIP3   OH237284   5.275   5.114  11.914  0.4949 -0.4615  0.2804
 5290TIP3    H137285   5.289   5.077  11.827 -0.0919 -1.2540  0.5171
 5290TIP3    H237286   5.230   5.197  11.898  0.0221 -0.7960 -0.1498
 5291TIP3   OH237287   3.438   5.241  15.337  0.4676 -0.7023  0.0097
 5291TIP3    H137288   3.496   5.168  15.319  1.0638  0.2999 -2.3363
 5291TIP3    H237289   3.354   5.201  15.361  1.3004 -2.1215  0.5695
 5292TIP3   OH237290   2.913   5.133  11.031 -0.0917 -0.0348 -0.0704
 5292TIP3    H137291   2.925   5.040  11.008 -1.0039 -0.2631  0.3619
 5292TIP3    H237292   3.002   5.166  11.043  0.2210 -0.9998  0.3177
 5293TIP3   OH237293   7.111   7.194  13.270  0.0637  0.2861  0.1613
 5293TIP3    H137294   7.136   7.266  13.212 -1.9089  1.0198  0.1877
 5293TIP3    H237295   7.024   7.218  13.302 -0.7548 -2.2397 -0.0424
 5294TIP3   OH237296   4.059   0.053  13.199  0.5001  0.2336  0.4967
 5294TIP3    H137297   4.115   0.039  13.122  1.5779  2.5807  0.8059
 5294TIP3    H237298   3.974   0.018  13.174  0.9414  0.6395 -1.6340
 5295TIP3   OH237299   5.031   6.894  14.315 -0.7241 -0.4201  0.3783
 5295TIP3    H137300   4.972   6.969  14.324 -0.6529 -0.3147  0.0036
 5295TIP3    H237301   5.070   6.883  14.401  0.1669  0.7347  0.1382
 5296TIP3   OH237302   5.314   5.611  13.322 -0.0600  0.0431  0.2485
 5296TIP3    H137303   5.304   5.611  13.226  1.9114  0.7792  0.0058
 5296TIP3    H237304   5.337   5.521  13.344 -2.8231 -0.6876  0.3450
 5297TIP3   OH237305   5.776   4.314  10.246 -0.6202  0.1150  0.1171
 5297TIP3    H137306   5.799   4.397  10.203 -1.6716  1.3677  1.8896
 5297TIP3    H237307   5.731   4.263  10.179 -1.7439  1.7986 -0.4467
 5298TIP3   OH237308   4.208   3.450  12.052  0.0654 -0.5634 -0.9410
 5298TIP3    H137309   4.303   3.438  12.047  0.4819  0.7756  2.3601
 5298TIP3    H237310   4.193   3.539  12.021  0.1166 -0.1377  0.2347
 5299TIP3   OH237311   3.643   5.108  12.289  0.5405 -0.1313  0.9878
 5299TIP3    H137312   3.643   5.115  12.384  2.7407 -0.2064  1.0171
 5299TIP3    H237313   3.723   5.153  12.262 -0.3112  0.3202 -0.8670
 5300TIP3   OH237314   5.224   5.548  14.533 -0.7748  0.0964  0.0989
 5300TIP3    H137315   5.289   5.493  14.488  0.6448  2.1781 -0.4517
 5300TIP3    H237316   5.257   5.554  14.623 -1.0520 -0.1313  0.2159
 5301TIP3   OH237317   6.004   3.174  12.683  0.2847  0.5009 -0.1396
 5301TIP3    H137318   6.048   3.250  12.645  0.2915  0.9387  0.7182
 5301TIP3    H237319   5.931   3.157  12.623  1.6728 -0.3043 -1.6263
 5302TIP3   OH237320   6.446   5.604  14.809  0.4188 -0.3689  0.2317
 5302TIP3    H137321   6.361   5.634  14.843  1.0627  0.8363  0.7972
 5302TIP3    H237322   6.510   5.637  14.872  1.6107  1.6212 -1.9329
 5303TIP3   OH237323   6.460   3.056  12.737 -0.3153 -0.2104  0.1248
 5303TIP3    H137324   6.495   2.981  12.689  0.1484  0.7499 -1.0640
 5303TIP3    H237325   6.521   3.069  12.809  0.6383  0.1829 -0.7529
 5304TIP3   OH237326   5.624   3.087  11.560 -0.2077  0.6805  0.1224
 5304TIP3    H137327   5.584   3.086  11.647 -1.3949  0.9963 -0.4203
 5304TIP3    H237328   5.571   3.026  11.509  1.4911 -0.7860  0.0491
 5305TIP3   OH237329   6.108   3.062  11.969 -0.1122  0.2145  0.3128
 5305TIP3    H137330   6.019   3.031  11.954  0.3928 -1.2762  0.2857
 5305TIP3    H237331   6.161   2.982  11.974  1.1855  1.0670  0.5710
 5306TIP3   OH237332   4.903   5.152  12.213  0.4378 -0.1045  0.4162
 5306TIP3    H137333   4.956   5.095  12.158  0.6784  1.2447 -0.7873
 5306TIP3    H237334   4.962   5.223  12.239 -0.3873  0.6845  0.1868
 5307TIP3   OH237335   4.152   2.710  11.494 -0.6666 -0.4960  0.4218
 5307TIP3    H137336   4.215   2.741  11.429 -1.4496 -3.3357 -1.7835
 5307TIP3    H237337   4.206   2.680  11.567  0.3096  1.1230  0.3819
 5308TIP3   OH237338   3.509   4.768  13.392 -0.2220  0.2306 -0.9932
 5308TIP3    H137339   3.509   4.760  13.488  0.1767  0.7992 -0.9371
 5308TIP3    H237340   3.417   4.777  13.368 -0.2223  1.7071 -0.5031
 5309TIP3   OH237341   4.857   4.935  12.449  0.1864 -0.1169  0.0982
 5309TIP3    H137342   4.939   4.954  12.494  0.2186 -0.8376  0.3460
 5309TIP3    H237343   4.860   4.989  12.370  1.3725 -0.9211 -0.4232
 5310TIP3   OH237344   5.398   7.019  13.839 -0.0561 -0.3494  0.4137
 5310TIP3    H137345   5.358   6.963  13.773 -0.8830 -1.3778  1.7543
 5310TIP3    H237346   5.330   7.031  13.905  0.2977  1.8090  0.4153
 5311TIP3   OH237347   5.314   5.779  11.016  0.1072 -0.2364 -0.3813
 5311TIP3    H137348   5.347   5.720  10.948 -1.3975 -0.4412 -0.9481
 5311TIP3    H237349   5.233   5.816  10.979 -0.4880 -0.0073  1.1120
 5312TIP3   OH237350   3.703   4.085  14.283  0.3655 -0.1367 -0.2391
 5312TIP3    H137351   3.645   4.150  14.324 -2.0403 -2.3686  0.0521
 5312TIP3    H237352   3.682   4.089  14.190 -0.5287 -1.1752 -0.0921
 5313TIP3   OH237353   1.539   4.522  12.936 -0.4696  0.4148  0.2329
 5313TIP3    H137354   1.473   4.523  13.006 -1.0370  1.9303 -0.2936
 5313TIP3    H237355   1.575   4.611  12.937 -0.9257  0.6406 -1.7918
 5314TIP3   OH237356   4.742   3.260  11.950 -0.0880 -0.1193  0.2171
 5314TIP3    H137357   4.747   3.227  11.860 -2.5033  0.7783 -0.2635
 5314TIP3    H237358   4.794   3.197  12.001 -0.7709 -2.0700 -1.4094
 5315TIP3   OH237359   4.800   5.803  14.939 -0.0077  0.4405 -0.1409
 5315TIP3    H137360   4.874   5.862  14.924 -1.1157  1.6412 -0.9966
 5315TIP3    H237361   4.759   5.793  14.853  0.3621 -1.8726 -0.0825
 5316TIP3   OH237362   4.864   6.472  13.541 -0.1365  0.4850  0.5173
 5316TIP3    H137363   4.860   6.566  13.526 -0.7853  0.4567  0.4780
 5316TIP3    H237364   4.853   6.462  13.635  0.6500  0.4863  0.6078
 5317TIP3   OH237365   1.235   3.822  11.536 -0.5757  0.1211  0.5304
 5317TIP3    H137366   1.166   3.833  11.470 -0.5230  0.5344  0.5475
 5317TIP3    H237367   1.187   3.815  11.619 -0.5330  1.7571  0.7043
 5318TIP3   OH237368   1.498   1.871  11.421  0.1261 -0.4272  0.2408
 5318TIP3    H137369   1.471   1.836  11.336 -0.3742 -1.9261  0.9813
 5318TIP3    H237370   1.569   1.932  11.402 -0.0185 -0.7259 -1.2491
 5319TIP3   OH237371   0.243   5.554  12.506  0.0553 -0.4401  0.5100
 5319TIP3    H137372   0.176   5.617  12.480 -0.3708 -1.5020 -1.0171
 5319TIP3    H237373   0.200   5.499  12.572 -0.7539 -1.4232 -0.8148
 5320TIP3   OH237374   6.015   4.971  14.098 -0.7724 -0.2225  0.6161
 5320TIP3    H137375   6.032   4.892  14.048 -2.6000  0.6725 -1.4662
 5320TIP3    H237376   5.981   4.940  14.182 -0.1438 -1.6543  0.3443
 5321TIP3   OH237377   5.655   1.587  12.663  0.1579 -0.0154  0.2236
 5321TIP3    H137378   5.624   1.498  12.682  0.3296  0.2305  1.6903
 5321TIP3    H237379   5.750   1.580  12.667  0.1850  0.1208 -0.1924
 5322TIP3   OH237380   2.821   6.509  14.254  0.4615 -0.3539 -0.5783
 5322TIP3    H137381   2.844   6.592  14.213  0.1602  0.3803  0.7060
 5322TIP3    H237382   2.860   6.443  14.197  2.8922  0.7352 -0.2379
 5323TIP3   OH237383   4.270   3.427  13.895  0.2496 -0.0221  0.4166
 5323TIP3    H137384   4.343   3.367  13.882 -1.3430 -1.6493 -1.4066
 5323TIP3    H237385   4.290   3.501  13.836  0.9180  0.0389  0.7088
 5324TIP3   OH237386   3.282   4.703  11.435  0.0972 -0.0889 -0.6873
 5324TIP3    H137387   3.343   4.763  11.392  0.2142  0.0493 -0.3324
 5324TIP3    H237388   3.278   4.627  11.376 -1.3414  0.9554 -1.9720
 5325TIP3   OH237389   5.181   5.288  11.124 -0.2041  0.0396 -0.5772
 5325TIP3    H137390   5.156   5.355  11.059  0.7330  1.8361  0.8838
 5325TIP3    H237391   5.131   5.311  11.202 -1.5694 -2.3170 -0.7039
 5326TIP3   OH237392   3.669   4.783  12.391  0.0590 -0.7951  0.1596
 5326TIP3    H137393   3.744   4.753  12.340  0.0807  0.6473 -0.6804
 5326TIP3    H237394   3.594   4.773  12.333 -0.0026  0.3056  0.0348
 5327TIP3   OH237395   0.689   3.490  12.022 -0.8270 -0.0326 -0.6192
 5327TIP3    H137396   0.605   3.454  11.994 -1.0841 -0.2017  0.3500
 5327TIP3    H237397   0.750   3.417  12.015 -1.1035 -0.3582  0.2014
 5328TIP3   OH237398   4.963   6.867  11.345 -0.0814 -0.2125  0.4016
 5328TIP3    H137399   4.925   6.842  11.261 -0.1429 -0.4756  0.5066
 5328TIP3    H237400   4.898   6.841  11.410 -0.2307  0.4000  0.5024
 5329TIP3   OH237401   4.841   5.113  14.254 -0.2059  0.3205  0.1457
 5329TIP3    H137402   4.808   5.116  14.344  0.4828 -1.6548  0.4938
 5329TIP3    H237403   4.800   5.036  14.216 -1.0794  1.5702 -1.4991
 5330TIP3   OH237404   6.860   5.419  11.992 -0.0798  0.4603  0.1763
 5330TIP3    H137405   6.931   5.406  11.929 -1.1598 -1.6007 -0.6791
 5330TIP3    H237406   6.871   5.508  12.023  2.8194  0.2209 -0.0177
 5331TIP3   OH237407   3.184   5.664  12.359 -0.0572 -0.5474 -0.0341
 5331TIP3    H137408   3.192   5.637  12.268 -0.9255 -1.6481  0.2154
 5331TIP3    H237409   3.177   5.759  12.355  1.5780 -0.4490 -1.0060
 5332TIP3   OH237410   4.890   3.292  12.550  0.4224 -0.2704 -0.2867
 5332TIP3    H137411   4.895   3.196  12.552  1.4266 -0.2197 -0.1588
 5332TIP3    H237412   4.888   3.314  12.457  1.0406 -0.3764 -0.3271
 5333TIP3   OH237413   3.127   4.621  12.427 -0.7407 -0.4563  0.3555
 5333TIP3    H137414   3.058   4.558  12.410 -2.3452  0.9817  1.3918
 5333TIP3    H237415   3.144   4.614  12.521 -0.0589 -0.2001  0.2584
 5334TIP3   OH237416   3.329   3.747  15.294  0.9520  0.5334  0.6561
 5334TIP3    H137417   3.238   3.728  15.270  0.2053  1.3360  2.7518
 5334TIP3    H237418   3.377   3.746  15.210 -1.0057  0.3214 -0.4858
 5335TIP3   OH237419   5.984   4.549  14.750 -0.1799  0.1714 -0.2046
 5335TIP3    H137420   5.943   4.474  14.707  0.0648  0.1150 -0.3425
 5335TIP3    H237421   5.930   4.566  14.827 -0.6190  0.2662 -0.5265
 5336TIP3   OH237422   6.806   3.350  11.286  0.1290  0.7097  0.1881
 5336TIP3    H137423   6.714   3.361  11.263 -0.7563 -0.5119  2.8670
 5336TIP3    H237424   6.837   3.277  11.232 -0.2187  1.6599 -1.3157
 5337TIP3   OH237425   5.238   5.869  11.595 -0.0292 -0.2435  0.0016
 5337TIP3    H137426   5.262   5.777  11.597  1.7701  0.1964 -0.0184
 5337TIP3    H237427   5.143   5.870  11.607  0.3169 -1.9501  3.5189
 5338TIP3   OH237428   3.314   3.323  13.086 -0.2614  0.6443  0.9204
 5338TIP3    H137429   3.301   3.417  13.097 -3.2560  1.0546 -4.2823
 5338TIP3    H237430   3.362   3.315  13.003 -1.5706 -2.3725  0.3902
 5339TIP3   OH237431   5.092   6.158  11.243 -0.0424 -0.0736  0.0596
 5339TIP3    H137432   5.008   6.150  11.288  0.7791  0.1448  1.6963
 5339TIP3    H237433   5.157   6.141  11.312  1.2282 -1.4912 -1.4445
 5340TIP3   OH237434   3.591   2.303  14.399 -0.0339  0.7511 -0.3024
 5340TIP3    H137435   3.631   2.323  14.483  2.9804  1.8836 -1.9379
 5340TIP3    H237436   3.656   2.248  14.354 -1.2173  0.8763 -2.2137
 5341TIP3   OH237437   3.140   5.067  10.553 -0.1620  0.6537  0.0088
 5341TIP3    H137438   3.122   4.986  10.600  1.2755  1.0953  1.3600
 5341TIP3    H237439   3.234   5.082  10.565  0.0603  1.2822 -2.2197
 5342TIP3   OH237440   3.586   3.277  11.841  0.2265  0.1528  0.2195
 5342TIP3    H137441   3.618   3.357  11.798 -0.0100  1.0366  1.6326
 5342TIP3    H237442   3.665   3.234  11.873  0.4801 -1.0068 -1.9136
 5343TIP3   OH237443   5.191   5.640  10.497 -0.6107 -0.1568  0.1163
 5343TIP3    H137444   5.203   5.577  10.426 -0.4296 -0.3851  0.3463
 5343TIP3    H237445   5.171   5.723  10.453 -2.7365 -0.7760 -0.1407
 5344TIP3   OH237446   1.333   1.649  12.504 -0.2685  1.1694  0.0017
 5344TIP3    H137447   1.333   1.744  12.493 -0.5090  1.3445  1.4797
 5344TIP3    H237448   1.375   1.634  12.588 -1.4190  0.0494  0.4033
 5345TIP3   OH237449   5.149   6.717  12.746  0.0065 -0.1403  0.5018
 5345TIP3    H137450   5.101   6.640  12.718 -1.4949  0.9161  0.0684
 5345TIP3    H237451   5.173   6.699  12.837 -1.8144 -0.4420  0.9463
 5346TIP3   OH237452   4.623   3.060   9.700  0.3011  0.3726 -0.4754
 5346TIP3    H137453   4.598   3.024   9.615 -0.6376  1.0089 -0.4850
 5346TIP3    H237454   4.542   3.098   9.734  0.1551 -1.7833  1.6784
 5347TIP3   OH237455   4.377   5.352  13.844 -0.1763 -0.6863 -0.2967
 5347TIP3    H137456   4.433   5.275  13.837  0.8432 -0.1498  1.6233
 5347TIP3    H237457   4.431   5.424  13.811  0.2467 -0.1885  1.4294
 5348TIP3   OH237458   6.003   1.108  10.792  0.1856 -0.5575 -0.0403
 5348TIP3    H137459   6.025   1.024  10.833 -0.8234 -0.7156  0.2006
 5348TIP3    H237460   6.055   1.110  10.712  0.5438 -1.2225  0.1728
 5349TIP3   OH237461   4.037   3.948  11.786  0.2581 -0.2802  0.1023
 5349TIP3    H137462   4.042   3.856  11.760  0.7036 -0.0697 -0.5708
 5349TIP3    H237463   3.953   3.978  11.754  0.2121 -0.3918  0.1174
 5350TIP3   OH237464   4.991   5.064  15.631  0.3893 -0.4696  0.6925
 5350TIP3    H137465   4.990   4.998  15.561 -0.4159 -0.0402  0.3039
 5350TIP3    H237466   5.084   5.081  15.645  0.5314  0.5213 -1.2893
 5351TIP3   OH237467   1.330   5.493  12.377 -0.3590  0.2831 -0.6072
 5351TIP3    H137468   1.373   5.529  12.300  0.5171  1.1902  0.3035
 5351TIP3    H237469   1.274   5.564  12.409  0.4418  0.4334  0.4771
 5352TIP3   OH237470   6.725   4.361  12.939 -0.1487  0.1709  0.5618
 5352TIP3    H137471   6.811   4.326  12.916  0.1347 -0.5606  2.6401
 5352TIP3    H237472   6.676   4.358  12.858  2.1390  1.6909 -0.9541
 5353TIP3   OH237473   5.221   4.423  10.889 -0.3984 -0.3915 -0.3283
 5353TIP3    H137474   5.224   4.484  10.814 -1.7965 -1.0760 -0.9583
 5353TIP3    H237475   5.154   4.460  10.947 -0.1936 -0.5345 -0.0016
 5354TIP3   OH237476   5.928   4.921  13.807  0.1588  0.1425  0.0699
 5354TIP3    H137477   5.931   4.966  13.891 -2.5963 -0.5554  0.5744
 5354TIP3    H237478   5.912   4.990  13.743 -2.4104  0.1333  0.6606
 5355TIP3   OH237479   6.263   3.436  14.448 -0.2004  0.0544  0.4178
 5355TIP3    H137480   6.340   3.394  14.485 -0.3708 -0.3952  0.2686
 5355TIP3    H237481   6.293   3.523  14.419 -0.0366  0.3619  1.4905
 5356TIP3   OH237482   6.539   3.357  11.157 -0.4496 -0.3673  0.3631
 5356TIP3    H137483   6.589   3.320  11.084 -1.8235 -1.5744  0.0245
 5356TIP3    H237484   6.542   3.452  11.142  0.0564 -0.5497 -0.7579
 5357TIP3   OH237485   4.163   2.890  11.724 -0.5525  0.0121  0.4734
 5357TIP3    H137486   4.081   2.861  11.685 -0.5365 -0.8604  1.0817
 5357TIP3    H237487   4.137   2.948  11.795 -0.6377 -0.0183  0.4675
 5358TIP3   OH237488   4.984   1.728  11.918 -0.2738 -0.1237  0.7046
 5358TIP3    H137489   5.025   1.798  11.969 -0.6497 -0.9829  2.1854
 5358TIP3    H237490   5.021   1.647  11.954 -2.5893 -0.8713  1.4671
 5359TIP3   OH237491   5.242   2.833  14.199  0.3890 -0.3523  0.7819
 5359TIP3    H137492   5.215   2.897  14.264  0.4958 -0.6415  1.1114
 5359TIP3    H237493   5.283   2.885  14.130 -1.3098  0.1184  0.1098
 5360TIP3   OH237494   3.754   3.745  11.235 -0.3334  0.5901  0.0144
 5360TIP3    H137495   3.750   3.700  11.320 -0.6313 -1.5511 -1.0972
 5360TIP3    H237496   3.844   3.776  11.229  0.4983 -1.7423 -0.1062
 5361TIP3   OH237497   2.925   5.587  10.749 -0.2389 -0.3186  0.5979
 5361TIP3    H137498   3.015   5.591  10.781 -0.3046 -1.4030  0.9172
 5361TIP3    H237499   2.927   5.525  10.677 -0.6342  0.0362  0.2811
 5362TIP3   OH237500   2.238   2.208  11.967 -0.1926  0.0991 -0.8593
 5362TIP3    H137501   2.235   2.291  11.920 -1.6652  1.5245  1.7042
 5362TIP3    H237502   2.204   2.227  12.054 -1.8839 -3.4860 -0.6440
 5363TIP3   OH237503   0.191   5.589  11.924 -0.2266 -0.5623 -0.2110
 5363TIP3    H137504   0.272   5.633  11.896 -1.1531 -0.1535 -2.3639
 5363TIP3    H237505   0.216   5.540  12.002  1.6745  0.9943  0.1952
 5364TIP3   OH237506   4.085   5.417  14.193 -0.1878 -0.1524  0.1608
 5364TIP3    H137507   4.093   5.327  14.226  0.2494 -0.5771 -1.0596
 5364TIP3    H237508   4.176   5.446  14.182 -0.3205 -0.0498 -0.7046
 5365TIP3   OH237509   2.496   4.658  12.729  0.6930  0.5580  0.4035
 5365TIP3    H137510   2.453   4.730  12.774  0.3938  0.2070  0.6781
 5365TIP3    H237511   2.524   4.599  12.799  0.0150 -0.1083  0.1255
 5366TIP3   OH237512   2.556   4.200  13.053  0.0486 -0.3530 -0.4345
 5366TIP3    H137513   2.643   4.199  13.015  2.3093 -2.9937  4.3671
 5366TIP3    H237514   2.558   4.272  13.116 -0.7356 -1.3469  0.7464
 5367TIP3   OH237515   3.658   6.248  13.622  0.9244 -1.0833  0.0665
 5367TIP3    H137516   3.583   6.274  13.676  1.5141 -0.2324  0.4831
 5367TIP3    H237517   3.706   6.185  13.676  0.1996 -2.0725 -0.4304
 5368TIP3   OH237518   4.007   1.770  11.088  0.6127  0.3586 -0.6534
 5368TIP3    H137519   4.094   1.768  11.047  1.2693  0.5162  0.6898
 5368TIP3    H237520   3.975   1.681  11.080 -0.3756  0.9078 -3.7535
 5369TIP3   OH237521   2.109   3.957  12.977 -0.3299 -0.8269 -0.1361
 5369TIP3    H137522   2.109   3.977  12.884 -1.4720  0.7874  0.1966
 5369TIP3    H237523   2.017   3.939  12.998 -0.2995  0.2860  0.9875
 5370TIP3   OH237524   3.872   4.270  14.755  0.0878 -0.5971  0.0767
 5370TIP3    H137525   3.875   4.362  14.727 -0.9859 -0.3715  0.6814
 5370TIP3    H237526   3.871   4.274  14.851  0.4032 -1.2576  0.1106
 5371TIP3   OH237527   2.708   5.886  13.920  0.0377 -0.5961 -0.2823
 5371TIP3    H137528   2.674   5.934  13.844  2.0056 -1.0471 -1.4826
 5371TIP3    H237529   2.703   5.794  13.893  2.8011 -0.6305 -0.7565
 5372TIP3   OH237530   5.960   6.231  12.826 -0.3945 -0.2352  0.0657
 5372TIP3    H137531   5.916   6.181  12.895 -1.7130  1.6697  0.6409
 5372TIP3    H237532   5.913   6.208  12.746  0.5191 -1.6974 -0.0847
 5373TIP3   OH237533   5.097   4.652  13.411  0.1013  0.1726 -0.1437
 5373TIP3    H137534   5.054   4.722  13.362 -0.7435 -0.6780 -0.6572
 5373TIP3    H237535   5.031   4.582  13.415  0.7210 -0.3662  0.8572
 5374TIP3   OH237536   0.369   5.077  10.183  0.2524  0.1269 -0.6144
 5374TIP3    H137537   0.373   4.998  10.237 -1.5562  0.2757 -0.2354
 5374TIP3    H237538   0.458   5.112  10.184  0.1118  0.4834  2.7705
 5375TIP3   OH237539   4.505   2.405  15.521  0.1391  0.5375 -0.4966
 5375TIP3    H137540   4.500   2.500  15.519 -1.0627  0.4666 -0.8519
 5375TIP3    H237541   4.436   2.378  15.582  1.8975 -0.0078  1.3403
 5376TIP3   OH237542   4.948   4.573  11.375  0.0148 -0.8764  0.5436
 5376TIP3    H137543   5.043   4.567  11.386 -0.0560  0.5081  1.9583
 5376TIP3    H237544   4.924   4.659  11.408 -1.6046 -0.7603 -0.8558
 5377TIP3   OH237545   3.892   2.177  14.331  0.0248 -0.2052  0.3331
 5377TIP3    H137546   3.968   2.201  14.279  0.2812  0.2972  0.9238
 5377TIP3    H237547   3.840   2.120  14.274 -0.6474  1.8423 -1.1644
 5378TIP3   OH237548   2.513   3.400  11.763 -0.2652  0.4009  0.6515
 5378TIP3    H137549   2.602   3.391  11.729 -1.0319 -2.1280 -0.8146
 5378TIP3    H237550   2.466   3.449  11.696 -0.5382 -0.2871  0.3319
 5379TIP3   OH237551   5.601   6.819  14.187  0.5872  0.1476  0.3648
 5379TIP3    H137552   5.611   6.732  14.150 -0.3934  0.9549 -1.8642
 5379TIP3    H237553   5.512   6.820  14.222  0.5130  0.3375  0.1717
 5380TIP3   OH237554   2.749   3.693  13.658 -0.1112 -0.2606  0.8192
 5380TIP3    H137555   2.801   3.758  13.705  0.5252  0.0648 -0.3156
 5380TIP3    H237556   2.814   3.633  13.621 -0.6507 -1.0109  1.0617
 5381TIP3   OH237557   3.091   1.900  12.074 -0.1551 -0.2188  0.0635
 5381TIP3    H137558   3.119   1.915  11.984  1.9667 -0.9734  0.5676
 5381TIP3    H237559   3.012   1.954  12.084 -1.1831 -1.1552 -2.6205
 5382TIP3   OH237560   5.089   2.716  14.740 -0.2502 -0.4481  0.0050
 5382TIP3    H137561   5.060   2.625  14.751  0.1527 -0.8910 -2.2370
 5382TIP3    H237562   5.169   2.709  14.688 -0.0330  1.1795  0.1014
 5383TIP3   OH237563   4.507   5.110  11.883 -0.3922  0.3748  0.7136
 5383TIP3    H137564   4.456   5.083  11.807 -0.3912 -0.2993  0.9496
 5383TIP3    H237565   4.544   5.195  11.858 -1.2437  0.6493  0.3626
 5384TIP3   OH237566   6.060   4.504  13.426  0.4185 -0.4601  0.0816
 5384TIP3    H137567   6.113   4.479  13.502  1.7308  1.6107 -0.1448
 5384TIP3    H237568   5.971   4.478  13.450  1.0459 -1.1774  1.7019
 5385TIP3   OH237569   7.057   5.083  13.506  0.3750 -0.4509  0.5185
 5385TIP3    H137570   7.146   5.085  13.544  0.0306  1.7199  1.2718
 5385TIP3    H237571   7.071   5.100  13.413  0.7629 -0.1429  0.6271
 5386TIP3   OH237572   4.587   1.887  14.478 -0.1856 -0.0975 -0.0994
 5386TIP3    H137573   4.599   1.921  14.389  0.1854 -1.2446 -0.5047
 5386TIP3    H237574   4.544   1.803  14.465 -1.0137  0.1779  0.8741
 5387TIP3   OH237575   4.353   5.526  13.400 -0.3317 -0.3128 -0.1808
 5387TIP3    H137576   4.287   5.466  13.434 -1.3736  0.0437 -1.5282
 5387TIP3    H237577   4.429   5.470  13.380 -0.9074 -1.0181 -0.4077
 5388TIP3   OH237578   1.882   2.750  11.920  0.3094  0.1143  0.2523
 5388TIP3    H137579   1.848   2.679  11.975 -1.7130 -0.1242 -1.2314
 5388TIP3    H237580   1.907   2.818  11.982 -0.3181 -0.8216  1.5615
 5389TIP3   OH237581   6.976   3.811  12.797 -0.1944  0.5205  0.5638
 5389TIP3    H137582   7.032   3.781  12.869 -0.0732 -1.4574 -0.3362
 5389TIP3    H237583   7.037   3.827  12.725 -0.7081 -1.1445 -0.2612
 5390TIP3   OH237584   4.676   4.448   0.015  0.3507  0.1574  0.0310
 5390TIP3    H137585   4.611   4.490   0.072  1.1304  1.1726  0.1932
 5390TIP3    H237586   4.664   4.354   0.030 -0.8406  0.3480  0.3185
 5391TIP3   OH237587   6.773   4.426  13.197  0.0877 -0.6693 -0.7243
 5391TIP3    H137588   6.712   4.495  13.223 -1.6377 -2.0679 -0.9578
 5391TIP3    H237589   6.750   4.405  13.107  1.9852 -0.1110 -1.3580
 5392TIP3   OH237590   2.854   2.456  15.412  0.0145  0.2120  0.0954
 5392TIP3    H137591   2.779   2.461  15.353 -0.0997  0.3601  0.2509
 5392TIP3    H237592   2.847   2.370  15.453  0.6012 -0.2548 -0.7727
 5393TIP3   OH237593   4.525   4.544  12.296 -0.1824  0.0540 -0.4145
 5393TIP3    H137594   4.545   4.626  12.251 -1.5542  0.4332 -0.3383
 5393TIP3    H237595   4.546   4.562  12.388  0.6570 -0.0710 -0.5739
 5394TIP3   OH237596   0.750   3.962  13.099 -0.8442 -0.0215  1.0734
 5394TIP3    H137597   0.694   3.919  13.164 -1.3882 -0.3356  0.3990
 5394TIP3    H237598   0.747   3.905  13.023 -1.7340  1.3111  0.0917
 5395TIP3   OH237599   4.498   4.673  14.135 -0.4997 -0.3585  0.5976
 5395TIP3    H137600   4.488   4.626  14.218 -0.0704  1.3980  1.6700
 5395TIP3    H237601   4.587   4.708  14.137 -0.6975  0.2310 -0.3181
 5396TIP3   OH237602   4.953   3.484  15.400 -0.0874  0.3971 -0.2189
 5396TIP3    H137603   4.926   3.551  15.463 -0.4194 -0.5024  0.5942
 5396TIP3    H237604   4.891   3.413  15.412  1.5300 -0.9496  0.4074
 5397TIP3   OH237605   6.617   6.297  14.294 -1.3433  0.0117  0.2995
 5397TIP3    H137606   6.635   6.247  14.215 -2.0188  1.5692 -0.8697
 5397TIP3    H237607   6.699   6.340  14.315 -1.4222  0.3705 -0.1227
 5398TIP3   OH237608   4.471   3.258  14.453 -0.3045  0.0780  0.2919
 5398TIP3    H137609   4.469   3.162  14.456  0.7856  0.0061 -0.9455
 5398TIP3    H237610   4.514   3.278  14.370 -1.8526  1.6575 -0.1343
 5399TIP3   OH237611   5.543   7.198  10.807  0.6008 -0.0659 -0.6646
 5399TIP3    H137612   5.615   7.260  10.792  1.4808 -1.1975 -1.1969
 5399TIP3    H237613   5.586   7.113  10.813 -0.6649 -0.7008 -0.5485
 5400TIP3   OH237614   3.705   5.527  11.945  0.4405 -0.0152  0.2307
 5400TIP3    H137615   3.621   5.527  11.991  0.8610  0.6357  1.0132
 5400TIP3    H237616   3.689   5.478  11.865 -1.1652  1.6406 -0.4892
 5401TIP3   OH237617   2.042   5.437  12.065 -0.1178 -0.3574 -0.3988
 5401TIP3    H137618   2.119   5.417  12.119 -0.1815 -1.7150 -0.7846
 5401TIP3    H237619   2.070   5.419  11.975 -1.4178 -2.7058 -0.3860
 5402TIP3   OH237620   4.621   5.045  12.864  0.1068 -0.2813  0.6505
 5402TIP3    H137621   4.563   5.121  12.856  0.7914  0.1916  0.0576
 5402TIP3    H237622   4.568   4.971  12.833 -0.5206 -0.0246  1.1092
 5403TIP3   OH237623   5.194   5.453  10.904 -0.2217  0.3657  0.0614
 5403TIP3    H137624   5.115   5.496  10.871 -0.2304 -0.0999 -0.5399
 5403TIP3    H237625   5.253   5.451  10.829  0.4512  0.9094  0.5676
 5404TIP3   OH237626   5.731   0.821  14.237 -0.2962 -0.1393 -0.3014
 5404TIP3    H137627   5.652   0.799  14.286 -0.3659 -0.9612 -0.7781
 5404TIP3    H237628   5.802   0.817  14.302 -0.8438  2.1748  0.4840
 5405TIP3   OH237629   5.437   5.616  12.443 -0.2256 -0.1722  0.0998
 5405TIP3    H137630   5.365   5.675  12.422  1.0247  1.7657  1.0537
 5405TIP3    H237631   5.395   5.533  12.464 -2.1762  0.9159  0.6056
 5406TIP3   OH237632   3.950   5.820  14.559  0.3165 -0.4214  0.2837
 5406TIP3    H137633   3.916   5.767  14.488 -1.2234 -0.5428  1.0806
 5406TIP3    H237634   3.904   5.904  14.551 -0.9541 -0.9287  1.9768
 5407TIP3   OH237635   5.972   4.143  11.787 -0.6930 -0.2613 -0.1902
 5407TIP3    H137636   5.942   4.119  11.875  0.4614  0.5186  0.4168
 5407TIP3    H237637   6.067   4.135  11.791 -0.4029  2.7532 -0.4864
 5408TIP3   OH237638   4.393   5.027  11.648 -0.6875 -0.2424 -0.2239
 5408TIP3    H137639   4.387   5.069  11.563 -0.7052  1.7827  0.7539
 5408TIP3    H237640   4.303   4.999  11.668 -0.4645 -1.8898 -1.4131
 5409TIP3   OH237641   3.985   2.831  12.705  0.2834 -0.4795  0.4511
 5409TIP3    H137642   3.986   2.880  12.623  2.5569 -0.2373  0.5930
 5409TIP3    H237643   3.899   2.788  12.706  0.1164 -0.2786 -1.9265
 5410TIP3   OH237644   5.093   5.085  11.273  0.0093 -0.0314 -0.0615
 5410TIP3    H137645   5.137   5.141  11.208  0.8730 -0.3670  0.2162
 5410TIP3    H237646   5.019   5.136  11.303  0.6200  0.8508 -0.0320
 5411TIP3   OH237647   5.124   1.821  11.242  0.4042 -0.2681  0.2374
 5411TIP3    H137648   5.034   1.812  11.273  0.8464 -1.6060  1.1635
 5411TIP3    H237649   5.174   1.846  11.320  1.4453 -3.1655  0.5494
 5412TIP3   OH237650   4.433   3.625  15.975  0.0330 -0.6396 -0.0843
 5412TIP3    H137651   4.369   3.576  16.027 -2.3262  2.4950  0.1125
 5412TIP3    H237652   4.412   3.717  15.993  3.6692  0.4648 -1.2048
 5413TIP3   OH237653   3.566   5.866  13.843 -0.0945  0.5664  1.0050
 5413TIP3    H137654   3.487   5.919  13.847 -1.1747 -0.7766 -1.6162
 5413TIP3    H237655   3.623   5.913  13.781 -0.2288 -0.2651  0.2503
 5414TIP3   OH237656   6.791   4.657  15.227 -0.3929  0.1876  0.4010
 5414TIP3    H137657   6.850   4.714  15.179  1.6412 -0.6289  1.8670
 5414TIP3    H237658   6.722   4.715  15.260  0.6854  1.4798  0.3852
 5415TIP3   OH237659   5.493   3.272  14.431  0.3026 -0.0095  0.2273
 5415TIP3    H137660   5.516   3.210  14.500  0.6719 -0.0883  0.0370
 5415TIP3    H237661   5.552   3.251  14.359 -0.2649 -0.1030 -0.2164
 5416TIP3   OH237662   1.480   0.462  11.336  0.4294 -0.7498 -0.8285
 5416TIP3    H137663   1.513   0.430  11.252 -0.0110 -1.3174 -0.7859
 5416TIP3    H237664   1.411   0.525  11.312  0.8734 -0.2849 -0.9005
 5417TIP3   OH237665   1.029   6.828  13.171 -1.1112 -0.2156 -0.0423
 5417TIP3    H137666   1.096   6.813  13.238  1.2767  0.9795 -2.0925
 5417TIP3    H237667   0.973   6.750  13.176  1.4981 -2.1265  0.4909
 5418TIP3   OH237668   5.447   3.690  11.578 -0.0487 -0.5421  0.2357
 5418TIP3    H137669   5.506   3.738  11.520 -0.1422 -0.6446  0.0553
 5418TIP3    H237670   5.486   3.603  11.586  0.0878 -0.4582  0.5143
 5419TIP3   OH237671   5.012   2.622  11.654  0.1339  0.5433  0.1711
 5419TIP3    H137672   5.014   2.629  11.558  1.9694 -0.6443  0.0921
 5419TIP3    H237673   4.919   2.619  11.676 -0.3009  0.0468 -1.6497
 5420TIP3   OH237674   3.971   5.079  15.622  0.5474  0.1271  0.1144
 5420TIP3    H137675   4.045   5.117  15.668  1.1124  0.2805 -0.8990
 5420TIP3    H237676   3.972   5.121  15.536  0.9851 -1.9049 -0.9022
 5421TIP3   OH237677   6.219   5.247  12.428  0.1212  0.5014 -0.9774
 5421TIP3    H137678   6.140   5.226  12.378 -1.2409  2.9731  0.0545
 5421TIP3    H237679   6.230   5.341  12.417  1.0375  0.7248  1.5952
 5422TIP3   OH237680   6.695   5.239  12.340  0.2721  0.1966  0.3594
 5422TIP3    H137681   6.655   5.290  12.270 -0.7963  1.2576  1.6844
 5422TIP3    H237682   6.771   5.291  12.368  0.9083 -0.4052 -0.2602
 5423TIP3   OH237683   3.745   4.137  12.827 -0.4844 -0.2725  0.5565
 5423TIP3    H137684   3.823   4.156  12.774 -0.8789  0.8805  0.3827
 5423TIP3    H237685   3.707   4.059  12.785  1.1287 -1.4791  1.2679
 5424TIP3   OH237686   3.353   4.920  15.538 -0.5599 -0.6626 -0.0678
 5424TIP3    H137687   3.396   4.897  15.621 -0.4776 -1.7968 -0.4249
 5424TIP3    H237688   3.367   4.844  15.482 -2.6234 -0.8403 -0.3622
 5425TIP3   OH237689   6.357   4.818  13.922  0.0515 -0.6273  0.0193
 5425TIP3    H137690   6.334   4.735  13.964 -0.7634 -0.4746 -0.1118
 5425TIP3    H237691   6.286   4.833  13.859  0.1247  0.2309  0.1357
 5426TIP3   OH237692   6.456   4.981  11.662 -0.1020 -0.0676  0.4204
 5426TIP3    H137693   6.413   4.898  11.643 -1.1801  0.7756 -0.8804
 5426TIP3    H237694   6.439   5.036  11.585  1.7699  0.8911  0.6533
 5427TIP3   OH237695   5.536   6.527  14.099 -0.3972 -0.2479 -0.4358
 5427TIP3    H137696   5.450   6.532  14.058  0.5969  2.2950 -2.3428
 5427TIP3    H237697   5.587   6.470  14.042 -0.2248 -0.1286 -0.3996
 5428TIP3   OH237698   5.090   4.162  13.719 -0.2856  0.3817 -0.4853
 5428TIP3    H137699   5.029   4.193  13.652  2.6198  2.4113 -2.2723
 5428TIP3    H237700   5.121   4.241  13.762  1.8620 -0.5076 -0.3220
 5429TIP3   OH237701   1.870   3.944  11.917  0.0574  0.3258  0.2768
 5429TIP3    H137702   1.912   4.001  11.982 -0.5948  0.4319  0.6047
 5429TIP3    H237703   1.794   3.993  11.887  0.2997  0.2325 -0.5021
 5430TIP3   OH237704   2.142   3.662  13.211 -0.1525  0.4609  0.4988
 5430TIP3    H137705   2.180   3.589  13.260  2.2876  0.9963 -0.5316
 5430TIP3    H237706   2.111   3.723  13.278  0.8532  0.0282  1.3754
 5431TIP3   OH237707   4.700   5.725  13.826  0.0553 -0.1040 -0.7406
 5431TIP3    H137708   4.697   5.818  13.802 -1.8383  0.2710  0.8570
 5431TIP3    H237709   4.694   5.725  13.921 -2.3453 -1.9840 -0.8707
 5432TIP3   OH237710   6.367   3.990  14.297  0.3786  0.1709  0.0591
 5432TIP3    H137711   6.411   3.922  14.347  2.1294  1.4249  0.2761
 5432TIP3    H237712   6.389   4.071  14.343 -1.4182  0.9300 -0.3625
 5433TIP3   OH237713   3.316   5.283  11.837 -0.0038 -0.3762 -0.6577
 5433TIP3    H137714   3.357   5.197  11.838 -0.0448 -0.3933  0.3815
 5433TIP3    H237715   3.227   5.267  11.804 -0.3734 -0.9076  0.5801
 5434TIP3   OH237716   6.609   3.868  13.747  0.0158  0.1336  0.3967
 5434TIP3    H137717   6.546   3.799  13.728  0.6388 -0.0640 -0.9960
 5434TIP3    H237718   6.694   3.830  13.725  0.5814  0.5945  1.7057
 5435TIP3   OH237719   4.392   6.140  13.615 -0.5488  0.0431  0.2797
 5435TIP3    H137720   4.453   6.212  13.632 -0.0329 -0.4645  0.5745
 5435TIP3    H237721   4.312   6.166  13.661 -0.7855  1.0276 -0.6755
 5436TIP3   OH237722   4.108   6.435  12.014 -0.0314 -0.0412  0.4532
 5436TIP3    H137723   4.168   6.445  12.088  0.4947 -1.1539  0.1805
 5436TIP3    H237724   4.066   6.350  12.028 -0.2158 -0.0847 -0.3316
 5437TIP3   OH237725   6.281   5.924  13.773  0.1096  0.3035 -0.1336
 5437TIP3    H137726   6.267   6.011  13.809 -0.8339 -0.0274  0.3173
 5437TIP3    H237727   6.203   5.906  13.721  2.0818  1.3658 -3.6029
 5438TIP3   OH237728   4.087   2.577  12.031 -0.1862 -0.3227  0.3599
 5438TIP3    H137729   4.077   2.496  11.980  0.2763 -0.6059  0.7111
 5438TIP3    H237730   4.181   2.589  12.038 -0.2593  0.4147  0.0559
 5439TIP3   OH237731   6.223   3.925  12.726 -0.2359 -0.4452  0.0151
 5439TIP3    H137732   6.189   3.936  12.814 -1.3159  0.7371 -0.5267
 5439TIP3    H237733   6.315   3.903  12.738 -0.6675 -1.4865  1.4504
 5440TIP3   OH237734   4.907   0.540  12.897  0.6180 -0.5121 -0.1619
 5440TIP3    H137735   4.878   0.449  12.895  0.5989 -0.5201  0.5066
 5440TIP3    H237736   4.884   0.574  12.810 -0.2437 -0.8735 -0.0765
 5441TIP3   OH237737   4.533   5.546  14.289  0.1882  0.0383 -0.2078
 5441TIP3    H137738   4.486   5.493  14.354  1.6452 -2.8605 -1.4142
 5441TIP3    H237739   4.477   5.543  14.211  0.4792 -0.1278 -0.4121
 5442TIP3   OH237740   2.528   4.063  14.183  0.1399  0.0516  0.1267
 5442TIP3    H137741   2.600   4.035  14.240 -0.7478 -0.3686  1.0647
 5442TIP3    H237742   2.482   3.982  14.161  0.0824  0.2931 -0.6355
 5443TIP3   OH237743   5.342   5.066  11.654  0.3325 -0.1062 -0.0100
 5443TIP3    H137744   5.317   5.012  11.580  0.3768 -0.8638  0.5232
 5443TIP3    H237745   5.395   5.136  11.616  0.2920 -0.4481 -0.6996
 5444TIP3   OH237746   3.603   3.524  13.820 -0.1808  0.3768  0.1011
 5444TIP3    H137747   3.651   3.607  13.815 -2.0059  1.4475 -0.0565
 5444TIP3    H237748   3.566   3.523  13.908 -0.8167  0.0918 -0.1703
 5445TIP3   OH237749   7.151   5.403  13.861 -0.4184  0.1488 -0.3017
 5445TIP3    H137750   7.176   5.318  13.897  1.0275  1.3934  1.7013
 5445TIP3    H237751   7.210   5.416  13.787  0.8176  0.3500  0.7028
 5446TIP3   OH237752   3.715   4.076  12.303  0.3680  0.0143  0.6459
 5446TIP3    H137753   3.808   4.052  12.307  0.8232  1.4016 -1.2195
 5446TIP3    H237754   3.679   4.024  12.232  0.4389  1.7512 -0.6921
 5447TIP3   OH237755   5.129   5.090  10.220 -0.2398  0.8233  0.3430
 5447TIP3    H137756   5.065   5.031  10.181 -0.5615  1.6569 -0.3908
 5447TIP3    H237757   5.192   5.032  10.263 -1.3934 -0.0074  0.9455
 5448TIP3   OH237758   5.663   3.644  12.666 -0.5351 -0.1436  0.2521
 5448TIP3    H137759   5.605   3.668  12.738  0.4112 -0.7065  1.2293
 5448TIP3    H237760   5.636   3.699  12.593 -1.6599  0.2760  0.9713
 5449TIP3   OH237761   2.775   3.214  13.269  0.2154 -0.6298  0.1106
 5449TIP3    H137762   2.831   3.279  13.311 -0.0567  0.4576 -1.1619
 5449TIP3    H237763   2.692   3.260  13.254  0.0099 -1.2730 -0.7743
 5450TIP3   OH237764   4.495   3.798  12.552  0.3603  0.0431  0.4674
 5450TIP3    H137765   4.428   3.734  12.528  1.0962  0.1585 -2.0501
 5450TIP3    H237766   4.447   3.869  12.595 -1.0024 -0.2966 -0.4653
 5451TIP3   OH237767   5.194   0.788  12.927  0.0611  0.1131 -0.4676
 5451TIP3    H137768   5.158   0.800  12.839 -0.0234  2.3702 -0.1589
 5451TIP3    H237769   5.117   0.781  12.984  0.1212 -0.1379 -0.4145
 5452TIP3   OH237770   5.645   2.882  11.875 -0.1617 -0.2051  0.5212
 5452TIP3    H137771   5.652   2.878  11.971 -0.0796  1.6791  0.6197
 5452TIP3    H237772   5.733   2.906  11.846 -0.6995  1.4002  0.1468
 5453TIP3   OH237773   5.486   3.095  13.111  0.4779  0.0676  0.2394
 5453TIP3    H137774   5.572   3.085  13.152 -0.4671 -0.5033  2.1429
 5453TIP3    H237775   5.442   3.163  13.163 -0.4096  0.0038 -0.4042
 5454TIP3   OH237776   4.530   5.120  13.799  0.2969 -0.5679 -0.0174
 5454TIP3    H137777   4.453   5.067  13.821 -1.3808  2.4540  1.5975
 5454TIP3    H237778   4.580   5.125  13.880  1.3393 -1.0521 -0.6106
 5455TIP3   OH237779   6.823   4.818  11.951 -0.0285  0.0582 -0.2556
 5455TIP3    H137780   6.900   4.853  11.907 -0.5967 -0.1048 -1.3952
 5455TIP3    H237781   6.750   4.838  11.892 -0.5625 -1.6987 -0.2280
 5456TIP3   OH237782   3.827   5.617  14.384 -0.0080 -0.1671 -0.4175
 5456TIP3    H137783   3.732   5.622  14.380 -0.0876 -1.5857 -0.3443
 5456TIP3    H237784   3.846   5.532  14.424  1.2882  0.0410 -0.5570
 5457TIP3   OH237785   4.394   6.121  12.632 -0.0811 -0.8815 -0.2119
 5457TIP3    H137786   4.337   6.048  12.655 -0.7381 -0.3854 -0.2787
 5457TIP3    H237787   4.356   6.158  12.553  0.1533 -0.3517 -0.0771
 5458TIP3   OH237788   3.018   5.430  13.256 -0.2264  0.2010  0.0327
 5458TIP3    H137789   2.961   5.444  13.332  1.4739  1.6895  1.0894
 5458TIP3    H237790   3.019   5.514  13.211  1.9401  0.5289  0.6302
 5459TIP3   OH237791   5.116   3.353  13.627 -0.6806 -1.0835  0.3580
 5459TIP3    H137792   5.119   3.265  13.589 -2.1181 -0.7770 -0.5271
 5459TIP3    H237793   5.128   3.412  13.552  1.6614 -0.5282  1.1391
 5460TIP3   OH237794   5.276   4.056  12.539  0.3062  0.6025 -0.0685
 5460TIP3    H137795   5.323   4.133  12.573 -0.2014 -0.0597  2.2565
 5460TIP3    H237796   5.213   4.092  12.477  1.6484  1.8313 -0.7503
 5461TIP3   OH237797   4.611   6.003  14.294 -0.0860 -0.6994  0.3173
 5461TIP3    H137798   4.526   6.045  14.282 -0.8296 -1.2843  3.0914
 5461TIP3    H237799   4.662   6.066  14.346  0.6348 -1.0311  0.0259
 5462TIP3   OH237800   4.366   3.650  11.024 -0.1260  0.1058  0.0518
 5462TIP3    H137801   4.369   3.664  10.929 -1.1186  1.5533  0.2240
 5462TIP3    H237802   4.399   3.731  11.061 -0.0050 -0.3596  0.9660
 5463TIP3   OH237803   4.089   3.759  12.378 -0.2652 -0.0912  0.0783
 5463TIP3    H137804   4.049   3.709  12.450  1.8964  1.3909  2.3839
 5463TIP3    H237805   4.166   3.708  12.353  0.1171  0.4003  0.2264
 5464TIP3   OH237806   0.176   6.642  13.603  0.1058 -0.2739  0.0206
 5464TIP3    H137807   0.136   6.600  13.527 -0.9855 -0.8030  0.8592
 5464TIP3    H237808   0.127   6.723  13.613 -1.4123 -1.3421  1.5877
 5465TIP3   OH237809   0.811   4.147  12.564  0.0761  0.5805  0.4064
 5465TIP3    H137810   0.742   4.201  12.525 -0.0711 -0.7079 -1.1706
 5465TIP3    H237811   0.780   4.129  12.653 -1.2433  0.6921 -0.0195
 5466TIP3   OH237812   4.152   4.242  11.152 -0.1770 -0.2751  0.1622
 5466TIP3    H137813   4.206   4.167  11.177 -0.5589  0.2739  2.8281
 5466TIP3    H237814   4.206   4.318  11.175 -1.7832  0.2716  2.3139
 5467TIP3   OH237815   4.450   3.378  10.301  0.2343 -0.3281 -0.2882
 5467TIP3    H137816   4.415   3.441  10.237  0.7676  0.1793 -0.0876
 5467TIP3    H237817   4.405   3.296  10.280 -0.3223  0.0677 -0.6838
 5468TIP3   OH237818   5.513   4.246  10.367  0.3650  0.0746 -0.1547
 5468TIP3    H137819   5.533   4.195  10.288  0.5301 -2.2682  1.3339
 5468TIP3    H237820   5.598   4.279  10.396  0.8902 -2.2442  1.0990
 5469TIP3   OH237821   5.677   6.529  14.386 -0.3289  0.3732 -0.1181
 5469TIP3    H137822   5.709   6.475  14.459  0.4927  1.5019  0.3722
 5469TIP3    H237823   5.753   6.581  14.360 -0.9143  0.7410 -1.0843
 5470TIP3   OH237824   0.474   4.382  14.948  0.2964 -0.2979 -0.3116
 5470TIP3    H137825   0.493   4.314  15.012 -0.1790 -0.0074  0.1522
 5470TIP3    H237826   0.515   4.461  14.985  0.0040 -0.1258 -0.3506
 5471TIP3   OH237827   6.432   4.678  12.934 -0.5785  0.2777 -0.6284
 5471TIP3    H137828   6.458   4.655  12.845  0.1682  2.8893 -1.1541
 5471TIP3    H237829   6.394   4.766  12.925 -0.2642  0.6803  1.6523
 5472TIP3   OH237830   0.428   3.575  13.142  0.0742 -0.0702 -0.2179
 5472TIP3    H137831   0.490   3.502  13.145 -0.9388 -0.9511 -0.0173
 5472TIP3    H237832   0.344   3.533  13.123 -0.5345  1.0431 -0.0039
 5473TIP3   OH237833   5.002   4.931  11.806 -0.6463  0.0102  0.3600
 5473TIP3    H137834   5.072   4.899  11.749 -2.1441 -1.4741 -0.6928
 5473TIP3    H237835   4.951   4.990  11.749 -2.1831 -1.5218  0.1150
 5474TIP3   OH237836   0.593   3.627  12.548 -0.0323 -0.2123  0.2156
 5474TIP3    H137837   0.534   3.609  12.475  1.0224  1.4101 -1.0713
 5474TIP3    H237838   0.597   3.723  12.551  2.7631 -0.3018  0.0887
 5475TIP3   OH237839   6.962   3.764  12.349 -0.0132  0.1765  0.2061
 5475TIP3    H137840   6.902   3.824  12.393 -1.0766 -0.0946 -0.8664
 5475TIP3    H237841   6.969   3.798  12.260  0.5818 -0.4176  0.0273
 5476TIP3   OH237842   1.201   5.481  13.041 -0.3994  0.1237 -0.3313
 5476TIP3    H137843   1.282   5.441  13.072 -0.5397 -0.0764 -0.2176
 5476TIP3    H237844   1.228   5.537  12.968 -0.5502 -2.6291 -2.6447
 5477TIP3   OH237845   0.193   6.156  11.873 -0.0870 -0.3479  0.2197
 5477TIP3    H137846   0.151   6.241  11.857 -0.8989 -0.7245  0.3028
 5477TIP3    H237847   0.139   6.115  11.940  0.0467 -1.1115 -0.1346
 5478TIP3   OH237848   5.136   2.372  11.919 -0.1267 -0.0712  0.1645
 5478TIP3    H137849   5.208   2.341  11.974 -0.3662  1.0363  1.1133
 5478TIP3    H237850   5.173   2.447  11.872  0.0707 -1.0030 -1.1873
 5479TIP3   OH237851   5.202   4.800  11.652  0.0961 -0.3205  0.0804
 5479TIP3    H137852   5.281   4.854  11.659  0.2405 -0.6895  1.3485
 5479TIP3    H237853   5.202   4.770  11.561  2.3581 -1.7246  0.4973
 5480TIP3   OH237854   1.907   4.836  13.984 -0.4776 -0.0829  0.3170
 5480TIP3    H137855   1.827   4.886  13.999  0.3735  1.0882  1.0148
 5480TIP3    H237856   1.926   4.849  13.891 -0.6547  0.3030  0.3337
 5481TIP3   OH237857   1.322   3.799  10.692 -0.3056 -0.2193  0.1455
 5481TIP3    H137858   1.238   3.798  10.647 -0.6016 -2.7116  0.6623
 5481TIP3    H237859   1.386   3.778  10.624 -0.5320 -1.9779  0.4507
 5482TIP3   OH237860   5.993   5.261  12.299  0.3158  0.5037  0.4913
 5482TIP3    H137861   5.900   5.283  12.299  0.4072  0.8785  0.0218
 5482TIP3    H237862   6.004   5.202  12.224  0.9082  2.3506 -0.9129
 5483TIP3   OH237863   0.181   2.819  13.959 -0.1966  0.2060  0.3124
 5483TIP3    H137864   0.219   2.907  13.968  0.6631 -0.0531 -0.6590
 5483TIP3    H237865   0.167   2.809  13.865 -1.3946 -0.2464  0.5372
 5484TIP3   OH237866   0.227   3.400  13.198 -0.3460 -0.2129  0.3353
 5484TIP3    H137867   0.151   3.373  13.146 -0.0381 -2.2954  0.9403
 5484TIP3    H237868   0.190   3.453  13.268 -0.8719  1.7365 -1.3393
 5485TIP3   OH237869   7.147   3.879  13.680 -0.0300  0.0848 -1.3304
 5485TIP3    H137870   7.142   3.935  13.757 -0.1224 -0.8390 -0.6593
 5485TIP3    H237871   7.142   3.940  13.606 -0.3333  0.9403 -0.6192
 5486TIP3   OH237872   0.651   6.874  13.690  0.1890  0.3884  0.4366
 5486TIP3    H137873   0.604   6.843  13.767  0.1500 -0.4916  0.0673
 5486TIP3    H237874   0.676   6.964  13.711 -0.7704  0.5184  1.0369
 5487TIP3   OH237875   1.005   0.131  12.600 -0.2756  0.2215  0.1665
 5487TIP3    H137876   1.039   0.120  12.689  2.2412 -0.4934 -0.8629
 5487TIP3    H237877   1.002   0.226  12.586  0.3659  0.3039  0.6091
 5488TIP3   OH237878   4.023   6.033  14.288  0.2088  0.2355  0.5312
 5488TIP3    H137879   4.070   6.022  14.371 -0.8889  2.7626  1.5164
 5488TIP3    H237880   3.947   5.976  14.296 -1.6529  2.9276  2.6705
 5489TIP3   OH237881   6.834   6.576  13.098  0.3512 -0.4902  0.0478
 5489TIP3    H137882   6.746   6.586  13.134 -0.2845  1.0640 -1.7984
 5489TIP3    H237883   6.891   6.566  13.174 -0.9735  2.2192  1.4653
 5490TIP3   OH237884   6.859   4.443  11.621 -0.6591 -0.6803  0.4280
 5490TIP3    H137885   6.810   4.468  11.542  1.2255  1.1764 -0.2000
 5490TIP3    H237886   6.828   4.503  11.688  2.0414  1.8482 -0.4535
 5491TIP3   OH237887   5.625   5.442  12.739  0.1594  0.1081  0.4877
 5491TIP3    H137888   5.672   5.412  12.661  0.6220 -0.6238  1.0346
 5491TIP3    H237889   5.632   5.537  12.737 -1.0990  0.1648 -1.1428
 5492TIP3   OH237890   4.122   5.809  11.616 -0.7400  0.2561 -0.3413
 5492TIP3    H137891   4.056   5.781  11.552  0.4730  0.5086 -1.7418
 5492TIP3    H237892   4.110   5.903  11.623 -1.5617  0.0883  0.6152
 5493TIP3   OH237893   4.787   4.398  12.413 -0.1142  0.8967  0.1802
 5493TIP3    H137894   4.882   4.391  12.403  0.1532  1.6360  1.8962
 5493TIP3    H237895   4.760   4.461  12.347  0.7543  1.4998  0.3911
 5494TIP3   OH237896   6.294   5.410  13.491 -0.1199  0.1196 -0.1937
 5494TIP3    H137897   6.338   5.333  13.527 -1.0316 -0.0736  0.5213
 5494TIP3    H237898   6.201   5.389  13.495 -0.3795  1.2772  0.0739
 5495TIP3   OH237899   7.159   5.024  12.646  0.0625 -0.0351 -0.5604
 5495TIP3    H137900   7.077   4.988  12.612  1.0548 -1.9698 -0.9929
 5495TIP3    H237901   7.144   5.034  12.740 -0.3862 -1.1571 -0.5083
 5496TIP3   OH237902   0.531   4.917  15.116 -0.4929 -0.1627  0.1323
 5496TIP3    H137903   0.623   4.900  15.137 -0.6525 -2.6832 -0.9834
 5496TIP3    H237904   0.517   5.009  15.139  2.1501  0.0960  0.8308
 5497TIP3   OH237905   6.031   2.957  12.257 -0.1801 -0.3217 -0.1006
 5497TIP3    H137906   6.050   2.868  12.228  1.5263  0.3872 -1.2404
 5497TIP3    H237907   6.067   2.961  12.346  1.7886 -0.1114 -0.8841
 5498TIP3   OH237908   4.660   4.693  12.115 -0.2306  0.6291  0.0398
 5498TIP3    H137909   4.747   4.712  12.148 -0.7134  0.6880  1.3058
 5498TIP3    H237910   4.642   4.762  12.051  0.7617  0.4414 -0.4434
 5499TIP3   OH237911   0.693   4.591  14.655 -0.4161  0.1523  0.2656
 5499TIP3    H137912   0.703   4.505  14.694 -0.9142  0.2665  0.6515
 5499TIP3    H237913   0.652   4.575  14.570  1.6491 -0.1908 -0.6882
 5500TIP3   OH237914   7.004   3.601  14.436  0.4627 -0.0954  0.6359
 5500TIP3    H137915   7.002   3.693  14.408 -0.0117  0.4220  2.2997
 5500TIP3    H237916   7.079   3.595  14.495  1.5025 -1.1881 -0.7752
 5501TIP3   OH237917   1.446   5.125  12.195  0.2414  0.5435  0.6676
 5501TIP3    H137918   1.457   5.220  12.193 -2.0613  0.8289  1.0356
 5501TIP3    H237919   1.405   5.107  12.280  1.0353 -0.8248  0.7698
 5502TIP3   OH237920   5.788   4.712  10.604  0.7940 -0.2044 -0.6124
 5502TIP3    H137921   5.816   4.633  10.651  1.4368  0.3214 -0.1089
 5502TIP3    H237922   5.806   4.692  10.512 -0.8699 -1.4063 -0.7039
 5503TIP3   OH237923   4.842   6.724  13.443  0.1055  0.0441  0.0976
 5503TIP3    H137924   4.856   6.747  13.351 -0.1202 -1.3038 -0.2855
 5503TIP3    H237925   4.860   6.805  13.491 -1.1286  1.1354 -1.2356
 5504TIP3   OH237926   5.352   7.183  14.289 -0.4595 -0.3411  0.0660
 5504TIP3    H137927   5.313   7.214  14.371  0.5576 -0.8025  0.7355
 5504TIP3    H237928   5.391   7.261  14.250  1.0480 -0.5102  1.1598
 5505TIP3   OH237929   6.926   3.599  11.192  0.4762  0.0563  0.0080
 5505TIP3    H137930   7.021   3.593  11.200  0.4517  1.5286  1.6747
 5505TIP3    H237931   6.893   3.513  11.217  1.2838  0.0496  1.0440
 5506TIP3   OH237932   4.485   5.813  11.516 -0.2972  0.2382 -0.2901
 5506TIP3    H137933   4.434   5.892  11.532 -0.2058  0.4825 -1.1720
 5506TIP3    H237934   4.421   5.748  11.489 -0.4221 -0.1039  0.8360
 5507TIP3   OH237935   4.663   0.125  14.287 -0.3045 -0.2782  0.6699
 5507TIP3    H137936   4.695   0.089  14.204 -0.4680 -1.4827  1.1147
 5507TIP3    H237937   4.616   0.052  14.328  0.4870  0.0436  2.2002
 5508TIP3   OH237938   5.876   5.269  13.725 -0.0355 -0.3145 -0.0252
 5508TIP3    H137939   5.942   5.278  13.794 -1.5023 -2.2571  1.6664
 5508TIP3    H237940   5.820   5.347  13.735  1.0006  0.4992 -0.4320
 5509TIP3   OH237941   0.146   4.912  11.848 -0.1090  0.3934  0.0425
 5509TIP3    H137942   0.190   4.829  11.829 -1.9923 -0.7601  0.5809
 5509TIP3    H237943   0.194   4.948  11.923 -0.1885 -0.9339  0.7493
 5510TIP3   OH237944   5.562   3.881  11.409 -0.1700  0.2440  0.1367
 5510TIP3    H137945   5.636   3.916  11.459  0.8829 -0.8172 -0.6477
 5510TIP3    H237946   5.584   3.899  11.318 -1.6237  1.2896 -0.0304
 5511TIP3   OH237947   5.840   4.403  14.031 -0.1137  0.2392  0.3852
 5511TIP3    H137948   5.777   4.349  14.079 -0.6864  0.4082 -0.1744
 5511TIP3    H237949   5.788   4.449  13.966  0.7223 -0.2305 -0.6160
 5512TIP3   OH237950   5.083   4.475  12.558  0.3111 -0.0046 -0.1483
 5512TIP3    H137951   5.053   4.406  12.616  2.6657 -1.1808 -0.2545
 5512TIP3    H237952   5.099   4.550  12.615 -0.1547 -0.2541  0.3022
 5513TIP3   OH237953   5.094   4.315  12.866 -0.3070  0.0112 -0.1588
 5513TIP3    H137954   5.083   4.325  12.961  1.0011 -2.9860  0.3685
 5513TIP3    H237955   5.027   4.251  12.841 -0.3355  0.4353 -1.1797
 5514TIP3   OH237956   0.860   6.881  13.513  0.8830 -0.0942  0.1847
 5514TIP3    H137957   0.797   6.846  13.576  2.0210  0.0400  1.3981
 5514TIP3    H237958   0.901   6.803  13.474  0.8463 -0.1605  0.2798
 5515TIP3   OH237959   5.489   4.316  10.900 -0.5551 -0.1074  0.0624
 5515TIP3    H137960   5.509   4.409  10.911  1.2014 -0.3531 -0.7312
 5515TIP3    H237961   5.394   4.311  10.898 -0.6610  1.6426  0.3895
 5516TIP3   OH237962   5.340   4.570  12.450 -0.4250  0.0897  0.3511
 5516TIP3    H137963   5.254   4.539  12.478 -0.5579  0.5404  0.4433
 5516TIP3    H237964   5.333   4.665  12.453  0.1023  0.1254  0.4295
 5517TIP3   OH237965   0.195   2.679  11.886  0.5757 -0.0633 -0.0331
 5517TIP3    H137966   0.150   2.635  11.815  0.7545  0.5878 -0.5592
 5517TIP3    H237967   0.288   2.672  11.865  0.8211 -2.2740  1.5610
 5518TIP3   OH237968   4.398   4.035  12.692 -0.9829 -0.2272 -0.0067
 5518TIP3    H137969   4.366   4.110  12.742 -1.9301 -0.2286 -0.5844
 5518TIP3    H237970   4.321   4.004  12.644 -0.6825 -1.7742  0.4732
 5519TIP3   OH237971   6.867   3.776  13.742 -0.0714  0.3066 -0.3785
 5519TIP3    H137972   6.883   3.784  13.836 -1.9064 -0.2388  0.0028
 5519TIP3    H237973   6.945   3.813  13.701  1.5129 -1.0574  1.3478
 5520TIP3   OH237974   1.300   3.720  12.143  0.1155 -0.6776 -0.4910
 5520TIP3    H137975   1.296   3.627  12.163  0.9306 -0.9002 -1.3646
 5520TIP3    H237976   1.388   3.734  12.109  0.2056  0.5326  0.2223
 5521TIP3   OH237977   0.043   6.079  13.134  0.3328 -0.1537 -0.3626
 5521TIP3    H137978  -0.050   6.095  13.118 -0.1067 -0.4135  1.7722
 5521TIP3    H237979   0.084   6.165  13.123 -0.2820  0.1267 -0.4926
 5522TIP3   OH237980   1.386   4.384  13.458  0.4088 -0.1817 -0.0391
 5522TIP3    H137981   1.308   4.330  13.452  0.6244 -0.4818 -0.1637
 5522TIP3    H237982   1.353   4.474  13.465  0.0548 -0.3081 -0.0895
 5523TIP3   OH237983   5.102   3.764  11.017  0.5599 -0.2092  0.3156
 5523TIP3    H137984   5.193   3.763  11.047  0.6616 -1.8412 -0.0387
 5523TIP3    H237985   5.074   3.855  11.030  1.6516 -0.1183  2.1789
 5524TIP3   OH237986   0.049   4.220  11.658  0.1376 -0.0810  0.1931
 5524TIP3    H137987  -0.039   4.256  11.645 -0.1766 -1.2392 -0.9091
 5524TIP3    H237988   0.053   4.200  11.752 -0.4957  0.6679  0.3886
 5525TIP3   OH237989   5.608   5.552  11.248 -0.5135 -0.3678 -0.2178
 5525TIP3    H137990   5.689   5.595  11.219 -0.5767  0.6295  1.0468
 5525TIP3    H237991   5.636   5.466  11.279 -0.2011 -0.7489 -1.5048
 5526TIP3   OH237992   6.603   4.994  15.195  0.2416 -0.3376 -0.3280
 5526TIP3    H137993   6.553   5.075  15.194 -0.1708 -0.5807  0.5794
 5526TIP3    H237994   6.675   5.011  15.256 -0.9303 -1.2855  1.3731
 5527TIP3   OH237995   3.434   4.031  12.027 -0.1330  0.2432 -0.2527
 5527TIP3    H137996   3.385   3.962  11.982  0.4928 -1.5601  1.6932
 5527TIP3    H237997   3.509   3.985  12.066  0.6601  2.1574  0.5529
 5528TIP3   OH237998   6.064   4.521  12.980 -0.0584 -0.2180  0.4046
 5528TIP3    H137999   6.033   4.610  12.966 -0.1682 -0.5987 -2.0894
 5528TIP3    H238000   6.070   4.512  13.075 -0.6737  2.2129  0.7104
 5529TIP3   OH238001   4.867   0.208  11.354 -0.1803  0.0014  0.7466
 5529TIP3    H138002   4.955   0.173  11.338 -0.5349 -0.2033 -0.8387
 5529TIP3    H238003   4.864   0.289  11.303 -1.5366 -0.9482 -0.7505
 5530TIP3   OH238004   5.402   5.893  12.690 -0.2879  0.8348 -0.1009
 5530TIP3    H138005   5.389   5.869  12.599 -1.2887 -0.1339  0.2895
 5530TIP3    H238006   5.330   5.952  12.711 -1.1655 -0.4655  0.6004
 5531TIP3   OH238007   5.677   0.104  14.520 -0.1549  0.4528 -0.4055
 5531TIP3    H138008   5.705   0.114  14.429 -0.2491  2.1475 -0.2738
 5531TIP3    H238009   5.679   0.010  14.536  0.3175  0.1738 -2.0175
 5532TIP3   OH238010   5.062   2.173  12.841  0.2218  0.1588 -0.0022
 5532TIP3    H138011   5.006   2.164  12.918 -0.0911 -1.5739 -0.4175
 5532TIP3    H238012   5.140   2.220  12.874 -0.6984  1.0511  0.9470
 5533TIP3   OH238013   3.324   5.602  12.601 -0.3865  0.6334 -0.1676
 5533TIP3    H138014   3.350   5.511  12.583  1.5418  1.1459 -0.0444
 5533TIP3    H238015   3.286   5.633  12.519 -0.6820 -0.1346 -0.3346
 5534TIP3   OH238016   0.564   3.306  13.090  0.1423  0.7612  0.3134
 5534TIP3    H138017   0.481   3.293  13.045  0.2333 -0.9215  0.5843
 5534TIP3    H238018   0.626   3.248  13.044  0.4407 -0.3050  1.9856
 5535TIP3   OH238019   0.740   4.395  12.782  0.3179 -0.1829 -0.0043
 5535TIP3    H138020   0.700   4.364  12.701  2.7166  1.5946 -1.9251
 5535TIP3    H238021   0.707   4.484  12.792  2.7005  0.8184 -0.8935
 5536TIP3   OH238022   6.108   4.834  14.443  0.1791  0.3371 -0.1729
 5536TIP3    H138023   6.118   4.813  14.536  0.8034 -1.7864 -0.6836
 5536TIP3    H238024   6.191   4.875  14.418  1.6696 -2.8130 -0.6958
 5537TIP3   OH238025   1.254   3.550  13.950 -0.2617  0.1602  0.5804
 5537TIP3    H138026   1.304   3.513  13.877 -1.1373 -0.3496  0.2232
 5537TIP3    H238027   1.265   3.644  13.942 -0.0953  0.0917 -0.0230
 5538TIP3   OH238028   0.611   5.443  10.198 -0.3222 -0.5603 -0.1769
 5538TIP3    H138029   0.698   5.479  10.184  0.3153 -1.5674  1.0689
 5538TIP3    H238030   0.564   5.460  10.116  1.2261 -0.5208 -1.0731
 5539TIP3   OH238031   0.041   5.418  13.643 -0.0970 -0.0240 -0.5032
 5539TIP3    H138032   0.060   5.337  13.595  1.4867 -0.2509  0.4495
 5539TIP3    H238033   0.044   5.487  13.576 -2.6852 -0.8519 -1.5398
 5540TIP3   OH238034   1.354   6.082  15.551  0.3558  0.0161 -0.0344
 5540TIP3    H138035   1.360   5.996  15.511 -1.0914  0.9026 -2.2262
 5540TIP3    H238036   1.428   6.085  15.612  1.4156 -2.1176 -1.1687
 5541TIP3   OH238037   2.977   5.132  13.685  0.1272 -0.7980 -0.0990
 5541TIP3    H138038   2.930   5.060  13.727  2.4823 -1.8127  0.8922
 5541TIP3    H238039   3.013   5.093  13.605 -0.0977 -0.2240 -0.4835
 5542TIP3   OH238040   0.017   3.050  13.071 -0.3221  0.0321 -0.1213
 5542TIP3    H138041  -0.020   3.036  13.158  2.0187  2.6806  1.4046
 5542TIP3    H238042  -0.023   3.132  13.040  0.0635 -0.0341 -0.8255
 5543TIP3   OH238043   4.699   1.756  13.001 -0.1521 -0.6809  0.5402
 5543TIP3    H138044   4.612   1.794  12.997  0.3933  0.6078  0.7886
 5543TIP3    H238045   4.740   1.797  13.077  1.3536  0.1971 -0.7193
 5544TIP3   OH238046   4.864   7.132  14.255 -0.6365  0.0725  0.5591
 5544TIP3    H138047   4.790   7.092  14.209 -1.4065  0.6304  1.2906
 5544TIP3    H238048   4.871   7.219  14.217 -0.7109  0.2176  0.8764
 5545TIP3   OH238049   6.106   5.910  12.436 -0.4388  0.5275  0.1797
 5545TIP3    H138050   6.114   6.004  12.422 -0.0713  0.8207  2.1677
 5545TIP3    H238051   6.196   5.878  12.438 -0.4900  0.4110  1.1174
 5546TIP3   OH238052   0.782   5.234  13.465  0.2673  0.1431  1.2848
 5546TIP3    H138053   0.758   5.284  13.387  0.0487 -0.0694  1.2169
 5546TIP3    H238054   0.838   5.293  13.515 -0.0354  0.4792  1.2301
 5547TIP3   OH238055   6.115   0.688  12.173  0.3337 -0.1070  0.1346
 5547TIP3    H138056   6.108   0.648  12.260 -0.9870 -4.1702 -1.7229
 5547TIP3    H238057   6.208   0.683  12.152  0.8617  2.0884  1.7953
 5548TIP3   OH238058   0.484   4.842  11.800 -0.4830  0.0572  0.0339
 5548TIP3    H138059   0.476   4.798  11.885  2.5419  0.3639  0.5578
 5548TIP3    H238060   0.438   4.925  11.811 -1.5459 -0.6300  0.8309
 5549TIP3   OH238061   0.400   6.420  10.630  0.3110 -0.1831  0.2757
 5549TIP3    H138062   0.485   6.385  10.656  0.3342  0.2507  0.8104
 5549TIP3    H238063   0.368   6.359  10.564  0.7932 -0.6547  0.4697
 5550TIP3   OH238064   3.600   5.146  13.583 -0.2144 -0.2490 -0.3430
 5550TIP3    H138065   3.612   5.114  13.672  1.4878  0.9295 -0.1172
 5550TIP3    H238066   3.521   5.201  13.588  1.1213  1.6381  1.0001
 5551TIP3   OH238067   5.482   5.531  10.989  0.2672  0.1024  0.2900
 5551TIP3    H138068   5.526   5.530  11.074 -1.4508  1.0098  1.2078
 5551TIP3    H238069   5.426   5.453  10.990 -0.5522  0.6839  0.4371
 5552TIP3   OH238070   5.051   4.497  10.479 -0.5174  0.0049  1.0395
 5552TIP3    H138071   5.133   4.457  10.451 -0.5357 -0.5249  1.7234
 5552TIP3    H238072   5.022   4.549  10.404  1.0418  1.1387  1.2045
 5553TIP3   OH238073   2.491   4.503  15.465 -0.1028  0.5947  0.6483
 5553TIP3    H138074   2.436   4.490  15.542 -1.9959  1.6804 -0.4878
 5553TIP3    H238075   2.498   4.598  15.455 -1.0889  0.4771 -1.3449
 5554TIP3   OH238076   4.190   4.280  13.425  0.3489 -0.1656 -0.1024
 5554TIP3    H138077   4.219   4.247  13.341 -0.9170  0.4573 -0.8091
 5554TIP3    H238078   4.227   4.220  13.489  2.0448 -0.1395 -1.0416
 5555TIP3   OH238079   0.101   3.190  12.183  0.1928 -0.7240  0.4515
 5555TIP3    H138080   0.115   3.264  12.242 -0.1113  0.8512 -1.3834
 5555TIP3    H238081   0.029   3.141  12.223 -1.0644  1.1859  0.6357
 5556TIP3   OH238082   5.801   3.973  14.629 -0.3654  0.4219 -0.3169
 5556TIP3    H138083   5.735   3.920  14.584  0.1533 -1.5598  1.1789
 5556TIP3    H238084   5.883   3.955  14.584 -0.2224  0.1017  0.0648
 5557TIP3   OH238085   6.290   0.502  10.651  0.2660  0.0274  0.2069
 5557TIP3    H138086   6.345   0.427  10.625 -1.4928 -0.6578 -1.6436
 5557TIP3    H238087   6.222   0.506  10.584 -0.9503  1.9419  1.5246
 5558TIP3   OH238088   6.417   4.981  12.337  0.4081  0.0395  0.0605
 5558TIP3    H138089   6.340   4.928  12.316  0.5394  0.0481 -0.4380
 5558TIP3    H238090   6.403   5.064  12.291  0.1119  0.5157  0.9867
 5559TIP3   OH238091   6.789   5.054  11.306  0.6952  0.5536  0.3630
 5559TIP3    H138092   6.817   5.009  11.385 -1.1220  0.2437  0.8714
 5559TIP3    H238093   6.847   5.021  11.237  1.5954  0.0250  1.3625
 5560TIP3   OH238094   4.685   4.894  11.923 -0.2307 -0.3568 -0.2550
 5560TIP3    H138095   4.773   4.931  11.920 -0.2669 -0.2890 -0.4871
 5560TIP3    H238096   4.627   4.967  11.905 -0.1952 -0.9438 -2.8636
 5561TIP3   OH238097   1.077   4.645  15.986 -0.5279 -0.1004 -0.6206
 5561TIP3    H138098   1.066   4.654  16.081  1.6608 -0.3230 -0.3209
 5561TIP3    H238099   1.049   4.729  15.950 -2.8129 -0.5310  0.0668
 5562TIP3   OH238100   6.493   4.733  11.982 -0.5310 -0.1103  0.2398
 5562TIP3    H138101   6.519   4.814  12.028 -2.3906 -0.6318  2.3089
 5562TIP3    H238102   6.412   4.756  11.937 -1.4514 -0.9928  1.4213
 5563TIP3   OH238103   0.081   4.599  10.432 -0.9669 -0.1360  0.0278
 5563TIP3    H138104   0.051   4.682  10.471  0.2356  0.2461  0.1437
 5563TIP3    H238105   0.070   4.612  10.337  1.5890  1.1128 -0.1243
 5564TIP3   OH238106   1.122   6.396  13.100 -0.2551  0.0387 -0.6706
 5564TIP3    H138107   1.165   6.362  13.021  0.0950  1.4271 -1.0967
 5564TIP3    H238108   1.046   6.445  13.068 -0.9572 -0.6399 -0.0495
 5565TIP3   OH238109   6.072   3.510  10.702 -0.4676  0.3024 -0.2120
 5565TIP3    H138110   5.986   3.539  10.672 -1.1678 -1.1721  0.3121
 5565TIP3    H238111   6.075   3.417  10.682  1.0477  0.3436 -0.2811
 5566TIP3   OH238112   6.552   5.516  12.411  0.1017 -0.4671  0.0800
 5566TIP3    H138113   6.602   5.450  12.459 -0.2472 -0.1454  0.8967
 5566TIP3    H238114   6.617   5.582  12.387  0.0912 -0.0563  1.1291
 5567TIP3   OH238115   6.263   5.448  12.687  0.1008 -0.0175 -0.5110
 5567TIP3    H138116   6.272   5.470  12.595 -1.0450  0.6252 -0.4856
 5567TIP3    H238117   6.351   5.423  12.715  0.8510  1.6836 -1.2806
 5568TIP3   OH238118   4.764   6.023  11.023  0.0445  0.3178  0.1795
 5568TIP3    H138119   4.745   6.112  10.990 -3.1537 -0.0984  0.6930
 5568TIP3    H238120   4.703   5.967  10.975  1.6234 -1.5252  0.3060
 5569TIP3   OH238121   4.184   5.523  13.677 -0.0974  0.1088  1.0092
 5569TIP3    H138122   4.265   5.545  13.723  1.0178 -0.8295 -0.4472
 5569TIP3    H238123   4.207   5.445  13.626 -2.2999 -0.9489  1.5965
 5570TIP3   OH238124   0.545   7.046  12.145  0.3064  0.4382 -0.3484
 5570TIP3    H138125   0.601   6.971  12.128 -1.1073 -0.6768 -0.2005
 5570TIP3    H238126   0.490   7.018  12.219 -1.8930  0.6929 -1.8510
 5571TIP3   OH238127   3.859   3.732  13.169 -0.3553 -0.2303  0.2378
 5571TIP3    H138128   3.949   3.703  13.152 -0.0963  0.7940 -0.1299
 5571TIP3    H238129   3.869   3.814  13.217 -1.0926  0.4875 -0.8202
 5572TIP3   OH238130   4.947   4.123  10.804  0.1436 -0.1729  0.2150
 5572TIP3    H138131   4.958   4.056  10.872  0.5799 -0.6404 -0.3129
 5572TIP3    H238132   5.025   4.177  10.811 -1.1604  1.5538  2.0205
 5573TIP3   OH238133   6.313   5.301  13.794  0.4617 -0.0140  0.7584
 5573TIP3    H138134   6.249   5.260  13.852 -0.8008  1.2977  0.3362
 5573TIP3    H238135   6.397   5.262  13.819 -0.6659 -2.8000  0.3820
 5574TIP3   OH238136   7.036   5.369  10.689  0.0118 -0.6897  0.8088
 5574TIP3    H138137   7.011   5.381  10.781 -0.7503  0.0665  0.5140
 5574TIP3    H238138   7.105   5.304  10.691  2.2342  1.6130  2.2357
 5575TIP3   OH238139   5.159   2.972  10.688 -0.4507  0.2736 -0.7823
 5575TIP3    H138140   5.209   3.016  10.619 -0.6776  2.1402  0.2100
 5575TIP3    H238141   5.214   2.979  10.766 -1.2220  0.2768 -0.2331
 5576TIP3   OH238142   3.931   6.025  11.371  0.0082  0.3110 -0.1690
 5576TIP3    H138143   3.848   6.071  11.362  0.5360  1.0338 -1.4552
 5576TIP3    H238144   3.962   6.048  11.459 -2.7443 -2.6953  1.7171
 5577TIP3   OH238145   5.692   4.966  12.882  0.1672  0.0599  0.5606
 5577TIP3    H138146   5.773   5.000  12.919  1.0411 -0.0167 -1.2120
 5577TIP3    H238147   5.667   5.030  12.815 -2.0058  0.8034  2.0161
 5578TIP3   OH238148   0.237   0.726  11.258 -0.3376  0.0172 -0.9240
 5578TIP3    H138149   0.289   0.672  11.319  0.9318  1.6946 -0.4560
 5578TIP3    H238150   0.248   0.683  11.173  0.4226 -0.6308 -0.5151
 5579TIP3   OH238151   0.386   5.240  13.534 -0.0785 -0.6752  0.1029
 5579TIP3    H138152   0.429   5.188  13.466 -1.6997  0.7826 -2.1400
 5579TIP3    H238153   0.434   5.324  13.533 -1.3170  0.0357 -0.6155
 5580TIP3   OH238154   1.555   4.962  12.586 -0.5683 -0.5423 -0.0256
 5580TIP3    H138155   1.462   4.955  12.561 -0.5064 -1.9568  0.1295
 5580TIP3    H238156   1.601   4.976  12.503 -0.9448  0.5277 -0.0656
 5581TIP3   OH238157   4.596   6.478  11.993 -0.4820 -0.2798 -0.1662
 5581TIP3    H138158   4.683   6.462  11.956 -0.9517 -1.1434 -0.9301
 5581TIP3    H238159   4.554   6.538  11.931 -0.0772  0.9435  0.7299
 5582TIP3   OH238160   0.161   4.228  11.050  0.3210  0.6044 -0.1768
 5582TIP3    H138161   0.171   4.223  11.145 -0.5080  1.1381 -0.0621
 5582TIP3    H238162   0.210   4.152  11.017  0.8509  0.5815  0.6531
 5583TIP3   OH238163   0.132   5.576  10.697 -0.3365  0.0285  0.2526
 5583TIP3    H138164   0.046   5.617  10.686 -0.1308  0.2808 -0.4986
 5583TIP3    H238165   0.116   5.504  10.757 -0.9539  0.4465  0.6033
 5584TIP3   OH238166   0.960   4.974  13.037 -0.0218  0.1363  0.3130
 5584TIP3    H138167   0.916   5.039  13.093 -0.0887  0.4110 -0.0634
 5584TIP3    H238168   1.019   4.929  13.097  0.8052  1.2519  0.3613
 5585TIP3   OH238169   7.059   4.315  15.581  0.5048 -0.4527  0.0070
 5585TIP3    H138170   7.018   4.236  15.615 -1.1868 -0.3718 -1.7622
 5585TIP3    H238171   7.033   4.384  15.642 -0.8141 -0.6673 -0.3098
 5586TIP3   OH238172   6.748   5.207  12.682  0.1492 -0.0482 -0.0212
 5586TIP3    H138173   6.734   5.113  12.669 -0.2162 -0.0288  0.2483
 5586TIP3    H238174   6.838   5.222  12.654  0.4885 -0.6318  0.7502
 5587TIP3   OH238175   7.204   4.216  13.310 -0.5390 -0.0396  0.1830
 5587TIP3    H138176   7.213   4.130  13.350 -0.0445  0.0692  0.3071
 5587TIP3    H238177   7.110   4.227  13.299 -0.6770 -0.1311  1.2030
 5588TIP3   OH238178   5.058   5.400  12.782 -0.0064  0.0996 -0.4262
 5588TIP3    H138179   4.989   5.364  12.726 -1.6100  1.0294  0.9165
 5588TIP3    H238180   5.053   5.495  12.768  0.6278  0.2140  0.1092
 5589TIP3   OH238181   0.516   5.071  13.340  0.3278 -0.5289 -0.3151
 5589TIP3    H138182   0.466   5.007  13.290 -0.1690  1.0511 -1.8878
 5589TIP3    H238183   0.563   5.019  13.405 -0.0763 -2.4784 -1.5429
 5590TIP3   OH238184   7.059   4.478   0.949 -0.3584  0.0192 -0.0463
 5590TIP3    H138185   7.038   4.546   0.885 -0.1747 -0.2593 -0.3971
 5590TIP3    H238186   6.976   4.460   0.992 -0.8017 -0.9238 -1.2868
 5591TIP3   OH238187   6.535   5.651  14.311  0.3875  0.1969 -0.5543
 5591TIP3    H138188   6.552   5.709  14.237  0.1990  1.5725  0.4613
 5591TIP3    H238189   6.590   5.574  14.295  0.9156  0.8178 -1.7305
 5592TIP3   OH238190   6.713   4.933  11.611  0.5462  0.1109 -0.3418
 5592TIP3    H138191   6.700   4.838  11.607  0.8677  0.1448 -3.4432
 5592TIP3    H238192   6.626   4.970  11.602  0.5776  0.1087 -0.6781
 5593TIP3   OH238193   6.493   5.793  13.281 -0.4624  0.4257  0.2824
 5593TIP3    H138194   6.565   5.763  13.336 -0.0614  1.4963  0.3624
 5593TIP3    H238195   6.414   5.758  13.322  0.0567 -1.3673 -0.2151
 5594TIP3   OH238196   5.254   0.008  13.022  0.2747 -0.4219  0.0010
 5594TIP3    H138197   5.206  -0.016  13.101 -0.2052 -0.0149 -0.1615
 5594TIP3    H238198   5.193   0.064  12.973  0.5048 -0.8193 -0.7431
 5595TIP3   OH238199   0.620   5.573  13.005  0.2044 -0.0569  0.0420
 5595TIP3    H138200   0.651   5.606  12.921  0.4027 -1.2444 -0.3643
 5595TIP3    H238201   0.676   5.617  13.070 -1.7947  2.9974 -0.2299
 5596TIP3   OH238202   5.377   3.245  12.605 -0.6694 -0.1933 -0.1548
 5596TIP3    H138203   5.385   3.212  12.695  0.3280 -1.0227 -0.5294
 5596TIP3    H238204   5.458   3.216  12.562 -0.6554  1.1116 -1.0336
 5597TIP3   OH238205   5.644   5.063  12.059 -0.0935 -0.5074  0.9528
 5597TIP3    H138206   5.643   5.108  12.143 -0.1981  1.0240  0.1507
 5597TIP3    H238207   5.600   4.979  12.076 -0.9459  0.1770  2.1974
 5598TIP3   OH238208   0.259   4.857  12.576 -0.4789  0.4566 -0.0671
 5598TIP3    H138209   0.299   4.899  12.652 -1.0000  0.8118  0.0143
 5598TIP3    H238210   0.166   4.881  12.581 -0.5710  0.2402 -0.6480
 5599TIP3   OH238211   5.712   3.348  11.031  0.1228  0.0811  0.2578
 5599TIP3    H138212   5.694   3.354  10.937 -0.6835 -1.6825  0.2957
 5599TIP3    H238213   5.804   3.376  11.039  0.9645 -2.0908 -1.3719
 5600TIP3   OH238214   5.186   0.071  12.412 -0.3561  0.1748  0.1539
 5600TIP3    H138215   5.169   0.150  12.463 -2.8160 -0.2678  0.0583
 5600TIP3    H238216   5.215   0.103  12.327 -2.2672  0.9936 -0.2021
 5601TIP3   OH238217   4.081   3.707  13.399  0.2994  0.1483 -0.2563
 5601TIP3    H138218   4.032   3.636  13.356  1.5815 -0.1502 -1.2544
 5601TIP3    H238219   4.163   3.667  13.426  0.2456  0.7928  0.8817
 5602TIP3   OH238220   0.398   3.845  14.008 -0.4314  0.2713 -0.1052
 5602TIP3    H138221   0.355   3.858  13.924 -0.3051 -0.0411 -0.2190
 5602TIP3    H238222   0.491   3.858  13.991 -0.7134  3.6268  0.7007
 5603TIP3   OH238223   0.186   4.243  12.565  0.1205 -0.5171 -0.2004
 5603TIP3    H138224   0.157   4.184  12.495  0.1573 -1.0490  0.2368
 5603TIP3    H238225   0.185   4.330  12.524  0.0913 -0.8183 -0.8492
 5604TIP3   OH238226   1.263   4.399  11.607  0.1720  0.3072 -0.1999
 5604TIP3    H138227   1.275   4.370  11.516  1.9196 -1.2400  0.4950
 5604TIP3    H238228   1.220   4.484  11.599 -0.7634 -0.3161 -2.4472
 5605TIP3   OH238229   3.856   2.483  14.265  0.1439  0.0493  0.4766
 5605TIP3    H138230   3.773   2.528  14.281 -0.1847 -1.0684  2.0401
 5605TIP3    H238231   3.845   2.397  14.306  0.4233 -1.8371 -3.2202
 5606TIP3   OH238232   6.990   0.196  12.085 -0.2175  0.0101 -0.0070
 5606TIP3    H138233   7.007   0.273  12.031 -0.1932 -0.1428 -0.2206
 5606TIP3    H238234   6.958   0.230  12.168  1.3286  0.3207  0.4757
 5607TIP3   OH238235   5.550   4.316  11.395  0.0177  0.3744 -0.8080
 5607TIP3    H138236   5.606   4.374  11.343 -0.1992 -1.1554 -2.8286
 5607TIP3    H238237   5.611   4.258  11.441  0.1498  0.0538 -1.3869
 5608TIP3   OH238238   6.571   4.729  13.733  0.1758 -0.0261  0.6412
 5608TIP3    H138239   6.496   4.752  13.789 -0.2104 -1.3132  0.6719
 5608TIP3    H238240   6.549   4.764  13.647 -0.1749  0.1586  0.8070
 5609TIP3   OH238241   6.556   4.539  12.712  0.0587  0.0437 -0.3474
 5609TIP3    H138242   6.631   4.512  12.659  0.3353 -0.5343  0.3265
 5609TIP3    H238243   6.500   4.461  12.716  0.2263 -0.0341  0.5230
 5610TIP3   OH238244   5.172   3.443  12.499 -0.3322  0.1302 -0.0449
 5610TIP3    H138245   5.221   3.499  12.560 -5.1806  0.8740  3.4163
 5610TIP3    H238246   5.108   3.502  12.459 -3.5889 -2.2899  1.4596
 5611TIP3   OH238247   0.125   4.073  14.612 -0.1660  0.2212  0.2057
 5611TIP3    H138248   0.107   4.034  14.697  0.6381  0.2676  0.4021
 5611TIP3    H238249   0.185   4.145  14.630  3.2989 -2.2730 -0.8108
 5612TIP3   OH238250   6.377   5.567  13.102  0.0311 -0.2569  0.4009
 5612TIP3    H138251   6.342   5.562  13.192 -1.3580  2.2572  0.0621
 5612TIP3    H238252   6.469   5.545  13.111 -0.0736  0.0333  2.4797
 5613TIP3   OH238253   6.518   6.380  12.236  0.1366 -0.8901  0.0212
 5613TIP3    H138254   6.544   6.448  12.297 -1.4150  0.7455 -1.0891
 5613TIP3    H238255   6.464   6.321  12.288  2.2284 -1.7979  1.2031
 5614TIP3   OH238256   0.088   3.679  13.370  0.2193 -0.6072 -0.7066
 5614TIP3    H138257   0.134   3.743  13.315 -0.2677  0.2535 -0.1188
 5614TIP3    H238258   0.085   3.719  13.457 -1.9737 -0.4893 -0.8138
 5615TIP3   OH238259   4.855   4.674  11.843  0.0236  0.1484 -1.0373
 5615TIP3    H138260   4.800   4.625  11.903 -0.1321 -0.4016 -1.6263
 5615TIP3    H238261   4.824   4.764  11.849  0.9881  0.3927  0.8307
 5616TIP3   OH238262   1.225   4.399  12.657  1.0465 -0.1806 -0.3673
 5616TIP3    H138263   1.294   4.335  12.641  1.6189  0.3360 -0.0040
 5616TIP3    H238264   1.244   4.471  12.598  0.9464  0.0563 -0.1153
 5617TIP3   OH238265   4.543   4.624  12.559  0.9151  0.1008 -0.4454
 5617TIP3    H138266   4.506   4.554  12.612  0.4142  0.3089 -0.5206
 5617TIP3    H238267   4.510   4.705  12.599  2.2033  0.3310  0.1869
 5618TIP3   OH238268   4.802   4.297  11.222 -0.6238  0.7023 -0.0971
 5618TIP3    H138269   4.770   4.284  11.133 -2.1241 -1.6525  0.7466
 5618TIP3    H238270   4.896   4.278  11.217 -0.3510  2.3486 -1.5069
 5619TIP3   OH238271   3.700   2.094  11.209  0.2307  0.2011  0.3656
 5619TIP3    H138272   3.780   2.057  11.244 -0.5400 -1.7336  0.1338
 5619TIP3    H238273   3.638   2.022  11.208 -1.4059  1.5630  0.1560
 5620TIP3   OH238274   6.062   0.815  11.853 -0.3492 -0.5692  0.3118
 5620TIP3    H138275   6.135   0.777  11.804 -1.7433 -0.0102 -2.3333
 5620TIP3    H238276   6.018   0.741  11.894 -0.1369 -1.2564 -0.6964
 5621TIP3   OH238277   0.386   1.122  11.212 -1.0055  0.0632 -0.2391
 5621TIP3    H138278   0.397   1.049  11.273 -1.2367  0.1787 -0.0543
 5621TIP3    H238279   0.358   1.195  11.268 -0.5703  0.3524 -0.3888
 5622TIP3   OH238280   5.733   2.586  12.637 -0.4675  0.3681 -0.7612
 5622TIP3    H138281   5.726   2.490  12.636  0.1391  0.3124  0.0210
 5622TIP3    H238282   5.682   2.613  12.714  0.6075  0.5665 -0.1156
 5623TIP3   OH238283   4.920   6.099  14.130  0.2072 -0.2466  0.1407
 5623TIP3    H138284   4.826   6.088  14.146  0.2086 -0.4515  0.0138
 5623TIP3    H238285   4.936   6.049  14.050  0.7178 -1.5041  1.0140
 5624TIP3   OH238286   6.270   1.479  14.023 -0.1017 -0.2750 -0.2378
 5624TIP3    H138287   6.260   1.462  13.929 -2.8863  0.7874 -0.1686
 5624TIP3    H238288   6.215   1.555  14.040 -0.0294 -0.7484  2.3815
 5625TIP3   OH238289   5.002   5.005  14.521  0.5318  0.3936 -0.1332
 5625TIP3    H138290   5.055   4.932  14.552  1.6265  1.6221  0.9624
 5625TIP3    H238291   5.066   5.067  14.485 -0.3432  0.9734 -0.6975
 5626TIP3   OH238292   3.445   5.697  11.557  0.1617 -0.6338  0.4915
 5626TIP3    H138293   3.459   5.694  11.652 -0.2114 -0.1155  0.5608
 5626TIP3    H238294   3.521   5.745  11.523 -0.0186 -0.2744  0.5915
 5627TIP3   OH238295   6.938   6.164  13.212 -0.2460  0.0777  0.5611
 5627TIP3    H138296   6.847   6.136  13.219 -0.8256  1.5211 -0.8300
 5627TIP3    H238297   6.956   6.207  13.295 -1.2479  0.9383  0.3436
 5628TIP3   OH238298   6.939   5.631  12.815  0.0336  0.2533  0.0076
 5628TIP3    H138299   6.970   5.616  12.725  1.3040  1.4240  0.2394
 5628TIP3    H238300   7.018   5.647  12.866 -0.6788 -0.4410  1.3612
 5629TIP3   OH238301   7.161   4.039  14.208  0.4198  0.0771 -0.3313
 5629TIP3    H138302   7.179   4.131  14.226 -0.6029  0.3993 -0.8840
 5629TIP3    H238303   7.234   3.992  14.247  1.0023  1.1303 -0.1331
 5630TIP3   OH238304   5.444   5.615  13.827  0.1970  0.3749 -0.0123
 5630TIP3    H138305   5.393   5.684  13.869 -1.4947 -1.6961  1.4365
 5630TIP3    H238306   5.392   5.591  13.750  0.5602  0.4181 -0.2723
 5631TIP3   OH238307   5.062   5.698  12.755  0.4911 -0.1777 -0.1362
 5631TIP3    H138308   5.027   5.739  12.675 -0.5626 -0.1232  0.3491
 5631TIP3    H238309   5.144   5.745  12.772  0.5075  0.1014 -0.9425
 5632TIP3   OH238310   6.415   6.011  11.018  0.2860  0.0505  0.0873
 5632TIP3    H138311   6.509   6.025  11.031  0.4651 -1.0055 -0.0172
 5632TIP3    H238312   6.389   6.079  10.956  1.0755  0.0595 -0.2460
 5633TIP3   OH238313   5.033   4.495  12.254 -0.4536 -1.0427 -0.6975
 5633TIP3    H138314   5.076   4.477  12.338 -2.2638  0.0055  0.4660
 5633TIP3    H238315   5.082   4.442  12.191  1.5767 -1.0644  0.8432
 5634TIP3   OH238316   4.831   6.850  11.598  0.2618  0.0031 -0.4976
 5634TIP3    H138317   4.884   6.929  11.610  1.9934 -1.2821  0.6183
 5634TIP3    H238318   4.827   6.811  11.685  0.3353 -1.6989 -1.2455
 5635TIP3   OH238319   6.917   6.309  12.927 -0.2369  0.4865 -0.1510
 5635TIP3    H138320   6.919   6.387  12.982  1.0275  0.5500 -0.2720
 5635TIP3    H238321   6.855   6.331  12.857  1.2117  1.9605 -1.0138
 5636TIP3   OH238322   5.708   5.719  10.851  0.0581  0.1569  0.0561
 5636TIP3    H138323   5.767   5.763  10.790  2.6888 -2.4670  0.5589
 5636TIP3    H238324   5.702   5.779  10.926  2.0988  0.4987 -0.0241
 5637TIP3   OH238325   5.508   2.091  10.796  0.6597 -0.5076  0.1256
 5637TIP3    H138326   5.518   2.134  10.711  1.8058 -1.0080  0.0053
 5637TIP3    H238327   5.524   2.161  10.859 -2.6234  0.4675 -0.0204
 5638TIP3   OH238328   0.781   2.794  13.452 -0.4503 -0.3956 -0.3222
 5638TIP3    H138329   0.758   2.763  13.539  0.0645  0.3707  0.0946
 5638TIP3    H238330   0.772   2.889  13.457  1.3789 -0.1929 -0.5548
 5639TIP3   OH238331   6.289   5.658  13.367 -0.0717  0.6259  0.2281
 5639TIP3    H138332   6.290   5.569  13.401 -0.4672  0.8415  0.7986
 5639TIP3    H238333   6.208   5.663  13.316 -0.0252  0.6443  0.1553
 5640TIP3   OH238334   0.427   5.586  12.793  0.0456  0.5502 -0.3301
 5640TIP3    H138335   0.514   5.615  12.764 -0.9910  3.0315 -1.0706
 5640TIP3    H238336   0.434   5.491  12.796  2.8274  0.6996 -0.2524
 5641TIP3   OH238337   6.106   7.150  11.666 -0.3276 -0.1358 -0.3596
 5641TIP3    H138338   6.032   7.099  11.631 -0.8454 -0.8842  1.7740
 5641TIP3    H238339   6.151   7.090  11.725  0.9096  0.9180 -0.2039
 5642TIP3   OH238340   1.635   5.114  10.754  0.5836  0.5507  0.1321
 5642TIP3    H138341   1.630   5.084  10.845  0.3154 -0.5400 -0.2360
 5642TIP3    H238342   1.685   5.195  10.759  1.1821  0.1314  1.1656
 5643TIP3   OH238343   0.057   3.399  12.905  0.4975 -0.1775  0.5261
 5643TIP3    H138344   0.041   3.469  12.842  0.4819 -1.0267 -0.4214
 5643TIP3    H238345  -0.030   3.375  12.937  0.5558  0.6754  1.3406
 5644TIP3   OH238346   6.696   6.716  12.821  0.4358 -0.3407  0.2194
 5644TIP3    H138347   6.611   6.744  12.856  0.4296  0.1421 -0.1883
 5644TIP3    H238348   6.741   6.678  12.897 -0.2466 -0.8491  0.3826
 5645TIP3   OH238349   4.265   3.264  10.478  0.6531  0.2693 -0.5042
 5645TIP3    H138350   4.349   3.223  10.501  1.3801  0.5408 -2.5405
 5645TIP3    H238351   4.289   3.350  10.444 -0.5469  0.7873 -0.0527
 5646TIP3   OH238352   6.477   7.046  12.732  0.4958 -0.1683  0.2285
 5646TIP3    H138353   6.426   6.967  12.750 -0.2799  0.3205  0.1863
 5646TIP3    H238354   6.422   7.118  12.763  1.9982  0.2444  1.9821
 5647TIP3   OH238355   1.236   5.183  10.664 -0.2178  0.3472  0.4037
 5647TIP3    H138356   1.222   5.160  10.756  0.1744  1.5412  0.7759
 5647TIP3    H238357   1.165   5.140  10.617  1.4776 -3.0975  0.8176
 5648TIP3   OH238358   4.591   3.978  12.020  0.0326  0.3070 -0.3120
 5648TIP3    H138359   4.635   3.895  12.000  1.3277  0.7399  0.6770
 5648TIP3    H238360   4.528   3.989  11.949  0.0541 -1.3769 -0.6223
 5649TIP3   OH238361   0.394   5.406  14.928  0.4463  0.2393 -0.4174
 5649TIP3    H138362   0.439   5.486  14.955  0.5005 -0.4708  1.6505
 5649TIP3    H238363   0.306   5.435  14.904  0.8564  1.0906 -0.9129
 5650TIP3   OH238364   6.817   1.777  11.180  0.4605  0.4939  0.2376
 5650TIP3    H138365   6.898   1.825  11.161  0.4289  0.2460 -0.5245
 5650TIP3    H238366   6.755   1.808  11.114  0.2780 -0.1791  0.0899
 5651TIP3   OH238367   6.865   1.587  12.767 -1.0680  0.2898 -0.1276
 5651TIP3    H138368   6.849   1.554  12.679  0.7463 -2.0860  0.3576
 5651TIP3    H238369   6.955   1.620  12.765 -0.6071 -0.8315  1.0803
 5652TIP3   OH238370   6.726   6.338  13.592 -0.3358  0.4548  0.3417
 5652TIP3    H138371   6.640   6.365  13.559  0.1620  0.9551 -0.5673
 5652TIP3    H238372   6.724   6.358  13.685 -1.0295  0.9151  0.2289
 5653TIP3   OH238373   2.373   6.528  14.816 -0.2994  0.9082  0.4962
 5653TIP3    H138374   2.410   6.600  14.868  0.3848  2.8261 -2.5199
 5653TIP3    H238375   2.280   6.548  14.810 -0.0518  1.7873 -0.6421
 5654TIP3   OH238376   6.986   0.234  10.918  0.5792 -0.7144 -0.3206
 5654TIP3    H138377   6.929   0.204  10.988  1.6033  0.2596  0.9466
 5654TIP3    H238378   6.946   0.199  10.838 -3.7344  2.5893  0.1422
 5655TIP3   OH238379   1.290   3.069  11.019 -0.0045  0.2954  0.1649
 5655TIP3    H138380   1.241   3.022  11.087 -0.2785 -0.3797 -0.4975
 5655TIP3    H238381   1.222   3.110  10.965  0.2208  1.0736  0.4634
 5656TIP3   OH238382   6.371   0.408  11.804 -0.0626  0.0942  0.8686
 5656TIP3    H138383   6.285   0.393  11.844 -0.1115  0.3174  0.8471
 5656TIP3    H238384   6.357   0.481  11.744  0.0749 -0.0648  0.6431
 5657TIP3   OH238385   5.183   6.254  13.177  0.8777  0.1161 -0.1207
 5657TIP3    H138386   5.168   6.160  13.168 -4.0785  0.6292  1.2682
 5657TIP3    H238387   5.146   6.276  13.262 -0.5788  3.7494 -1.5806
 5658TIP3   OH238388   1.606   5.060  12.841 -0.1645  0.6608  0.3268
 5658TIP3    H138389   1.614   5.149  12.805 -0.2363  0.1251 -1.0275
 5658TIP3    H238390   1.595   5.004  12.765 -2.2192 -0.2926  1.2715
 5659TIP3   OH238391   1.279   6.497  14.764 -0.2981 -0.3748 -0.4416
 5659TIP3    H138392   1.360   6.540  14.789 -0.5173  0.3085 -0.9156
 5659TIP3    H238393   1.254   6.446  14.842 -1.0058  1.7874  0.7766
 5660TIP3   OH238394   0.846   4.860  14.020  0.5934  0.0621  0.4486
 5660TIP3    H138395   0.882   4.771  14.020 -2.8588 -1.4453  1.0532
 5660TIP3    H238396   0.839   4.882  13.927 -0.9698 -1.4352  0.1704
 5661TIP3   OH238397   0.481   7.154  10.492 -0.0415 -0.1129  0.1036
 5661TIP3    H138398   0.430   7.100  10.553  0.3148 -0.2614  0.2722
 5661TIP3    H238399   0.465   7.115  10.406  0.7265 -0.8788  0.3075
 5662TIP3   OH238400   6.837   0.230  13.149  0.6026  0.4100  0.3816
 5662TIP3    H138401   6.742   0.221  13.146  0.5301  1.0133  0.7789
 5662TIP3    H238402   6.853   0.324  13.144  1.1076  0.4199  1.7140
 5663TIP3   OH238403   7.227   7.275  13.019  0.1582  0.2511 -0.4009
 5663TIP3    H138404   7.196   7.365  13.007  0.7822  0.5637  0.2631
 5663TIP3    H238405   7.260   7.248  12.933 -0.4738  0.4870 -0.7160
 5664TIP3   OH238406   1.044   6.772  12.899 -0.3085  0.2083  0.0261
 5664TIP3    H138407   1.051   6.776  12.994 -1.6849 -1.5741  0.2209
 5664TIP3    H238408   1.132   6.797  12.868 -0.1962  1.9874  1.6935
 5665TIP3   OH238409   6.309   7.169  14.431 -0.2384 -0.1963  0.4240
 5665TIP3    H138410   6.255   7.133  14.361  1.4108  1.3343 -1.6912
 5665TIP3    H238411   6.259   7.244  14.463  0.8874  1.6813 -2.0395
 5666TIP3   OH238412   4.083   6.643  12.334  0.1413 -0.7785  0.4759
 5666TIP3    H138413   4.164   6.598  12.307  0.0391 -1.5686  1.4804
 5666TIP3    H238414   4.110   6.701  12.405  0.3404  1.0581 -1.0365
 5667TIP3   OH238415   6.237   6.786  12.495 -0.2876 -0.0015 -0.3201
 5667TIP3    H138416   6.322   6.787  12.452 -0.9847 -0.6684 -1.7596
 5667TIP3    H238417   6.204   6.697  12.481 -1.5884  0.4963 -0.5594
 5668TIP3   OH238418   0.638   5.397  11.294 -0.4459  0.3050  0.5118
 5668TIP3    H138419   0.628   5.374  11.201  1.0644 -1.9132  0.8663
 5668TIP3    H238420   0.614   5.489  11.298 -1.1677  0.2709 -1.9820
 5669TIP3   OH238421   7.006   0.561  13.286  0.5039 -0.0376 -0.3389
 5669TIP3    H138422   7.073   0.629  13.284  1.1408 -0.6007  1.1160
 5669TIP3    H238423   6.977   0.553  13.195  0.9594  1.6270 -0.6425
 5670TIP3   OH238424   1.720   0.937  13.037  0.3566 -0.1125 -0.6487
 5670TIP3    H138425   1.683   0.985  13.111 -0.5092  1.0829 -1.8250
 5670TIP3    H238426   1.685   0.848  13.046 -0.6939  0.3308 -0.2874
 5671TIP3   OH238427   6.152   0.229  12.361  0.1016 -0.0208  0.0503
 5671TIP3    H138428   6.166   0.164  12.430 -1.9871 -0.5013  0.0282
 5671TIP3    H238429   6.081   0.194  12.308  1.3784  0.5483 -2.1205
 5672TIP3   OH238430   4.116   6.909  12.775 -0.4773  0.0023  0.0207
 5672TIP3    H138431   4.127   7.002  12.797 -0.7074  0.6435 -2.3841
 5672TIP3    H238432   4.081   6.869  12.854 -0.5393  2.0150  1.0353
 5673TIP3   OH238433   2.224   5.127  13.047 -0.1551 -0.1432 -0.2472
 5673TIP3    H138434   2.214   5.207  12.996 -0.7656 -1.5568 -2.4036
 5673TIP3    H238435   2.157   5.068  13.012  1.3512 -2.1603  0.1848
 5674TIP3   OH238436   7.050   5.637  12.523  0.6894  0.3303  0.4144
 5674TIP3    H138437   7.004   5.688  12.456 -1.5743 -1.1002  0.8444
 5674TIP3    H238438   7.140   5.632  12.491 -0.1212  0.5295 -2.0274
 5675TIP3   OH238439   2.388   0.329  13.216 -0.4511 -0.1352  0.3513
 5675TIP3    H138440   2.330   0.395  13.254 -0.6748 -0.0273 -0.1681
 5675TIP3    H238441   2.402   0.359  13.126  0.7800  0.0829  0.6141
 5676TIP3   OH238442   0.299   0.371  11.414 -0.1267 -0.3458  0.8506
 5676TIP3    H138443   0.288   0.324  11.496  0.1112 -1.3833  0.3009
 5676TIP3    H238444   0.350   0.311  11.359 -0.6619  0.1578 -0.2036
 5677TIP3   OH238445   0.847   0.720  12.844 -0.5706  0.1014 -0.1431
 5677TIP3    H138446   0.940   0.702  12.826 -0.0180  2.0708  0.6671
 5677TIP3    H238447   0.812   0.753  12.762 -0.7554 -1.3683 -0.6695
 5678TIP3   OH238448   3.505   6.532  12.020 -0.3641 -0.0261 -0.0753
 5678TIP3    H138449   3.470   6.621  12.016  0.3187  0.2597  0.1455
 5678TIP3    H238450   3.455   6.483  11.955 -1.3797  0.2960  0.4572
 5679TIP3   OH238451   2.381   5.448  12.536 -0.1910 -0.7747 -1.0083
 5679TIP3    H138452   2.469   5.425  12.505 -1.0725 -2.9250 -2.0125
 5679TIP3    H238453   2.376   5.410  12.623 -0.2731 -0.9925 -1.1083
 5680TIP3   OH238454   1.202   7.162  11.952 -0.0703 -0.1852  0.6052
 5680TIP3    H138455   1.178   7.188  12.041  0.6650  0.6854  0.5494
 5680TIP3    H238456   1.292   7.131  11.959  1.0610  2.7014 -0.3455
 5681TIP3   OH238457   6.536   1.370  12.128  0.0533  0.8228 -0.6477
 5681TIP3    H138458   6.557   1.292  12.180  2.0818  3.1634  2.2043
 5681TIP3    H238459   6.547   1.342  12.037  1.4374 -2.0293  0.3447
 5682TIP3   OH238460   0.089   5.128  12.633 -0.1859  0.1295  0.5308
 5682TIP3    H138461   0.000   5.091  12.626  0.0809 -0.4158 -0.1124
 5682TIP3    H238462   0.104   5.138  12.727 -0.8957  0.1423  0.6477
 5683TIP3   OH238463   6.036   4.878  13.334 -0.0501  0.0205  0.6512
 5683TIP3    H138464   5.968   4.945  13.325 -0.3158 -0.5240 -1.5530
 5683TIP3    H238465   6.115   4.918  13.298  0.5244  0.2179  2.1021
 5684TIP3   OH238466   0.628   6.021  12.722  0.2563 -0.1489 -0.1534
 5684TIP3    H138467   0.591   6.101  12.760  2.0076  0.6395 -0.0764
 5684TIP3    H238468   0.582   6.011  12.638 -0.5775  0.4568  0.2252
 5685TIP3   OH238469   0.523   6.608  11.510 -0.0557  0.1040  0.3363
 5685TIP3    H138470   0.505   6.515  11.497 -0.6253  0.0406  1.4619
 5685TIP3    H238471   0.564   6.636  11.429 -0.3546 -1.0121 -0.2191
 5686TIP3   OH238472   6.786   6.983  13.032 -0.1786 -0.3160 -0.0971
 5686TIP3    H138473   6.769   7.072  13.002  1.2780 -0.1475 -0.4260
 5686TIP3    H238474   6.698   6.944  13.041 -0.8261  1.1843  0.2201
 5687TIP3   OH238475   1.631   6.418  13.918  0.3219  0.2863  0.4764
 5687TIP3    H138476   1.675   6.454  13.995 -0.3014  2.3492 -0.0998
 5687TIP3    H238477   1.703   6.392  13.859  0.7859  0.6542  0.8778
 5688TIP3   OH238478   0.037   0.171  12.274  0.2729  0.1332 -0.1421
 5688TIP3    H138479   0.096   0.165  12.349 -0.3058  0.2198  0.3169
 5688TIP3    H238480   0.026   0.265  12.259  1.8588  0.1318 -1.4956
 5689TIP3   OH238481   4.402   0.796  15.353  0.0981  0.1706  0.3642
 5689TIP3    H138482   4.405   0.843  15.436  0.3293  1.4927 -0.3871
 5689TIP3    H238483   4.472   0.835  15.301  1.9325 -2.6472  0.5772
 5690TIP3   OH238484   0.703   0.253  12.513 -0.2486  0.5569 -0.4257
 5690TIP3    H138485   0.718   0.162  12.491  1.1475  0.9148 -1.0038
 5690TIP3    H238486   0.683   0.295  12.429 -0.7852  0.8084 -0.1773
 5691TIP3   OH238487   4.609   0.464  14.210 -0.3924 -0.5724 -0.4501
 5691TIP3    H138488   4.701   0.475  14.234 -0.2252 -2.5658 -0.0433
 5691TIP3    H238489   4.608   0.384  14.157 -1.9687 -0.9012  0.0530
 5692TIP3   OH238490   0.571   6.876  12.643  0.6173  0.1166  0.6333
 5692TIP3    H138491   0.574   6.783  12.665 -1.6186 -0.0331  0.3637
 5692TIP3    H238492   0.662   6.898  12.619  0.7038 -2.5954 -1.8321
 5693TIP3   OH238493   1.739   6.372  10.788 -0.2161 -0.1609  0.1656
 5693TIP3    H138494   1.770   6.374  10.878 -0.1821 -0.2185  0.1556
 5693TIP3    H238495   1.728   6.464  10.764  3.3830  0.0530 -1.0201
 5694TIP3   OH238496   3.018   6.600  10.903 -0.2485  0.7258  0.3288
 5694TIP3    H138497   2.954   6.531  10.888 -0.1870  0.3209  1.8921
 5694TIP3    H238498   3.103   6.557  10.893 -0.2028  0.3858  2.0412
 5695TIP3   OH238499   5.973   0.803  14.881 -0.2938 -0.1211 -0.0467
 5695TIP3    H138500   5.982   0.879  14.822  1.8288 -1.7750 -1.9274
 5695TIP3    H238501   6.006   0.834  14.965  0.2597  1.1357 -0.7143
 5696TIP3   OH238502   0.481   0.251  13.826  0.2208 -0.4858  0.1837
 5696TIP3    H138503   0.506   0.256  13.734 -0.1251 -1.3125  0.0410
 5696TIP3    H238504   0.402   0.304  13.833  0.1980 -0.4971 -0.0099
 5697TIP3   OH238505   1.915   1.089  13.815  0.1648 -0.2677 -0.1357
 5697TIP3    H138506   1.971   1.016  13.842 -1.1829 -0.7809  1.3721
 5697TIP3    H238507   1.954   1.166  13.855 -0.7304 -0.7553  1.7054
 5698TIP3   OH238508   6.634   1.010  14.294  0.0122 -0.4392 -0.1238
 5698TIP3    H138509   6.627   0.940  14.358 -1.5363 -0.8543 -0.7270
 5698TIP3    H238510   6.625   0.966  14.209  1.9829  0.1088 -0.6397
 5699TIP3   OH238511   7.242   5.699  13.721 -0.2442 -0.3577 -0.3106
 5699TIP3    H138512   7.233   5.605  13.706 -1.3927  0.0091 -2.2140
 5699TIP3    H238513   7.155   5.727  13.749 -0.0130  0.1928 -0.1303
 5700TIP3   OH238514   6.937   1.350  13.075  0.0845 -0.5396  0.0225
 5700TIP3    H138515   7.019   1.338  13.028  0.1396  1.7243 -0.4739
 5700TIP3    H238516   6.894   1.423  13.032 -0.6772  0.4344  2.3541
 5701TIP3   OH238517   0.231   0.581  13.073  0.0041 -0.2928 -0.3948
 5701TIP3    H138518   0.257   0.489  13.067 -1.4039 -0.6571 -1.3984
 5701TIP3    H238519   0.205   0.604  12.984 -0.9603  0.6644  0.1123
 5702TIP3   OH238520   0.436   2.356  13.451 -0.4099  0.3375  0.3287
 5702TIP3    H138521   0.368   2.289  13.440 -2.2896  2.0788  1.0060
 5702TIP3    H238522   0.442   2.370  13.545  0.3426  0.7735  0.2217
 5703TIP3   OH238523   2.272   5.603  13.734 -0.7598  0.0671  0.1529
 5703TIP3    H138524   2.191   5.582  13.781 -3.3961  3.5051 -2.5404
 5703TIP3    H238525   2.298   5.689  13.770  0.0635  0.3269 -1.0495
 5704TIP3   OH238526   1.228   5.851  12.044  0.5941  0.3700 -0.5597
 5704TIP3    H138527   1.244   5.942  12.069  0.4939  0.3042 -0.2471
 5704TIP3    H238528   1.284   5.836  11.968 -1.7686  1.6455 -2.6109
 5705TIP3   OH238529   0.948   4.268  10.229  0.3399 -0.4840 -0.3957
 5705TIP3    H138530   1.036   4.284  10.195  0.5546 -0.3760  0.2130
 5705TIP3    H238531   0.924   4.350  10.273  1.9741 -2.2198  3.9244
 5706TIP3   OH238532   7.211   5.678  10.906  0.0390  0.4336 -0.2618
 5706TIP3    H138533   7.138   5.671  10.843  0.4565 -0.9785 -0.6165
 5706TIP3    H238534   7.205   5.597  10.958  1.3188  0.3359 -0.2540
 5707TIP3   OH238535   1.725   5.831  12.351 -0.2748  0.5828  0.0464
 5707TIP3    H138536   1.689   5.743  12.357  1.0010  0.0629  0.3735
 5707TIP3    H238537   1.748   5.854  12.441  1.1240  0.4801 -0.2655
 5708TIP3   OH238538   7.281   0.750  11.546  0.0620 -0.1481  0.0865
 5708TIP3    H138539   7.211   0.689  11.566  0.5928 -0.2468  1.6660
 5708TIP3    H238540   7.309   0.726  11.457 -0.5780 -1.3734  0.2068
 5709TIP3   OH238541   6.312   6.326  13.320  0.5388  0.3018 -0.3980
 5709TIP3    H138542   6.300   6.416  13.292 -0.1140  0.7052  1.1193
 5709TIP3    H238543   6.264   6.274  13.255 -1.0817  1.2286  0.0298
 5710TIP3   OH238544   1.159   6.733  12.359  0.3032 -0.2559  0.2768
 5710TIP3    H138545   1.218   6.801  12.390 -0.4888  0.3628  0.4465
 5710TIP3    H238546   1.200   6.701  12.278 -0.9261  2.6704 -1.5847
 5711TIP3   OH238547   6.109   5.482  15.908 -0.3775  0.2209  0.2341
 5711TIP3    H138548   6.038   5.462  15.848  0.5080 -0.7487 -0.5060
 5711TIP3    H238549   6.066   5.494  15.993 -1.4713  0.1634 -0.2993
 5712TIP3   OH238550   1.139   0.880  10.402  0.0759 -0.0691  0.0147
 5712TIP3    H138551   1.171   0.878  10.492 -0.4736  2.2272  0.2832
 5712TIP3    H238552   1.208   0.838  10.351  1.7401  1.2803  1.1116
 5713TIP3   OH238553   6.219   5.866  12.048  0.0455 -0.4944 -0.3728
 5713TIP3    H138554   6.160   5.882  12.122  1.4085  0.4496  0.5258
 5713TIP3    H238555   6.271   5.946  12.042 -1.4772  0.3396 -3.7211
 5714TIP3   OH238556   0.667   6.589  10.659 -0.1384  0.2775  0.7314
 5714TIP3    H138557   0.609   6.636  10.599  1.2504  3.1146  1.5144
 5714TIP3    H238558   0.729   6.543  10.603 -2.4654 -1.9842 -0.0952
 5715TIP3   OH238559   6.304   6.333   0.224 -0.1812 -0.1110  0.8679
 5715TIP3    H138560   6.271   6.286   0.147 -0.0191 -2.3197  2.1336
 5715TIP3    H238561   6.361   6.271   0.268  0.3544  1.4157  2.3838
 5716TIP3   OH238562   1.066   6.145  12.584  0.1825  0.8312 -0.0373
 5716TIP3    H138563   1.051   6.068  12.639  0.3378  1.1656  0.4731
 5716TIP3    H238564   1.155   6.174  12.607  0.4465  0.6672 -0.8370
 5717TIP3   OH238565   1.897   6.896  10.489  0.7651 -0.3679 -0.7861
 5717TIP3    H138566   1.824   6.935  10.441  1.4055  1.7786 -0.1042
 5717TIP3    H238567   1.910   6.810  10.449 -1.1566 -0.1534 -1.9042
 5718TIP3   OH238568   2.891   4.418  10.624  0.3985 -0.3867  0.0826
 5718TIP3    H138569   2.940   4.476  10.683  2.1663 -0.7025 -1.0143
 5718TIP3    H238570   2.956   4.389  10.560 -1.3508 -0.4363 -1.7348
 5719TIP3   OH238571   1.487   6.744  11.581 -0.3331 -0.2769 -0.4258
 5719TIP3    H138572   1.554   6.776  11.641 -1.5427  1.2017  0.2013
 5719TIP3    H238573   1.444   6.673  11.628  1.7390 -2.2446 -1.4306
 5720TIP3   OH238574   2.243   0.762  11.643  0.3835  0.5900  0.2536
 5720TIP3    H138575   2.216   0.832  11.702  0.6158  1.1071 -0.2526
 5720TIP3    H238576   2.164   0.710  11.630 -0.1125  1.4934 -0.3825
 5721TIP3   OH238577   0.231   1.671  14.292 -0.2584  0.1423 -0.1535
 5721TIP3    H138578   0.288   1.678  14.368 -1.1559 -0.2341  0.5734
 5721TIP3    H238579   0.209   1.761  14.270 -0.5210  0.2270  0.4457
 5722TIP3   OH238580   0.535   2.512  11.252 -0.4318 -1.1285 -0.3541
 5722TIP3    H138581   0.539   2.431  11.202 -1.8627 -0.5224 -1.4781
 5722TIP3    H238582   0.461   2.560  11.215 -2.0658 -1.0251  2.8665
 5723TIP3   OH238583   6.923   5.716  10.656  0.2495  0.7833  0.0204
 5723TIP3    H138584   6.857   5.647  10.643  0.1649  1.3879 -3.2128
 5723TIP3    H238585   7.006   5.674  10.635  0.4451  1.1238  0.1092
 5724TIP3   OH238586   0.343   5.260  12.218  0.2266 -0.2999  0.4016
 5724TIP3    H138587   0.437   5.262  12.201  0.2056  1.3444  0.3759
 5724TIP3    H238588   0.336   5.239  12.311  0.5793 -1.2640  0.2170
 5725TIP3   OH238589   6.917   0.352  11.509  0.3169 -0.1929 -0.5020
 5725TIP3    H138590   6.904   0.265  11.547  1.1288 -0.2881 -0.4352
 5725TIP3    H238591   6.835   0.371  11.464 -1.2601  0.5833  2.5986
 5726TIP3   OH238592   1.047   0.408  11.770  0.0184  0.4970  0.2568
 5726TIP3    H138593   1.076   0.415  11.680  0.5135 -0.2369  0.3532
 5726TIP3    H238594   1.069   0.318  11.795  1.7789  1.3044  1.7585
 5727TIP3   OH238595   1.431   4.720  10.400  0.1470 -0.2078 -0.0016
 5727TIP3    H138596   1.435   4.786  10.331  0.6475 -1.1689 -0.8987
 5727TIP3    H238597   1.521   4.712  10.432  0.1563 -0.7304 -0.1550
 5728TIP3   OH238598   6.767   0.802  13.316  0.3512  0.2608  0.3162
 5728TIP3    H138599   6.816   0.794  13.234 -0.3805 -0.0998 -0.0888
 5728TIP3    H238600   6.830   0.778  13.384  0.0168 -2.7347 -0.3962
 5729TIP3   OH238601   3.622   6.020  11.519  0.3668 -0.4132  0.1119
 5729TIP3    H138602   3.546   6.002  11.465  0.8580 -0.2396 -0.6366
 5729TIP3    H238603   3.667   6.092  11.476  1.0598 -0.6374  0.4402
 5730TIP3   OH238604   6.737   2.260  11.852  0.1239 -0.5427  0.2141
 5730TIP3    H138605   6.713   2.190  11.912 -2.1142 -0.5816 -0.6801
 5730TIP3    H238606   6.668   2.326  11.862  0.2922 -0.0696 -1.5302
 5731TIP3   OH238607   1.131   0.397  13.096  0.5416  0.0685 -0.0741
 5731TIP3    H138608   1.143   0.303  13.113  0.3562  0.2665  1.1645
 5731TIP3    H238609   1.155   0.407  13.004  0.9978 -1.1213 -0.1015
 5732TIP3   OH238610   0.752   6.355  14.031  0.5350 -0.1264  0.0187
 5732TIP3    H138611   0.677   6.383  14.083 -0.4401 -2.4288 -0.0936
 5732TIP3    H238612   0.828   6.376  14.085 -0.1363  2.4469  0.0329
 5733TIP3   OH238613   0.649   6.741  12.971  0.4002  0.4013 -0.0382
 5733TIP3    H138614   0.730   6.771  12.930 -0.0405 -0.6055 -1.7041
 5733TIP3    H238615   0.676   6.708  13.057  1.6126  0.8762 -0.2277
 5734TIP3   OH238616   6.532   4.228  14.779  0.3112 -0.6863  0.2225
 5734TIP3    H138617   6.547   4.243  14.873  0.1062  1.4651 -0.0668
 5734TIP3    H238618   6.586   4.294  14.736 -0.2711 -1.1049 -1.1573
 5735TIP3   OH238619   2.866   6.378  11.878  0.1175 -0.6341  0.2738
 5735TIP3    H138620   2.954   6.394  11.911  0.4627 -1.3804 -0.2893
 5735TIP3    H238621   2.809   6.425  11.939  0.9544  0.5881  0.1460
 5736TIP3   OH238622   1.864   6.536  14.545 -0.4002  0.0258 -0.1790
 5736TIP3    H138623   1.920   6.525  14.468  1.3185 -2.6929  1.3578
 5736TIP3    H238624   1.887   6.463  14.602 -1.7463  1.8464  2.8611
 5737TIP3   OH238625   1.919   0.802  14.209 -0.0779 -0.5385  0.5523
 5737TIP3    H138626   1.952   0.884  14.247  0.0834 -0.3113 -0.0698
 5737TIP3    H238627   1.831   0.793  14.246 -1.1300  1.3076 -1.3985
 5738TIP3   OH238628   3.142   5.938  12.055 -0.2406 -0.4733  0.2792
 5738TIP3    H138629   3.079   6.005  12.029  1.0079  0.2051 -1.0659
 5738TIP3    H238630   3.226   5.984  12.060  1.0213 -2.3057 -2.6377
 5739TIP3   OH238631   1.059   1.251  12.643  0.2948  0.4256 -0.0428
 5739TIP3    H138632   0.967   1.277  12.647  0.7227  1.7450  2.3997
 5739TIP3    H238633   1.095   1.303  12.571 -0.4567  1.2973  0.1951
 5740TIP3   OH238634   6.719   4.569  11.832  0.2143 -0.2329 -0.2003
 5740TIP3    H138635   6.672   4.633  11.886  1.8909  0.7808  0.0867
 5740TIP3    H238636   6.666   4.489  11.840 -1.7227  0.9923 -0.2871
 5741TIP3   OH238637   1.210   6.392  13.364  0.0223  0.3656  0.3310
 5741TIP3    H138638   1.223   6.478  13.404  0.0214  0.7146 -0.4105
 5741TIP3    H238639   1.177   6.411  13.276 -0.6446 -0.4104  0.4106
 5742TIP3   OH238640   2.155   1.968  13.448 -0.7982 -0.2678  0.4021
 5742TIP3    H138641   2.209   2.041  13.417 -1.3539  0.0168  0.0973
 5742TIP3    H238642   2.066   2.003  13.449 -0.8648 -0.4579  1.7585
 5743TIP3   OH238643   0.427   6.458  12.482 -0.1075 -0.0839 -0.1317
 5743TIP3    H138644   0.339   6.441  12.516 -0.5795  0.8148 -0.9049
 5743TIP3    H238645   0.413   6.501  12.398  1.0743 -0.0646 -0.3249
 5744TIP3   OH238646   2.401   6.326  12.492  0.4817  0.0773  1.3512
 5744TIP3    H138647   2.334   6.377  12.536  0.0281 -0.2618  1.0507
 5744TIP3    H238648   2.482   6.346  12.539  0.4946  1.8693  0.5974
 5745TIP3   OH238649   4.397   6.230  11.838 -0.0260  0.4522  0.5346
 5745TIP3    H138650   4.338   6.220  11.912 -0.8163 -1.1751 -0.2874
 5745TIP3    H238651   4.464   6.292  11.869 -1.5153  1.4608  1.8491
 5746TIP3   OH238652   1.492   5.623  10.992 -0.0488 -0.2955 -0.1720
 5746TIP3    H138653   1.511   5.561  11.061 -1.8107 -2.1045 -1.2717
 5746TIP3    H238654   1.421   5.583  10.941 -1.5361  2.7807 -0.6668
 5747TIP3   OH238655   1.806   7.176  13.627 -0.8615  0.3360 -0.5561
 5747TIP3    H138656   1.807   7.081  13.641  1.7025  0.4330  0.1434
 5747TIP3    H238657   1.788   7.213  13.714  0.5014  0.5310 -0.3425
 5748TIP3   OH238658   1.766   0.327  10.756 -0.3509  0.4631 -0.3084
 5748TIP3    H138659   1.775   0.420  10.737 -1.8148  0.7420  0.3096
 5748TIP3    H238660   1.713   0.293  10.685 -1.1632  0.4267  0.3014
 5749TIP3   OH238661   0.521   6.944  11.470 -1.0702 -0.2383 -0.0004
 5749TIP3    H138662   0.496   6.992  11.391  1.7562  1.4816  0.0539
 5749TIP3    H238663   0.475   6.989  11.540 -1.2551  0.1407 -0.3580
 5750TIP3   OH238664   0.500   1.231  12.698 -0.8291  0.2412  0.3778
 5750TIP3    H138665   0.422   1.178  12.715 -1.9347  2.2749  1.9245
 5750TIP3    H238666   0.480   1.316  12.738  1.2562  1.5381 -1.2580
 5751TIP3   OH238667   6.951   6.425  12.282  0.0537  0.1118  0.5984
 5751TIP3    H138668   6.952   6.426  12.378  1.3147  1.6624  0.5921
 5751TIP3    H238669   6.896   6.350  12.259 -1.2081  0.4053  2.5376
 5752TIP3   OH238670   7.157   0.483  12.584  0.4958  0.3091 -0.2919
 5752TIP3    H138671   7.250   0.491  12.563  0.5600  0.2763 -0.0182
 5752TIP3    H238672   7.119   0.567  12.558  1.0670  1.3440  2.0765
 5753TIP3   OH238673   0.597   5.687  11.328  0.4973  0.2769 -0.2381
 5753TIP3    H138674   0.525   5.735  11.370  1.3260  0.2201  1.2550
 5753TIP3    H238675   0.648   5.754  11.283  0.3100  0.4993 -0.1200
 5754TIP3   OH238676   6.839   6.784  13.652  0.6079 -0.5468  0.2958
 5754TIP3    H138677   6.816   6.877  13.659  0.5218 -0.1889 -3.6241
 5754TIP3    H238678   6.767   6.738  13.695 -0.9310  1.0823 -0.4544
 5755TIP3   OH238679   1.267   3.349  13.460 -0.1500  0.6484  0.1608
 5755TIP3    H138680   1.360   3.339  13.442 -0.4848 -0.5433 -0.9662
 5755TIP3    H238681   1.234   3.404  13.388 -0.7397 -0.8487 -0.7416
 5756TIP3   OH238682   0.640   5.801  11.686  0.0538  0.1607  0.1761
 5756TIP3    H138683   0.624   5.803  11.780  0.1273  0.0773  0.1895
 5756TIP3    H238684   0.670   5.890  11.665 -3.4979  1.3474 -0.3700
 5757TIP3   OH238685   5.393   1.330  12.217  0.1572  0.1441  0.5139
 5757TIP3    H138686   5.378   1.421  12.190 -2.8830 -0.0764  1.1874
 5757TIP3    H238687   5.325   1.314  12.282  0.5079 -2.6819  0.2250
 5758TIP3   OH238688   5.965   0.879  12.268  0.3552 -0.1974  0.2466
 5758TIP3    H138689   6.047   0.850  12.227 -0.0529 -1.6059  0.3983
 5758TIP3    H238690   5.913   0.914  12.196 -0.3020 -2.5332 -0.4773
 5759TIP3   OH238691   0.983   4.653  13.336  0.0846 -0.2510 -0.4380
 5759TIP3    H138692   0.903   4.703  13.347 -0.9241 -2.3804  2.7014
 5759TIP3    H238693   0.961   4.586  13.271 -0.9899 -1.3156  0.9865
 5760TIP3   OH238694   0.372   6.788  11.670  0.3831  0.0511  0.2262
 5760TIP3    H138695   0.397   6.734  11.595  1.7955  0.6838  0.2211
 5760TIP3    H238696   0.453   6.833  11.695  0.1889 -1.0160  2.8638
 5761TIP3   OH238697   2.566   1.336  10.084  0.4974  0.3899  0.0415
 5761TIP3    H138698   2.546   1.347  10.177  0.9283  1.0304  0.0647
 5761TIP3    H238699   2.659   1.359  10.076 -0.0485  2.4358 -0.8708
 5762TIP3   OH238700   6.169   5.023  10.131  0.1896 -0.2249 -0.2727
 5762TIP3    H138701   6.148   4.972  10.053 -0.0854 -1.8756  0.8661
 5762TIP3    H238702   6.264   5.030  10.130  0.2816 -1.3855 -0.0461
 5763TIP3   OH238703   6.934   4.996  10.488  0.0732 -0.2891 -0.3508
 5763TIP3    H138704   6.907   4.918  10.536  1.7966 -0.1199  0.9277
 5763TIP3    H238705   7.029   4.988  10.480  0.1063  1.0027 -1.4037
 5764TIP3   OH238706   5.304   5.642  11.324  0.4597 -0.1196 -0.1493
 5764TIP3    H138707   5.356   5.632  11.404 -0.3268  0.8574  0.5044
 5764TIP3    H238708   5.366   5.629  11.253  1.7589  1.7212  0.6086
 5765TIP3   OH238709   0.252   7.087  13.815 -0.0546 -0.4031 -0.0376
 5765TIP3    H138710   0.303   7.163  13.845  1.1539 -1.4838  0.7319
 5765TIP3    H238711   0.258   7.091  13.720 -1.4952  1.4490 -0.0725
 5766TIP3   OH238712   6.156   1.687  13.473  0.1790  0.4564 -0.2916
 5766TIP3    H138713   6.089   1.678  13.405  0.3679  2.3757 -0.7658
 5766TIP3    H238714   6.166   1.599  13.509 -1.0809 -0.2632 -1.6551
 5767TIP3   OH238715   5.766   6.623  15.052 -0.4598 -0.2029 -0.5264
 5767TIP3    H138716   5.821   6.565  15.105  0.0326 -0.7498 -1.6177
 5767TIP3    H238717   5.802   6.615  14.963 -2.1624 -0.4134 -1.2152
 5768TIP3   OH238718   2.081   1.211  13.337  0.1145 -0.0943  0.0374
 5768TIP3    H138719   2.014   1.173  13.394  0.8606  0.1728  1.1287
 5768TIP3    H238720   2.037   1.281  13.290 -0.5279 -0.3539  0.2420
 5769TIP3   OH238721   0.223   5.231  15.118  0.0151 -0.1835  0.6159
 5769TIP3    H138722   0.307   5.194  15.089  0.5052 -1.3514  3.4069
 5769TIP3    H238723   0.202   5.296  15.051  1.8054 -1.7530 -1.5588
 5770TIP3   OH238724   7.235   6.503  11.150 -0.1612 -0.5746  0.1702
 5770TIP3    H138725   7.263   6.465  11.233  0.7526 -0.1657  0.0618
 5770TIP3    H238726   7.311   6.555  11.121 -0.1532 -1.4113 -1.3449
 5771TIP3   OH238727   4.954   0.486  14.018 -0.0668  0.0778  0.1826
 5771TIP3    H138728   5.031   0.440  13.986  0.5622  0.2429  1.4158
 5771TIP3    H238729   4.953   0.467  14.112 -0.6054  1.4078  0.4527
 5772TIP3   OH238730   7.110   5.792  10.306 -0.4005 -0.2409 -0.3862
 5772TIP3    H138731   7.050   5.861  10.335 -1.0115 -0.1337 -1.8763
 5772TIP3    H238732   7.196   5.825  10.330 -0.2933  2.8378 -4.3698
 5773TIP3   OH238733   3.220   6.985  13.576 -0.3132  0.3734 -0.6944
 5773TIP3    H138734   3.292   7.022  13.626 -0.7468  1.4826 -0.8694
 5773TIP3    H238735   3.262   6.945  13.500  0.1777  0.4012 -0.4389
 5774TIP3   OH238736   0.949   0.879  13.349  0.3138  0.7816 -0.2454
 5774TIP3    H138737   0.923   0.915  13.264 -0.0400  0.7369 -0.1579
 5774TIP3    H238738   0.894   0.925  13.413 -1.5392 -1.2830 -0.2852
 5775TIP3   OH238739   1.419   0.191  12.856  0.4795  0.2401  0.1529
 5775TIP3    H138740   1.505   0.226  12.882  0.1328  1.9355 -0.8515
 5775TIP3    H238741   1.364   0.269  12.847 -0.3718 -0.5810 -2.0471
 5776TIP3   OH238742   0.035   5.797  14.259 -0.1495  0.1600 -0.5758
 5776TIP3    H138743   0.069   5.708  14.247 -0.5667 -0.1151  0.1898
 5776TIP3    H238744  -0.025   5.789  14.334 -0.0852  1.1113 -0.4203
 5777TIP3   OH238745   1.157   5.574  14.215  0.9197  0.0657 -0.0820
 5777TIP3    H138746   1.220   5.512  14.179  1.9099  0.4584  0.9530
 5777TIP3    H238747   1.188   5.659  14.183 -0.3350  0.0596 -1.3612
 5778TIP3   OH238748   6.563   5.728  13.804 -0.4270  0.7240 -0.0130
 5778TIP3    H138749   6.477   5.751  13.769 -1.2340 -0.3834  1.1524
 5778TIP3    H238750   6.546   5.651  13.859  1.1496  1.0522  0.9710
 5779TIP3   OH238751   7.216   7.268  10.635  0.0471  0.5174  0.3116
 5779TIP3    H138752   7.123   7.290  10.640 -0.1713 -0.1940 -0.4139
 5779TIP3    H238753   7.239   7.236  10.722 -0.5228  0.1739  0.3327
 5780TIP3   OH238754   5.955   6.586  13.174 -0.1351  0.0996 -0.0387
 5780TIP3    H138755   5.978   6.551  13.088  1.5671  0.2074  0.3529
 5780TIP3    H238756   5.877   6.539  13.200  1.5598 -2.7612  0.0704
 5781TIP3   OH238757   4.831   0.306  13.366 -0.1804 -0.3109 -0.2654
 5781TIP3    H138758   4.748   0.282  13.326  1.8697 -3.3439 -3.0491
 5781TIP3    H238759   4.859   0.384  13.318 -0.2909 -0.7148 -0.9895
 5782TIP3   OH238760   7.271   0.271  10.431 -0.4742  0.2239  0.0464
 5782TIP3    H138761   7.344   0.326  10.402 -0.8213  0.2747 -0.7437
 5782TIP3    H238762   7.215   0.331  10.480 -0.0381  0.2046  0.5817
 5783TIP3   OH238763   0.181   4.902  13.049 -0.3053 -0.4015 -0.1184
 5783TIP3    H138764   0.228   4.820  13.036  0.5680  0.2291 -1.0218
 5783TIP3    H238765   0.227   4.945  13.121  0.1809 -0.0204 -0.6543
 5784TIP3   OH238766   0.216   6.122  14.457 -0.3551  0.5861  0.5957
 5784TIP3    H138767   0.253   6.201  14.496 -0.2664  1.4660 -1.2102
 5784TIP3    H238768   0.123   6.142  14.445 -0.3978  0.3051  0.4426
 5785TIP3   OH238769   6.085   6.533  15.742  0.4430  0.1909 -0.0256
 5785TIP3    H138770   6.154   6.484  15.697 -0.3726  0.1884 -1.3195
 5785TIP3    H238771   6.047   6.588  15.673 -0.2000  0.9094  0.8927
 5786TIP3   OH238772   4.115   0.028  13.999  0.1498  0.2475 -1.0236
 5786TIP3    H138773   4.076   0.086  14.065  2.1255  2.7546 -1.9636
 5786TIP3    H238774   4.068   0.049  13.918 -0.4026 -0.8237 -0.9799
 5787TIP3   OH238775   1.576   6.283  10.372  0.6717  0.3088  0.4272
 5787TIP3    H138776   1.643   6.279  10.304  0.0749  2.4713 -0.3288
 5787TIP3    H238777   1.532   6.366  10.357 -1.2787 -0.4450  1.7779
 5788TIP3   OH238778   0.130   5.656  11.401 -0.1274  0.3875 -0.0502
 5788TIP3    H138779   0.216   5.687  11.429  0.6289 -1.7474  0.0781
 5788TIP3    H238780   0.108   5.712  11.326  2.2807 -0.3500 -1.3549
 5789TIP3   OH238781   7.173   6.602  12.273 -0.4424  0.1420  0.2869
 5789TIP3    H138782   7.105   6.537  12.257 -1.0219  1.1801 -1.6548
 5789TIP3    H238783   7.130   6.670  12.326 -0.1930 -0.4285  1.2285
 5790TIP3   OH238784   0.910   4.007  15.321 -0.5538 -0.5247 -0.0987
 5790TIP3    H138785   0.862   3.925  15.329 -2.1727  0.3575 -0.5093
 5790TIP3    H238786   0.899   4.050  15.406 -2.3989  0.6696 -0.9083
 5791TIP3   OH238787   6.847   6.005  13.728 -0.4573  0.5028  1.0235
 5791TIP3    H138788   6.933   6.043  13.710 -1.5431  0.9969 -3.9741
 5791TIP3    H238789   6.806   6.067  13.789  1.1051  2.5999  0.0288
 5792TIP3   OH238790   7.031   4.758  14.714 -0.0371 -0.5140  0.4198
 5792TIP3    H138791   7.124   4.742  14.698  0.2380  1.4679 -0.2386
 5792TIP3    H238792   7.028   4.848  14.748 -1.5652 -1.1724  2.0882
 5793TIP3   OH238793   4.678   6.652  14.212  0.2084 -0.2064  0.1345
 5793TIP3    H138794   4.714   6.637  14.300  1.8009 -2.8218 -0.8966
 5793TIP3    H238795   4.615   6.582  14.200  1.2458 -0.8873 -1.4472
 5794TIP3   OH238796   1.999   6.665  14.325  0.0038 -0.4115 -0.0740
 5794TIP3    H138797   2.064   6.734  14.315 -1.2533  1.1373  2.0760
 5794TIP3    H238798   1.995   6.624  14.238  1.1929  1.8181 -1.2345
 5795TIP3   OH238799   6.726   0.473  11.348 -0.4623 -0.4252 -0.1875
 5795TIP3    H138800   6.715   0.538  11.278 -0.0520 -1.3031 -1.0763
 5795TIP3    H238801   6.654   0.491  11.408 -0.9105  0.2495 -0.9059
 5796TIP3   OH238802   1.638   6.242  11.145  0.2977 -0.5179  0.2559
 5796TIP3    H138803   1.665   6.312  11.085 -0.8089  0.1557  0.5188
 5796TIP3    H238804   1.645   6.281  11.232  0.9172 -1.1638  0.4984
 5797TIP3   OH238805   6.573   6.758  13.283 -0.3041 -0.0686  0.0306
 5797TIP3    H138806   6.616   6.687  13.331 -0.9565 -1.0384 -0.8010
 5797TIP3    H238807   6.619   6.837  13.311  1.6255 -1.0116 -0.3800
 5798TIP3   OH238808   1.126   7.099  14.992  0.3922 -0.3762  0.1849
 5798TIP3    H138809   1.087   7.109  15.079  0.4804 -0.0764  0.1921
 5798TIP3    H238810   1.061   7.139  14.933  1.0289  0.8141  0.2748
 5799TIP3   OH238811   2.006   6.312  12.828  0.3482  0.2368  0.3203
 5799TIP3    H138812   1.985   6.222  12.801 -1.0389  0.6231  0.0597
 5799TIP3    H238813   2.006   6.309  12.923  0.3328 -0.0469  0.3119
 5800TIP3   OH238814   1.106   6.617  11.240 -0.1102 -0.5170 -0.3243
 5800TIP3    H138815   1.059   6.574  11.169 -3.0372  0.2584  1.0915
 5800TIP3    H238816   1.070   6.580  11.320  0.6063  1.1968  0.8424
 5801TIP3   OH238817   2.103   5.365  12.889 -0.4401 -0.2682 -0.3031
 5801TIP3    H138818   2.059   5.377  12.805  0.2456  0.5135 -0.5547
 5801TIP3    H238819   2.059   5.426  12.948  0.4411  0.6980 -0.6164
 5802TIP3   OH238820   0.419   4.987  12.779  0.0924  0.8311 -0.2830
 5802TIP3    H138821   0.464   4.928  12.839 -0.0475  0.9242 -0.0870
 5802TIP3    H238822   0.459   5.072  12.793 -0.0953  0.8982 -0.1619
 5803TIP3   OH238823   3.198   6.980  14.588  0.1064 -0.0473  0.1458
 5803TIP3    H138824   3.263   6.911  14.602 -0.1996 -0.3969 -0.1242
 5803TIP3    H238825   3.120   6.949  14.635  0.2798  0.5900  0.8553
 5804TIP3   OH238826   2.178   0.341  11.494 -0.5802  0.0340  0.1575
 5804TIP3    H138827   2.129   0.306  11.568  0.1936  1.5914  1.4481
 5804TIP3    H238828   2.149   0.432  11.487  1.2452  0.6509  0.2257
 5805TIP3   OH238829   1.306   5.785  12.340 -0.4357  0.0350 -0.0456
 5805TIP3    H138830   1.310   5.879  12.323  2.8177  0.3110  1.9235
 5805TIP3    H238831   1.270   5.748  12.259 -2.2482  2.9764 -0.6681
 5806TIP3   OH238832   0.373   3.837  13.483 -0.0615  0.7687  0.0111
 5806TIP3    H138833   0.360   3.743  13.473  0.6939  0.6868 -0.2199
 5806TIP3    H238834   0.421   3.863  13.405  1.1742  1.0609  0.8584
 5807TIP3   OH238835   2.785   0.327  10.827 -0.2128  0.0505  0.1414
 5807TIP3    H138836   2.765   0.246  10.780  1.6754 -0.2211 -0.2381
 5807TIP3    H238837   2.853   0.369  10.774 -0.3953  1.3555  0.9183
 5808TIP3   OH238838   1.671   0.195  14.333 -0.5943  0.0360  0.0155
 5808TIP3    H138839   1.658   0.151  14.249  0.1146  0.1366 -0.1519
 5808TIP3    H238840   1.766   0.212  14.337 -0.9211  2.1095 -0.2338
 5809TIP3   OH238841   0.883   1.277   1.357  0.0632 -0.3137  0.0520
 5809TIP3    H138842   0.800   1.273   1.311  0.1810  0.8032 -0.2470
 5809TIP3    H238843   0.872   1.345   1.423  0.6442 -0.3704  0.2184
 5810TIP3   OH238844   2.370   4.714  12.293  0.2386 -0.5089 -0.5366
 5810TIP3    H138845   2.388   4.689  12.203  0.1707 -1.3293 -0.3322
 5810TIP3    H238846   2.281   4.683  12.309 -0.2352  0.8037 -0.5960
 5811TIP3   OH238847   6.888   0.235  12.354 -0.3334 -0.0513 -0.2404
 5811TIP3    H138848   6.832   0.159  12.372 -0.2756 -0.5779 -2.1411
 5811TIP3    H238849   6.965   0.222  12.409 -1.9020  0.5051  2.1525
 5812TIP3   OH238850   1.131   4.992  11.717 -0.0536 -0.2087 -1.0459
 5812TIP3    H138851   1.226   4.986  11.712  0.1812  1.9306  0.5398
 5812TIP3    H238852   1.112   5.004  11.810 -1.9709 -1.7705 -1.1902
 5813TIP3   OH238853   5.190   1.357  12.637 -0.7629  0.1507 -0.1614
 5813TIP3    H138854   5.188   1.451  12.622 -2.1991  0.4359  1.5693
 5813TIP3    H238855   5.100   1.335  12.663 -0.2357 -1.5220  0.3246
 5814TIP3   OH238856   0.741   0.685  12.170 -0.1806 -0.2415  0.3250
 5814TIP3    H138857   0.755   0.695  12.264  0.5476 -1.1199  0.3247
 5814TIP3    H238858   0.802   0.616  12.145 -0.9663 -0.5938 -0.6395
 5815TIP3   OH238859   1.699   0.762  10.897  0.2137 -0.0640  0.0876
 5815TIP3    H138860   1.677   0.749  10.990 -0.5953 -2.5405 -0.4009
 5815TIP3    H238861   1.793   0.745  10.893  0.1579 -0.4622  0.3859
 5816TIP3   OH238862   7.012   6.186  10.857  0.2574 -0.1275 -0.5102
 5816TIP3    H138863   7.022   6.101  10.815  0.3075 -0.6903  0.6350
 5816TIP3    H238864   7.093   6.233  10.836  0.0119 -0.1586 -1.5781
 5817TIP3   OH238865   0.517   6.138  13.924  0.0701 -1.1560  0.1641
 5817TIP3    H138866   0.445   6.140  13.987 -0.8868 -3.3860 -0.8082
 5817TIP3    H238867   0.547   6.229  13.919 -2.2821 -0.3028  1.0366
 5818TIP3   OH238868   5.677   2.327  12.642 -0.3464  0.3231  0.1937
 5818TIP3    H138869   5.666   2.249  12.697 -0.9474 -0.5485 -1.1481
 5818TIP3    H238870   5.591   2.369  12.642 -1.0037 -0.9611 -1.9831
 5819TIP3   OH238871   6.299   2.363  15.218 -0.8032  0.6150 -0.1280
 5819TIP3    H138872   6.236   2.299  15.188 -2.1998  1.2534  1.3544
 5819TIP3    H238873   6.342   2.322  15.294 -1.8074  1.4542  0.9187
 5820TIP3   OH238874   3.816   6.375  12.901  0.0401  0.0570  0.5108
 5820TIP3    H138875   3.857   6.438  12.842  1.4853 -0.4342  0.9610
 5820TIP3    H238876   3.888   6.319  12.930 -0.9279 -0.7249  1.4582
 5821TIP3   OH238877   6.893   2.345  14.624  0.3553 -0.2854  0.1142
 5821TIP3    H138878   6.838   2.282  14.579  0.1456 -0.4553  0.6048
 5821TIP3    H238879   6.940   2.294  14.690 -0.9325  0.3017  1.5188
 5822TIP3   OH238880   1.900   6.894  13.399 -0.6270  0.0152 -0.2446
 5822TIP3    H138881   1.927   6.812  13.441 -0.1457  0.8482  1.1420
 5822TIP3    H238882   1.818   6.874  13.356 -0.2802 -1.3160 -0.3045
 5823TIP3   OH238883   0.510   6.269  14.693 -0.5611 -0.3729  0.2974
 5823TIP3    H138884   0.503   6.175  14.677 -1.7525 -0.3878  0.8898
 5823TIP3    H238885   0.420   6.297  14.710 -0.2415  0.9236 -0.1610
 5824TIP3   OH238886   3.111   6.126  12.595  0.3383  0.6599  0.1070
 5824TIP3    H138887   3.129   6.163  12.681 -0.2849  1.0439  0.0742
 5824TIP3    H238888   3.171   6.052  12.587  0.1461  0.4057  1.0195
 5825TIP3   OH238889   7.015   5.997  11.661  0.0277 -0.3342 -0.3971
 5825TIP3    H138890   6.955   5.923  11.653  1.1189 -1.2643 -0.1563
 5825TIP3    H238891   7.086   5.977  11.599 -0.3984  1.2431 -1.4133
 5826TIP3   OH238892   0.937   6.298  11.225  0.5584  0.4503 -0.1993
 5826TIP3    H138893   0.886   6.217  11.221  0.2326  0.5774  1.0850
 5826TIP3    H238894   0.894   6.356  11.163 -0.1515  0.1564  0.0113
 5827TIP3   OH238895   7.031   7.062  10.895 -0.0932  0.0550 -0.5604
 5827TIP3    H138896   6.936   7.047  10.901  0.0258  0.1339  1.7093
 5827TIP3    H238897   7.069   6.974  10.892 -0.2399  0.0181 -2.1701
 5828TIP3   OH238898   2.679   6.363  12.528  0.6538 -0.9355  0.3668
 5828TIP3    H138899   2.684   6.380  12.434 -3.1075 -0.0900  0.2436
 5828TIP3    H238900   2.763   6.323  12.549  1.4629 -1.4599 -3.4192
 5829TIP3   OH238901   2.848   6.155  12.439  0.2903  0.1776  0.1793
 5829TIP3    H138902   2.926   6.177  12.490  0.8902 -0.3730 -0.4993
 5829TIP3    H238903   2.814   6.076  12.482  1.9284 -1.4722 -1.4573
 5830TIP3   OH238904   0.394   0.014  12.395 -0.3965  0.6444 -0.4205
 5830TIP3    H138905   0.403  -0.081  12.405  2.9481  1.1362  2.3689
 5830TIP3    H238906   0.309   0.034  12.435  0.1535 -0.8788  1.6288
 5831TIP3   OH238907   1.435   5.112  11.377  0.0919  0.2752  0.0754
 5831TIP3    H138908   1.511   5.111  11.435 -0.7950 -1.0120  1.2196
 5831TIP3    H238909   1.401   5.023  11.380 -1.3359  0.7903 -0.6185
 5832TIP3   OH238910   6.542   4.923  13.239  0.3212  0.1452  0.3757
 5832TIP3    H138911   6.578   4.836  13.223 -0.8426  0.1322 -2.3510
 5832TIP3    H238912   6.576   4.978  13.169 -1.9528  0.9900 -0.1332
 5833TIP3   OH238913   0.696   5.103  13.123 -0.1819 -0.2819  0.3775
 5833TIP3    H138914   0.758   5.176  13.123 -1.6902  1.0497 -1.0742
 5833TIP3    H238915   0.654   5.106  13.209  1.1991 -0.7422  1.0908
 5834TIP3   OH238916   0.333   6.228  15.119 -0.3563  0.6468  0.2023
 5834TIP3    H138917   0.358   6.164  15.185 -1.0082  0.3795  0.1874
 5834TIP3    H238918   0.323   6.178  15.038 -2.9483  0.3991  0.6343
 5835TIP3   OH238919   1.013   7.206  12.405  0.4207 -0.7704  0.0001
 5835TIP3    H138920   1.008   7.256  12.487  1.7055 -1.1719  0.3315
 5835TIP3    H238921   0.925   7.170  12.394 -0.1206  0.3482  0.5221
 5836TIP3   OH238922   2.408   5.690  10.435  0.3032 -0.1965 -0.1882
 5836TIP3    H138923   2.405   5.785  10.443  0.0026 -0.2330  0.0903
 5836TIP3    H238924   2.389   5.673  10.342  0.3653  0.0121 -0.2380
 5837TIP3   OH238925   4.942   4.793  13.621 -0.3052 -0.1419 -0.1525
 5837TIP3    H138926   4.861   4.749  13.596 -0.1961 -0.0905 -0.6036
 5837TIP3    H238927   5.008   4.724  13.621 -0.4734 -0.3164  0.8788
 5838TIP3   OH238928   0.907   1.429  12.324 -0.1238  0.2670  0.2621
 5838TIP3    H138929   1.000   1.433  12.344  0.0221  1.5664 -0.5973
 5838TIP3    H238930   0.874   1.516  12.344 -1.1849 -0.2177  0.6718
 5839TIP3   OH238931   5.221   0.832  15.098 -0.1531 -0.2103  0.0758
 5839TIP3    H138932   5.298   0.776  15.107  0.0052  0.0757  0.4844
 5839TIP3    H238933   5.210   0.842  15.003 -0.0701 -0.7775  0.0071
 5840TIP3   OH238934   0.234   6.150  12.757 -0.2661 -0.3800  0.1016
 5840TIP3    H138935   0.172   6.219  12.782  0.4482 -0.8991  3.4306
 5840TIP3    H238936   0.197   6.070  12.793 -0.3983 -1.5854 -2.6082
 5841TIP3   OH238937   3.235   5.881  12.922  0.2540 -0.0274  0.4829
 5841TIP3    H138938   3.165   5.873  12.986  1.9111  1.1668  2.4892
 5841TIP3    H238939   3.298   5.941  12.962  1.6264  0.2508 -1.9946
 5842TIP3   OH238940   6.976   1.267  12.683 -0.4857  0.0227 -0.8230
 5842TIP3    H138941   6.912   1.327  12.646  0.6815  0.8776 -1.5136
 5842TIP3    H238942   7.051   1.273  12.624  0.2717 -0.8625  0.0284
 5843TIP3   OH238943   3.158   5.898  14.866 -0.1913 -0.4536 -0.3280
 5843TIP3    H138944   3.184   5.943  14.786  0.4899 -2.9586 -1.5856
 5843TIP3    H238945   3.231   5.908  14.926 -0.3622  0.7295 -0.3161
 5844TIP3   OH238946   5.193   5.011  12.308 -0.3634 -0.3337 -0.3038
 5844TIP3    H138947   5.271   4.959  12.328  0.2764  0.0498 -1.7694
 5844TIP3    H238948   5.164   4.979  12.223 -0.3671  1.2348 -0.9021
 5845TIP3   OH238949   0.487   5.831  12.511  0.2598 -0.5933  0.7130
 5845TIP3    H138950   0.418   5.843  12.577  0.2276  0.5470  0.4685
 5845TIP3    H238951   0.441   5.838  12.427  0.5642 -0.5462  0.5510
 5846TIP3   OH238952   4.029   6.574  12.770 -0.2185 -0.1404 -0.0364
 5846TIP3    H138953   4.035   6.619  12.855  0.2845  0.7098 -0.5154
 5846TIP3    H238954   4.115   6.585  12.731  0.1453 -2.1760  0.1358
 5847TIP3   OH238955   3.582   5.052  12.019 -0.4419  0.1797  0.3414
 5847TIP3    H138956   3.575   5.089  12.108  1.1731  0.7929  0.2355
 5847TIP3    H238957   3.676   5.038  12.007 -0.8184 -1.6546 -0.5792
 5848TIP3   OH238958   2.275   5.741  11.405  0.1540 -0.0675  0.2204
 5848TIP3    H138959   2.307   5.657  11.373 -0.2972 -0.3975  0.6377
 5848TIP3    H238960   2.192   5.721  11.448 -0.1407  0.6430 -0.0050
 5849TIP3   OH238961   2.862   6.103  12.870  0.3927  0.0276 -0.1043
 5849TIP3    H138962   2.954   6.100  12.847  1.0239 -0.5638  2.3064
 5849TIP3    H238963   2.821   6.037  12.815  1.3940  0.3216 -1.2181
 5850TIP3   OH238964   5.480   6.597  13.621  0.0245 -0.1861  0.4593
 5850TIP3    H138965   5.574   6.582  13.629  0.1317  0.1482 -0.1677
 5850TIP3    H238966   5.441   6.509  13.619  0.1213 -0.3187  3.0559
 5851TIP3   OH238967   1.463   1.239  13.785  0.0605  0.2462  0.2036
 5851TIP3    H138968   1.474   1.191  13.868 -0.5417 -1.2961 -0.5801
 5851TIP3    H238969   1.369   1.255  13.780 -0.4007 -2.6185 -1.7347
 5852TIP3   OH238970   5.256   5.990  13.563  0.1099 -0.2016 -0.0450
 5852TIP3    H138971   5.182   6.041  13.595 -1.0411  0.2181 -3.2052
 5852TIP3    H238972   5.221   5.902  13.547  0.6551 -0.4073 -0.1413
 5853TIP3   OH238973   3.690   5.574  13.412 -0.2385 -0.0894  0.4836
 5853TIP3    H138974   3.666   5.530  13.331  0.6221  0.2070  0.0589
 5853TIP3    H238975   3.760   5.634  13.387 -1.6578  1.8445  0.9678
 5854TIP3   OH238976   4.848   6.261  10.609  0.1549 -0.1104 -0.1830
 5854TIP3    H138977   4.772   6.259  10.552 -0.4726 -1.3819  0.6670
 5854TIP3    H238978   4.869   6.354  10.619 -0.0443  0.1348 -2.0335
 5855TIP3   OH238979   4.175   0.426  13.660  0.6446 -0.3309 -0.5735
 5855TIP3    H138980   4.138   0.349  13.616  1.6607 -0.0724 -1.9038
 5855TIP3    H238981   4.124   0.500  13.627  0.1268 -0.3455  0.1766
 5856TIP3   OH238982   2.557   6.940  13.819  0.1373  0.1689  0.3097
 5856TIP3    H138983   2.498   6.936  13.744  0.8249 -0.2480 -0.2025
 5856TIP3    H238984   2.513   7.001  13.880  0.6415  2.2405 -1.3497
 5857TIP3   OH238985   1.634   5.458  12.923 -0.2870  0.3023 -0.6663
 5857TIP3    H138986   1.622   5.505  12.840 -0.0204  0.5397 -0.5713
 5857TIP3    H238987   1.685   5.381  12.899  0.6620  0.8900 -0.5604
 5858TIP3   OH238988   3.186   3.259  12.730 -0.4263 -0.0973 -0.2617
 5858TIP3    H138989   3.237   3.251  12.649  0.6413 -2.7016  0.6130
 5858TIP3    H238990   3.101   3.220  12.709  0.1178 -1.4903  0.0699
 5859TIP3   OH238991   4.168   6.374  11.437 -0.3868  0.6273  0.0578
 5859TIP3    H138992   4.245   6.431  11.437 -0.3946  0.6455  1.0537
 5859TIP3    H238993   4.156   6.350  11.529 -0.5261 -0.8025 -0.3262
 5860TIP3   OH238994   0.607   5.013  12.543 -0.3419  0.2728 -0.0668
 5860TIP3    H138995   0.623   4.922  12.566  0.2648  0.5060  0.4607
 5860TIP3    H238996   0.520   5.014  12.504  0.1876 -0.7479 -1.3112
 5861TIP3   OH238997   1.208   6.899  13.381 -0.3189  0.2956  0.6070
 5861TIP3    H138998   1.274   6.968  13.396 -0.8145  0.7352  0.7789
 5861TIP3    H238999   1.132   6.928  13.431 -1.7471  1.4120 -2.1451
 5862TIP3   OH239000   4.492   1.280  11.334 -0.0325  0.4634 -0.5726
 5862TIP3    H139001   4.423   1.304  11.273  0.3562  0.5118 -0.9895
 5862TIP3    H239002   4.547   1.218  11.286  0.6526  1.0101 -0.4967
 5863TIP3   OH239003   3.055   6.114  11.727 -0.0511 -0.2355 -0.1821
 5863TIP3    H139004   3.106   6.046  11.683 -0.2380 -0.7428  0.3823
 5863TIP3    H239005   2.982   6.130  11.668  0.9587  0.7754 -1.1866
 5864TIP3   OH239006   4.596   6.638  10.718 -0.1293 -0.1021 -0.7739
 5864TIP3    H139007   4.523   6.687  10.679 -0.0960  0.4527 -0.1423
 5864TIP3    H239008   4.558   6.554  10.744 -0.5025  0.1203 -0.6030
 5865TIP3   OH239009   3.248   4.441  11.923  0.0361  0.1480 -0.0596
 5865TIP3    H139010   3.244   4.470  11.832 -0.7704 -1.8090 -0.7012
 5865TIP3    H239011   3.322   4.380  11.926 -0.5205 -0.5268  0.3402
 5866TIP3   OH239012   2.535   6.548  14.298  0.3473  0.4541 -0.0709
 5866TIP3    H139013   2.532   6.563  14.392  0.9764  0.0106  0.0204
 5866TIP3    H239014   2.628   6.546  14.276  0.2113  0.2823 -0.6569
 5867TIP3   OH239015   2.811   4.591  13.378  0.3434 -0.4718 -0.0518
 5867TIP3    H139016   2.874   4.571  13.309  0.4718  1.0526 -0.4004
 5867TIP3    H239017   2.830   4.528  13.447 -0.1878 -2.4260 -1.6355
 5868TIP3   OH239018   1.912   6.190  12.238 -0.8297 -0.4139  0.0186
 5868TIP3    H139019   1.966   6.132  12.291 -1.1619 -0.5048  0.2589
 5868TIP3    H239020   1.837   6.212  12.294 -0.1752  1.1098  0.3377
 5869TIP3   OH239021   2.891   6.106  11.985  0.2947 -0.3032  0.2161
 5869TIP3    H139022   2.868   6.188  12.029 -0.9299 -0.4176 -0.1865
 5869TIP3    H239023   2.922   6.133  11.899  0.7303 -0.2085  0.4026
 5870TIP3   OH239024   1.218   6.361  12.859  0.2484  0.0606 -0.1825
 5870TIP3    H139025   1.217   6.273  12.821 -0.9842  1.3335 -3.2397
 5870TIP3    H239026   1.306   6.395  12.839  0.7558 -0.4842  1.0775
 5871TIP3   OH239027   1.432   7.113  12.993  0.7037  0.2874  0.4495
 5871TIP3    H139028   1.369   7.065  12.940  3.3998 -1.9361 -0.8301
 5871TIP3    H239029   1.381   7.145  13.068 -2.3286  0.2594 -1.5276
 5872TIP3   OH239030   0.410   6.549  13.753 -0.2926  0.4247  0.1285
 5872TIP3    H139031   0.335   6.562  13.695 -0.3329 -1.9076 -0.3803
 5872TIP3    H239032   0.391   6.605  13.829 -3.2814 -1.2209  0.6742
 5873TIP3   OH239033   2.886   7.267  12.460  0.3305  0.3131 -0.8986
 5873TIP3    H139034   2.904   7.355  12.427  0.9469 -0.0485 -1.5431
 5873TIP3    H239035   2.816   7.234  12.404 -2.0126  1.4892  1.2261
 5874TIP3   OH239036   3.065   5.474  12.976 -0.0450 -0.1693  0.1818
 5874TIP3    H139037   3.054   5.568  12.972  1.6358  0.0416 -0.0354
 5874TIP3    H239038   3.066   5.446  12.884  1.8886 -0.0557  0.1356
 5875TIP3   OH239039   1.416   6.823  11.969 -0.7332 -0.0460 -0.1900
 5875TIP3    H139040   1.474   6.757  11.930 -0.0312  0.4512  0.0017
 5875TIP3    H239041   1.417   6.896  11.907 -0.8249  0.1309  0.0142
 5876TIP3   OH239042   5.351   6.922  14.263  0.1374 -0.0119  0.0552
 5876TIP3    H139043   5.300   6.919  14.182 -0.1446 -0.5956  0.2561
 5876TIP3    H239044   5.373   7.015  14.274 -1.7768  0.4118  0.5216
 5877TIP3   OH239045   1.261   0.226  11.583  0.4755 -0.1267 -0.5141
 5877TIP3    H139046   1.217   0.161  11.528  0.9049 -2.2199  1.5193
 5877TIP3    H239047   1.231   0.311  11.550 -3.1612 -1.4402 -0.7490
 5878TIP3   OH239048   4.462   6.420  10.787  0.2759 -0.4584 -0.4321
 5878TIP3    H139049   4.373   6.448  10.807  0.2299 -1.2430  0.5211
 5878TIP3    H239050   4.458   6.387  10.697 -0.1933  0.2983 -0.6957
 5879TIP3   OH239051   2.026   6.994  12.701  0.6927  0.1377 -0.1558
 5879TIP3    H139052   2.026   7.075  12.752  0.1567 -0.6627  1.1575
 5879TIP3    H239053   2.026   6.924  12.767 -2.2741 -0.9432 -1.2010
 5880TIP3   OH239054   3.742   5.297  10.468 -0.1890 -0.3014 -0.6070
 5880TIP3    H139055   3.650   5.295  10.440 -0.4514  0.5665  0.1784
 5880TIP3    H239056   3.768   5.388  10.459  0.7588 -0.6330 -1.3114
 5881TIP3   OH239057   7.002   6.883  11.685  0.1225  0.1866  0.5275
 5881TIP3    H139058   6.979   6.826  11.611  0.8540  0.9306 -0.2961
 5881TIP3    H239059   6.965   6.840  11.761 -1.6086 -0.0329 -0.4181
 5882TIP3   OH239060   2.241   6.876  12.078  0.2870  0.2198  0.4816
 5882TIP3    H139061   2.147   6.892  12.081  0.0396 -1.1089  0.2435
 5882TIP3    H239062   2.280   6.955  12.115 -0.8276  1.5817 -1.1938
 5883TIP3   OH239063   4.989   0.077  13.794 -0.4307 -0.0224  0.5506
 5883TIP3    H139064   4.936   0.150  13.825 -0.1759  0.5702 -0.3959
 5883TIP3    H239065   5.062   0.118  13.748  0.2383 -0.8566  0.8479
 5884TIP3   OH239066   2.087   6.354  13.519  0.3986  0.2100 -0.3239
 5884TIP3    H139067   2.061   6.262  13.512  0.4925  0.3147 -2.3503
 5884TIP3    H239068   2.175   6.356  13.481  0.8858  0.9300  0.8337
 5885TIP3   OH239069   4.846   1.927  11.779  0.4726 -0.6396 -0.7547
 5885TIP3    H139070   4.867   1.958  11.691  1.1725 -0.7940 -0.6498
 5885TIP3    H239071   4.900   1.848  11.790 -2.0162 -2.4924 -1.4016
 5886TIP3   OH239072   0.400   1.694  13.202 -0.1403 -0.2719 -0.5160
 5886TIP3    H139073   0.489   1.722  13.222 -0.5712  1.3644 -0.8211
 5886TIP3    H239074   0.389   1.714  13.109 -0.4360 -1.5532 -0.7678
 5887TIP3   OH239075   0.001   5.133  11.180 -0.1561 -0.4315  0.3105
 5887TIP3    H139076   0.063   5.205  11.168  1.2617 -1.7508 -0.5510
 5887TIP3    H239077   0.021   5.098  11.267 -0.1839 -0.3853  0.3356
 5888TIP3   OH239078   0.413   6.906  12.979 -0.5251 -0.0834  0.1474
 5888TIP3    H139079   0.494   6.858  12.965  0.4329  1.4208  0.4412
 5888TIP3    H239080   0.393   6.894  13.072 -1.0817 -1.1122 -0.0968
 5889TIP3   OH239081   3.281   6.252  14.415  0.0030 -0.1605  0.8878
 5889TIP3    H139082   3.341   6.246  14.342 -0.7941  0.8832  0.1265
 5889TIP3    H239083   3.320   6.316  14.474 -0.0515  0.0650  0.6805
 5890TIP3   OH239084   3.010   0.711  11.899 -0.0531 -0.5089  0.3055
 5890TIP3    H139085   3.072   0.738  11.831 -0.4768  0.7887  0.4035
 5890TIP3    H239086   2.926   0.704  11.853 -0.3889  0.6074  0.7085
 5891TIP3   OH239087   3.191   3.280  10.998  0.7534  0.0415  0.2457
 5891TIP3    H139088   3.105   3.304  10.964  0.3020  1.2824  2.1520
 5891TIP3    H239089   3.246   3.270  10.920 -1.5920 -2.9235 -1.1250
 5892TIP3   OH239090   2.770   5.959  12.671  0.3590  0.3560  0.0441
 5892TIP3    H139091   2.698   5.912  12.628  0.5442  0.0856  0.0295
 5892TIP3    H239092   2.849   5.913  12.643  0.4628 -0.0045  0.8972
 5893TIP3   OH239093   1.336   5.513  11.976 -0.0524 -0.8425  0.4334
 5893TIP3    H139094   1.350   5.490  11.884  0.5381 -0.3532  0.3968
 5893TIP3    H239095   1.288   5.595  11.974  2.2000  0.5088  0.5420
 5894TIP3   OH239096   4.689   5.792  14.097 -0.3033 -0.4389  0.6959
 5894TIP3    H139097   4.729   5.734  14.162 -1.5586 -1.0872  0.8983
 5894TIP3    H239098   4.689   5.878  14.140 -0.2588 -0.6742  1.1806
 5895TIP3   OH239099   2.637   5.895  13.635 -0.1351 -0.3361 -0.0750
 5895TIP3    H139100   2.549   5.922  13.611 -0.3896 -2.0494 -1.1076
 5895TIP3    H239101   2.643   5.804  13.609  1.8289 -0.3548  0.3240
 5896TIP3   OH239102   0.949   0.767  12.396  0.5293  0.3742  0.1577
 5896TIP3    H139103   1.038   0.801  12.387 -0.1726  2.2596 -0.0224
 5896TIP3    H239104   0.956   0.696  12.459  2.5697 -1.1893 -1.7653
 5897TIP3   OH239105   4.413   7.198  11.393 -0.1406  0.2922  0.4759
 5897TIP3    H139106   4.342   7.134  11.392 -0.1832  0.3502 -0.0352
 5897TIP3    H239107   4.444   7.197  11.484 -1.7557  1.3373  1.0557
 5898TIP3   OH239108   2.791   0.398  11.749 -0.6754  0.1040 -0.0836
 5898TIP3    H139109   2.737   0.334  11.795  1.0778 -0.8539  0.6764
 5898TIP3    H239110   2.881   0.375  11.772  0.2084  0.0890 -3.3652
 5899TIP3   OH239111   3.286   6.680  12.248  0.4062 -0.1014  0.0782
 5899TIP3    H139112   3.368   6.724  12.228  1.1628 -0.7295  1.7220
 5899TIP3    H239113   3.228   6.749  12.280 -0.1291  0.5484 -2.2379
 5900TIP3   OH239114   3.708   0.297  12.879  0.0217 -0.4805 -0.6448
 5900TIP3    H139115   3.656   0.256  12.948  1.2199 -0.0819  0.5151
 5900TIP3    H239116   3.716   0.230  12.811  0.1992 -1.4414  0.3185
 5901TIP3   OH239117   3.216   5.982  14.606 -0.0209  0.0802  0.1206
 5901TIP3    H139118   3.207   6.064  14.558 -0.7464 -1.1934 -1.9729
 5901TIP3    H239119   3.197   5.913  14.542  2.9427 -1.8693  1.2049
 5902TIP3   OH239120   1.608   6.756  11.047 -0.6347 -0.3077 -0.3773
 5902TIP3    H139121   1.548   6.691  11.012 -1.1368  0.2236 -0.5095
 5902TIP3    H239122   1.599   6.749  11.142 -0.1229 -0.9532 -0.3731
 5903TIP3   OH239123   6.868   0.532  13.041 -0.6513  0.0448  0.8326
 5903TIP3    H139124   6.851   0.478  12.964  2.2424 -1.5576  1.2498
 5903TIP3    H239125   6.867   0.622  13.008 -1.0270 -0.5202 -0.7537
 5904TIP3   OH239126   2.235   7.169  14.089 -0.5732  0.0546 -0.2968
 5904TIP3    H139127   2.247   7.254  14.048 -0.6685 -0.2571 -0.9979
 5904TIP3    H239128   2.155   7.135  14.049 -0.0861 -0.7087 -0.6345
 5905TIP3   OH239129   5.105   5.276  15.023  0.8976 -0.2844  0.2512
 5905TIP3    H139130   5.135   5.212  15.087  0.5651 -0.4153  0.2744
 5905TIP3    H239131   5.048   5.226  14.964  1.0698 -0.1287 -0.0481
 5906TIP3   OH239132   2.107   5.893  12.036 -0.1344  0.0160 -0.3991
 5906TIP3    H139133   2.192   5.937  12.031 -1.2240  2.1518 -0.8028
 5906TIP3    H239134   2.046   5.954  11.996 -1.6555 -2.0930 -1.4146
 5907TIP3   OH239135   2.300   6.319  13.319 -0.7347 -0.3081  0.5228
 5907TIP3    H139136   2.245   6.385  13.277 -1.7191 -0.2315  1.9041
 5907TIP3    H239137   2.311   6.251  13.252  0.3658  1.2529 -0.9531
 5908TIP3   OH239138   1.931   5.702  14.537  0.1315  0.3984 -0.7029
 5908TIP3    H139139   1.961   5.788  14.509 -1.8142  1.4875  0.4657
 5908TIP3    H239140   1.875   5.671  14.466  0.1213  0.4647 -0.7224
 5909TIP3   OH239141   3.150   4.907  11.611  0.5009  0.3426  0.0858
 5909TIP3    H139142   3.231   4.953  11.591 -0.4792  1.4506 -1.4524
 5909TIP3    H239143   3.114   4.882  11.526  0.1124 -1.7466  0.8168
 5910TIP3   OH239144   1.049   3.770  12.739  0.0301  0.0924 -0.1518
 5910TIP3    H139145   1.111   3.709  12.779 -0.1986  0.8741  1.4563
 5910TIP3    H239146   1.024   3.729  12.656  1.1536 -1.1844  0.1292
 5911TIP3   OH239147   6.315   6.711  12.062  0.0744  0.0223 -0.6347
 5911TIP3    H139148   6.356   6.797  12.074 -0.2428  0.0806  0.0446
 5911TIP3    H239149   6.267   6.719  11.980  0.2241  0.4245 -0.6832
 5912TIP3   OH239150   4.654   4.446  13.766  0.4760 -0.4852 -0.1346
 5912TIP3    H139151   4.631   4.534  13.797 -0.9311 -1.0638  0.5424
 5912TIP3    H239152   4.581   4.391  13.797  2.0851 -2.1472  0.7733
 5913TIP3   OH239153   3.024   5.586  11.355  0.2367 -0.2620 -0.2229
 5913TIP3    H139154   3.116   5.613  11.351  0.1998 -0.2855 -1.5680
 5913TIP3    H239155   2.980   5.656  11.402  1.3496 -1.4139  2.6206
 5914TIP3   OH239156   4.134   1.721  12.331 -0.9647 -0.3495  0.1553
 5914TIP3    H139157   4.043   1.739  12.353 -1.7284 -0.4446 -2.7544
 5914TIP3    H239158   4.160   1.794  12.274  0.2437 -1.2195 -0.4395
 5915TIP3   OH239159   6.051   6.434  13.957 -0.3517 -0.5699 -0.1976
 5915TIP3    H139160   6.127   6.397  14.001  0.1240 -0.3246 -0.7899
 5915TIP3    H239161   5.989   6.361  13.949  0.1076 -0.9482 -0.3334
 5916TIP3   OH239162   1.893   7.032  11.128  0.1880 -0.5141  0.5629
 5916TIP3    H139163   1.874   6.980  11.206 -2.2160 -1.6796 -0.7591
 5916TIP3    H239164   1.911   6.968  11.060  2.0225  0.4924  0.0590
 5917TIP3   OH239165   4.137   6.035  12.426 -0.5718 -0.0153  1.1548
 5917TIP3    H139166   4.093   5.957  12.395 -0.5989 -0.3673  2.0502
 5917TIP3    H239167   4.186   6.006  12.504  0.2492  0.6264  0.8940
 5918TIP3   OH239168   1.028   6.824  12.649 -0.7871  0.7005  0.2602
 5918TIP3    H139169   1.094   6.893  12.658 -2.3122  2.3631 -0.9034
 5918TIP3    H239170   1.020   6.787  12.737  3.0163 -0.8377  0.0509
 5919TIP3   OH239171   1.234   4.775  10.564 -0.2589  0.1172 -0.3020
 5919TIP3    H139172   1.310   4.773  10.506  1.7852  1.1275  2.2568
 5919TIP3    H239173   1.179   4.845  10.528  1.8554  2.0019 -0.0296
 5920TIP3   OH239174   2.891   6.838  12.492  0.1237 -0.1540 -0.6109
 5920TIP3    H139175   2.797   6.845  12.478  0.0465 -2.6603 -1.5842
 5920TIP3    H239176   2.922   6.783  12.420  1.9216 -1.6196  1.2086
 5921TIP3   OH239177   3.056   6.184  11.143 -0.6186  0.9905  0.0026
 5921TIP3    H139178   3.127   6.201  11.081 -0.1086 -0.6832  0.1293
 5921TIP3    H239179   3.096   6.197  11.229 -0.8766  1.5609  0.0436
 5922TIP3   OH239180   2.052   1.969  11.619  0.2816 -0.3405  0.8200
 5922TIP3    H139181   1.999   2.022  11.678 -1.5392  1.0221 -1.9239
 5922TIP3    H239182   2.060   2.023  11.540  0.5024 -3.1195 -1.1201
 5923TIP3   OH239183   2.680   0.364  12.341 -0.1915  0.0569 -0.5233
 5923TIP3    H139184   2.720   0.379  12.256 -0.3735  0.4454 -0.5421
 5923TIP3    H239185   2.686   0.449  12.386 -0.8922  0.0855 -0.4836
 5924TIP3   OH239186   1.651   6.944  11.714  0.0239 -0.1566 -0.1572
 5924TIP3    H139187   1.728   6.906  11.755  1.0827  1.1529 -0.9104
 5924TIP3    H239188   1.686   7.002  11.646 -1.6370 -1.5286 -2.2764
 5925TIP3   OH239189   3.926   0.473  13.121 -0.1254  0.1021  0.2489
 5925TIP3    H139190   3.968   0.433  13.046 -0.0198 -0.3468  0.5450
 5925TIP3    H239191   3.856   0.412  13.145 -0.2063  0.2773  0.4663
 5926TIP3   OH239192   2.141   6.906  10.647  0.3542  0.6522  0.5748
 5926TIP3    H139193   2.190   6.824  10.654 -0.5602  0.2099  1.8853
 5926TIP3    H239194   2.079   6.891  10.576 -0.2121 -0.0130  1.2002
 5927TIP3   OH239195   3.916   6.667  11.626  0.5683 -0.5280 -0.4550
 5927TIP3    H139196   3.874   6.586  11.656 -1.5679  1.7500  3.1925
 5927TIP3    H239197   3.994   6.676  11.681  0.9805 -0.2718 -1.0722
 5928TIP3   OH239198   2.716   6.681  13.642 -0.3097 -0.2095 -0.0266
 5928TIP3    H139199   2.780   6.731  13.591 -0.7599  0.7276  0.3211
 5928TIP3    H239200   2.632   6.721  13.620 -0.8139 -1.5897 -0.6654
 5929TIP3   OH239201   6.847   7.045  14.321 -0.5973  0.0887  0.0657
 5929TIP3    H139202   6.898   7.030  14.401  0.7878  0.9030 -0.6432
 5929TIP3    H239203   6.831   7.140  14.321 -0.4847  0.1088 -0.6944
 5930TIP3   OH239204   3.741   4.649  10.581 -0.0837  0.7074 -0.4681
 5930TIP3    H139205   3.827   4.635  10.620 -1.6772 -3.3177  1.8520
 5930TIP3    H239206   3.758   4.652  10.486  2.7234  1.3297  0.0150
 5931TIP3   OH239207   0.846   0.048  13.745 -0.0927 -0.3632 -0.3088
 5931TIP3    H139208   0.853   0.141  13.765 -1.0024 -0.6785  1.5431
 5931TIP3    H239209   0.792   0.045  13.665  1.4725  0.7704 -1.4389
 5932TIP3   OH239210   4.859   6.345  12.597  0.6496  0.4312 -0.0520
 5932TIP3    H139211   4.853   6.435  12.627  0.9156 -0.0732  1.5395
 5932TIP3    H239212   4.771   6.309  12.611  0.8419  0.1202  0.3656
 5933TIP3   OH239213   0.104   0.909  12.986  0.5734  0.0344 -0.1035
 5933TIP3    H139214   0.016   0.940  13.004  1.2848  1.2239  1.4849
 5933TIP3    H239215   0.133   0.868  13.069  1.0479 -1.4942 -0.9922
 5934TIP3   OH239216   1.176   6.379  12.195  0.0560 -0.4515 -0.0767
 5934TIP3    H139217   1.107   6.349  12.254 -0.3758  0.3242 -0.1903
 5934TIP3    H239218   1.158   6.472  12.181  1.7752  0.0255  0.7823
 5935TIP3   OH239219   1.084   6.370  11.648  0.0683 -0.0993  0.0195
 5935TIP3    H139220   1.092   6.340  11.738 -1.3831  0.0965  0.2214
 5935TIP3    H239221   1.171   6.355  11.610  0.4863 -0.8301  1.2393
 5936TIP3   OH239222   6.003   5.888  14.211  0.0310  0.2998  0.1021
 5936TIP3    H139223   5.925   5.857  14.165  1.0123 -0.6057 -0.9700
 5936TIP3    H239224   5.968   5.940  14.284 -1.5850 -0.6486  0.0381
 5937TIP3   OH239225   6.128   5.207  13.148 -0.5654  0.6686 -0.6409
 5937TIP3    H139226   6.189   5.275  13.121  0.0732  1.0484  1.6908
 5937TIP3    H239227   6.182   5.142  13.193 -1.7352  0.5832  0.6893
 5938TIP3   OH239228   3.283   5.434  13.281 -0.0558  0.6055  0.1404
 5938TIP3    H139229   3.207   5.409  13.228  1.1217  1.2770 -1.9399
 5938TIP3    H239230   3.246   5.475  13.359 -1.8579 -1.2486  0.2710
 5939TIP3   OH239231   2.011   5.979  13.149 -0.7941  0.3542  0.8306
 5939TIP3    H139232   2.071   5.946  13.083  0.1540  2.9672  0.3284
 5939TIP3    H239233   1.928   5.935  13.130 -0.1581 -0.0336 -1.1530
 5940TIP3   OH239234   4.925   1.623  14.178 -0.3614  0.2185  0.2532
 5940TIP3    H139235   4.977   1.678  14.235  0.7538 -0.1140 -0.4289
 5940TIP3    H239236   4.878   1.684  14.121 -0.9984  0.5274  1.0883
 5941TIP3   OH239237   4.490   7.272  12.126  0.0494  0.0899  0.2960
 5941TIP3    H139238   4.469   7.353  12.079  2.2759  0.0537 -0.8465
 5941TIP3    H239239   4.552   7.227  12.069 -0.5116 -2.0417  1.3190
 5942TIP3   OH239240   4.315   0.849  12.539  0.0222 -0.5881 -0.3411
 5942TIP3    H139241   4.219   0.850  12.535 -0.0609 -0.4540  1.3404
 5942TIP3    H239242   4.342   0.895  12.460 -1.2796 -1.3617 -1.2764
 5943TIP3   OH239243   3.418   0.695  11.935  0.1208 -0.7360  0.4923
 5943TIP3    H139244   3.401   0.672  11.844 -2.8273 -0.5740  0.9615
 5943TIP3    H239245   3.493   0.754  11.931  0.8825 -1.8120 -1.6964
 5944TIP3   OH239246   3.289   5.505  11.077 -0.1736 -0.7646  0.4889
 5944TIP3    H139247   3.382   5.502  11.054 -0.3450 -1.3876 -0.1397
 5944TIP3    H239248   3.284   5.569  11.148  0.6646 -0.3616  0.1902
 5945TIP3   OH239249   0.738   4.944  13.781  0.3451 -0.1094 -0.8020
 5945TIP3    H139250   0.653   4.926  13.821  0.3434 -0.2910 -0.8834
 5945TIP3    H239251   0.745   5.039  13.778  0.4874 -0.0969 -0.0741
 5946TIP3   OH239252   5.918   1.857  11.834  0.2052  0.0604  0.5169
 5946TIP3    H139253   6.011   1.854  11.811  0.4941 -2.2178  1.7910
 5946TIP3    H239254   5.873   1.816  11.759  0.3396  0.0296  0.4544
 5947TIP3   OH239255   2.592   6.825  13.099 -0.9919 -0.4605 -0.0706
 5947TIP3    H139256   2.566   6.732  13.103 -0.8551 -0.4602  0.9723
 5947TIP3    H239257   2.573   6.851  13.009  0.3140 -1.8975 -0.7833
 5948TIP3   OH239258   3.552   6.861  14.552  0.3144 -0.0676 -0.6661
 5948TIP3    H139259   3.499   6.817  14.485  0.2577 -2.0426  0.6441
 5948TIP3    H239260   3.635   6.814  14.551  0.1716 -0.3797  0.9106
 5949TIP3   OH239261   0.339   6.571  13.205  0.0430  0.5536 -0.0684
 5949TIP3    H139262   0.366   6.614  13.287 -1.6991 -0.5451  1.1179
 5949TIP3    H239263   0.257   6.615  13.182  0.2657  0.5050 -0.9558
 5950TIP3   OH239264   2.041   6.459  12.466  0.2029 -0.1511  0.2229
 5950TIP3    H139265   2.092   6.448  12.546  0.3705 -0.0055  0.1379
 5950TIP3    H239266   2.100   6.431  12.396  0.5624  1.0405  0.0261
 5951TIP3   OH239267   2.017   5.868  13.682  0.2258  0.0463  0.0461
 5951TIP3    H139268   2.106   5.896  13.660 -0.4800  0.7184 -2.1574
 5951TIP3    H239269   2.019   5.849  13.776  2.9542 -0.9980 -0.1922
 5952TIP3   OH239270   2.875   5.074  10.563 -0.2303  0.1755 -0.1503
 5952TIP3    H139271   2.903   5.018  10.490  2.0182  0.0169  0.7922
 5952TIP3    H239272   2.951   5.130  10.581 -0.8915  0.4857  1.7894
 5953TIP3   OH239273   3.016   5.353  12.720  0.4714  0.0593  0.1934
 5953TIP3    H139274   3.039   5.263  12.698 -1.6766 -0.3615 -0.4013
 5953TIP3    H239275   3.026   5.401  12.637 -0.3863 -0.0556  0.0172
 5954TIP3   OH239276   4.674   0.054  14.762 -0.0718  0.3743  0.6865
 5954TIP3    H139277   4.579   0.060  14.757 -0.2027 -0.4558  2.0437
 5954TIP3    H239278   4.705   0.112  14.692 -1.5910 -1.0123 -1.1750
 5955TIP3   OH239279   0.133   6.582  14.759 -0.0429  0.3256 -0.1506
 5955TIP3    H139280   0.041   6.561  14.774 -0.3889  2.6119  1.1752
 5955TIP3    H239281   0.175   6.567  14.844  0.4253  1.0636 -0.2404
 5956TIP3   OH239282   4.137   0.741  11.528  0.2127  0.0337  0.4587
 5956TIP3    H139283   4.072   0.688  11.573  0.8227 -0.3094  0.9513
 5956TIP3    H239284   4.198   0.678  11.491 -1.0822  0.2433 -2.1354
 5957TIP3   OH239285   2.319   5.742  11.700 -0.1508 -0.1291  0.0282
 5957TIP3    H139286   2.315   5.770  11.609 -1.2435 -1.8151 -0.4757
 5957TIP3    H239287   2.397   5.687  11.705  0.0953  0.2304  0.2042
 5958TIP3   OH239288   3.668   0.310  12.046 -0.0446 -0.4561  0.9381
 5958TIP3    H139289   3.714   0.379  12.093 -0.4750  0.2960  0.2750
 5958TIP3    H239290   3.730   0.237  12.043  1.0017  0.4437  0.2987
 5959TIP3   OH239291   3.543   0.645  13.368  0.6392 -0.3308  0.1218
 5959TIP3    H139292   3.480   0.576  13.390 -1.0562  1.3970  0.8276
 5959TIP3    H239293   3.496   0.702  13.308  1.6964  0.7342  0.2947
 5960TIP3   OH239294   4.538   5.620  12.630 -0.3183 -0.4169 -0.2342
 5960TIP3    H139295   4.525   5.713  12.646 -0.2691 -0.7039  1.5009
 5960TIP3    H239296   4.523   5.578  12.714  2.6596 -1.6810 -0.2745
 5961TIP3   OH239297   2.006   5.672  12.730 -0.4071 -0.4119 -0.3913
 5961TIP3    H139298   2.061   5.708  12.660 -2.9400  0.3553 -2.0211
 5961TIP3    H239299   1.967   5.594  12.692 -1.3305 -0.3309  0.3877
 5962TIP3   OH239300   2.620   0.698  14.211  0.0380  0.4574  0.9868
 5962TIP3    H139301   2.551   0.678  14.147 -1.0257 -0.1444  2.2894
 5962TIP3    H239302   2.701   0.673  14.168 -0.7442 -0.7883  0.1950
 5963TIP3   OH239303   3.844   6.535  12.586  0.2638  0.2514  0.2400
 5963TIP3    H139304   3.891   6.542  12.503 -0.5893 -1.1146 -0.3834
 5963TIP3    H239305   3.912   6.538  12.653  1.1520 -0.6268 -0.6033
 5964TIP3   OH239306   5.455   5.840  13.251 -0.0675 -0.1788  0.7236
 5964TIP3    H139307   5.444   5.750  13.282 -4.0867 -0.0915 -0.1072
 5964TIP3    H239308   5.466   5.831  13.156 -0.4613  0.1827  0.6427
 5965TIP3   OH239309   5.435   6.366  13.108 -0.8440 -0.2789 -0.0751
 5965TIP3    H139310   5.369   6.312  13.152  1.0880 -1.3490  1.5858
 5965TIP3    H239311   5.424   6.347  13.015 -1.2007 -2.4059  0.3736
 5966TIP3   OH239312   3.067   6.425  15.038  0.6850 -0.3434  0.1196
 5966TIP3    H139313   3.056   6.330  15.039  1.5117 -0.4462  1.0052
 5966TIP3    H239314   3.112   6.444  15.120 -0.6483  0.9622  0.5818
 5967TIP3   OH239315   3.641   6.477  15.845  0.7393  0.3138  0.3446
 5967TIP3    H139316   3.557   6.445  15.813  2.1335 -3.0775 -0.0590
 5967TIP3    H239317   3.641   6.570  15.822 -1.9965 -0.0946 -1.5440
 5968TIP3   OH239318   3.441   5.681  13.449  0.5439 -0.2714  0.8075
 5968TIP3    H139319   3.418   5.644  13.534  0.9128  0.2449  1.1382
 5968TIP3    H239320   3.533   5.657  13.436  0.1548 -1.3490  0.0156
 5969TIP3   OH239321   4.521   7.053  12.562  0.4485 -0.3456  0.0535
 5969TIP3    H139322   4.584   7.098  12.619  1.3204 -0.2396 -0.9752
 5969TIP3    H239323   4.438   7.099  12.578  0.6904 -0.2737  1.1788
 5970TIP3   OH239324   2.369   5.344  12.781 -0.0146 -0.6575 -0.1318
 5970TIP3    H139325   2.288   5.356  12.831  0.6657  0.6969  0.6862
 5970TIP3    H239326   2.423   5.287  12.837  1.0164  1.4121  1.0445
 5971TIP3   OH239327   3.538   5.655  14.822  0.2352 -0.1662 -0.1061
 5971TIP3    H139328   3.510   5.685  14.736 -3.1688 -1.7789  0.3443
 5971TIP3    H239329   3.581   5.571  14.805  0.2826 -0.1032 -0.2953
 5972TIP3   OH239330   1.074   6.296  13.838  0.1307 -0.2909 -0.0181
 5972TIP3    H139331   1.011   6.256  13.778  0.4355  0.0674 -0.5763
 5972TIP3    H239332   1.103   6.223  13.894 -1.6610 -0.2242  1.0243
 5973TIP3   OH239333   7.095   6.090  13.022 -0.6240 -0.3496 -0.2862
 5973TIP3    H139334   7.044   6.010  13.024 -1.7398  0.2513 -2.3215
 5973TIP3    H239335   7.034   6.158  13.053  0.0780 -0.1878  0.7341
 5974TIP3   OH239336   3.647   5.161  12.581  0.2853  0.3756  0.6428
 5974TIP3    H139337   3.639   5.092  12.645 -0.5420  1.5103  1.7818
 5974TIP3    H239338   3.734   5.199  12.598  0.2710  0.3560  0.7589
 5975TIP3   OH239339   2.516   5.651  13.571 -0.2241 -0.0528  0.3438
 5975TIP3    H139340   2.427   5.653  13.608  0.0341  0.2505  0.9555
 5975TIP3    H239341   2.520   5.568  13.523 -1.0395  0.2124 -0.1841
 5976TIP3   OH239342   0.622   6.124  13.669 -0.4500 -0.1650  0.0307
 5976TIP3    H139343   0.676   6.199  13.692 -1.1811  0.1502  0.7464
 5976TIP3    H239344   0.573   6.104  13.749 -2.5183  0.5186 -1.0335
 5977TIP3   OH239345   0.964   6.391  12.724 -0.7211 -0.5863  0.8726
 5977TIP3    H139346   0.956   6.296  12.717 -0.4923 -0.5290 -0.2158
 5977TIP3    H239347   1.057   6.406  12.743  0.1077 -0.3983 -2.9136
 5978TIP3   OH239348   2.647   4.067  13.600  0.2699  0.0220  0.0702
 5978TIP3    H139349   2.701   4.006  13.550 -1.6801 -1.2202 -0.5989
 5978TIP3    H239350   2.590   4.107  13.534 -1.0680 -0.2629  1.0328
 5979TIP3   OH239351   1.233   5.940  14.326 -0.5660  0.0263  0.0706
 5979TIP3    H139352   1.251   5.885  14.250  0.9708 -0.9066  1.0841
 5979TIP3    H239353   1.298   6.011  14.320 -1.5390  0.8890 -0.3967
 5980TIP3   OH239354   2.439   5.139  13.491  0.1867 -0.2040 -0.1786
 5980TIP3    H139355   2.375   5.089  13.442  1.1689 -1.2819 -0.3814
 5980TIP3    H239356   2.389   5.181  13.561 -1.1459  0.9723 -1.7882
 5981TIP3   OH239357   3.596   5.689  12.305  0.3278 -0.1969  0.5137
 5981TIP3    H139358   3.602   5.645  12.390 -1.1556 -0.6364  0.4083
 5981TIP3    H239359   3.530   5.757  12.318 -0.1853 -0.5179 -0.3975
 5982TIP3   OH239360   4.207   0.213  14.375 -0.0988  0.1735 -0.1934
 5982TIP3    H139361   4.209   0.265  14.294  1.8110  2.6427  1.3420
 5982TIP3    H239362   4.296   0.221  14.410 -1.4654  1.0492  3.2786
 5983TIP3   OH239363   3.680   0.884  13.451 -0.4264 -0.0367 -0.8381
 5983TIP3    H139364   3.698   0.794  13.423 -0.4867 -0.5133  0.6084
 5983TIP3    H239365   3.588   0.882  13.479 -1.1895  1.0848 -3.1193
 5984TIP3   OH239366   2.301   6.732  13.021  0.2495  0.5110 -0.0650
 5984TIP3    H139367   2.298   6.788  13.099 -0.2523 -1.0201  1.0582
 5984TIP3    H239368   2.278   6.645  13.054 -0.9860  0.0199 -2.1065
 5985TIP3   OH239369   3.086   5.244  10.342  0.3249  0.1753  0.6535
 5985TIP3    H139370   3.088   5.165  10.396  0.5303  0.1764  0.6496
 5985TIP3    H239371   3.174   5.248  10.303  0.0939  0.0392  0.1209
 5986TIP3   OH239372   4.137   0.481  10.747 -0.2079 -0.5123  0.4182
 5986TIP3    H139373   4.062   0.478  10.807 -1.1912 -0.4511 -0.7953
 5986TIP3    H239374   4.138   0.395  10.706  0.1451 -0.3720  0.1323
 5987TIP3   OH239375   1.272   5.810  10.799  0.1591 -0.3928  0.2490
 5987TIP3    H139376   1.237   5.730  10.837 -0.6688 -1.2127 -2.1220
 5987TIP3    H239377   1.217   5.880  10.833 -2.0321 -1.3564 -1.2016
 5988TIP3   OH239378   6.496   0.843  13.697 -0.3824  0.0655 -0.0645
 5988TIP3    H139379   6.449   0.815  13.618  0.9154  0.7259 -1.0980
 5988TIP3    H239380   6.435   0.902  13.741  0.0888  2.3094 -2.2971
 5989TIP3   OH239381   1.652   6.285  12.820  0.4370  0.5512 -0.1087
 5989TIP3    H139382   1.726   6.225  12.816 -0.0986 -0.1188 -0.0930
 5989TIP3    H239383   1.629   6.289  12.913  1.3967  1.9299  0.0759
 5990TIP3   OH239384   3.905   6.165  12.298 -0.2205 -0.8193  0.2075
 5990TIP3    H139385   4.000   6.165  12.288 -0.1202 -0.0242  1.0702
 5990TIP3    H239386   3.875   6.234  12.240 -0.3946 -1.9166 -1.0337
 5991TIP3   OH239387   6.014   6.687  10.912 -0.2067  0.5978 -0.6318
 5991TIP3    H139388   6.020   6.707  10.818 -0.6995 -1.5333 -1.1512
 5991TIP3    H239389   5.982   6.597  10.915  0.5413  0.3775  1.5966
 5992TIP3   OH239390   2.860   6.718  11.158 -0.1173  0.1200  0.4739
 5992TIP3    H139391   2.919   6.643  11.151 -1.8325 -1.1626 -0.7153
 5992TIP3    H239392   2.910   6.791  11.122  0.6932 -0.9843 -0.6845
 5993TIP3   OH239393   1.875   1.522  15.148 -0.7426 -0.0552 -0.3875
 5993TIP3    H139394   1.930   1.553  15.076 -2.0928 -0.9412 -1.8248
 5993TIP3    H239395   1.921   1.551  15.227  0.9085  0.6852 -1.5868
 5994TIP3   OH239396   3.508   6.146  11.796 -0.3592 -0.5954 -0.1297
 5994TIP3    H139397   3.498   6.112  11.707  0.8236 -1.9078  0.2156
 5994TIP3    H239398   3.560   6.226  11.785  2.3730 -2.3343 -0.3817
 5995TIP3   OH239399   5.908   6.103  12.044  0.0513  0.2480 -0.3098
 5995TIP3    H139400   5.944   6.033  11.990  0.3699  0.8945 -0.9447
 5995TIP3    H239401   5.852   6.153  11.985  0.2631  0.8570 -0.0114
 5996TIP3   OH239402   0.344   0.321  13.127 -0.4428 -0.3369 -0.1072
 5996TIP3    H139403   0.335   0.244  13.184 -1.3453  0.1170  0.3777
 5996TIP3    H239404   0.427   0.307  13.080 -1.0455 -2.0333 -0.6933
 5997TIP3   OH239405   2.508   6.161  11.852 -0.3703  0.0413  0.0250
 5997TIP3    H139406   2.439   6.205  11.902 -0.0599 -0.2296  0.6851
 5997TIP3    H239407   2.484   6.069  11.854 -0.2796  0.0134 -0.2017
 5998TIP3   OH239408   1.029   7.064  13.031 -0.7302  0.5168 -0.7118
 5998TIP3    H139409   1.026   6.976  13.068 -0.5737  0.4425 -0.8759
 5998TIP3    H239410   0.981   7.118  13.094  0.5453  0.6100  0.2188
 5999TIP3   OH239411   0.654   6.400  13.753 -0.0725 -0.0148  0.2010
 5999TIP3    H139412   0.572   6.448  13.754  1.2662  2.3546 -0.8966
 5999TIP3    H239413   0.685   6.403  13.844 -1.0070 -0.6473  0.5514
 6000TIP3   OH239414   1.947   6.133  11.981  0.4965  0.4804 -0.1317
 6000TIP3    H139415   2.031   6.179  11.975  0.7299  0.3387  1.8197
 6000TIP3    H239416   1.920   6.144  12.072 -0.4136 -1.5661 -0.1337
 6001TIP3   OH239417   4.655   0.143  11.166  0.4798 -0.2328  0.2108
 6001TIP3    H139418   4.724   0.161  11.230  2.1661  2.0700 -2.1739
 6001TIP3    H239419   4.574   0.147  11.218  1.8218  1.0639  2.3224
 6002TIP3   OH239420   3.446   4.898  10.941  0.0414  0.0146  0.0564
 6002TIP3    H139421   3.474   4.989  10.952  0.1827 -0.1237  0.8543
 6002TIP3    H239422   3.351   4.903  10.936  0.0141  0.1473  0.6821
 6003TIP3   OH239423   1.454   6.470  12.737 -0.6719 -0.2013 -0.2343
 6003TIP3    H139424   1.487   6.531  12.670  1.2903  1.9068  2.5517
 6003TIP3    H239425   1.528   6.412  12.754 -0.9913 -0.3917  0.5024
 6004TIP3   OH239426   7.094   0.926  14.646 -0.4876 -0.0026  0.0318
 6004TIP3    H139427   7.138   0.842  14.665 -0.1275  0.2806  0.4565
 6004TIP3    H239428   7.001   0.907  14.656 -0.3831 -0.2326  0.6303
 6005TIP3   OH239429   4.578   1.557  11.378 -0.6514  0.0831 -0.3240
 6005TIP3    H139430   4.605   1.526  11.291  0.7154 -0.3688  0.2501
 6005TIP3    H239431   4.516   1.491  11.409 -1.7210  0.6215 -1.2423
 6006TIP3   OH239432   2.392   5.457  12.074 -0.6081 -0.0209 -0.4317
 6006TIP3    H139433   2.350   5.410  12.146 -2.8652 -0.4011 -1.9329
 6006TIP3    H239434   2.367   5.549  12.087 -0.3947  0.0212 -0.3156
 6007TIP3   OH239435   3.538   6.295  10.696 -1.0190 -0.1606 -0.4045
 6007TIP3    H139436   3.526   6.224  10.758  0.1450  2.2531  2.7187
 6007TIP3    H239437   3.602   6.262  10.633 -2.1399 -2.5961 -0.3127
 6008TIP3   OH239438   1.367   6.621  14.108  0.8927 -0.2643  0.3779
 6008TIP3    H139439   1.356   6.594  14.017 -1.6557  1.3402  0.1649
 6008TIP3    H239440   1.296   6.578  14.155 -0.6624  2.6227  0.7617
 6009TIP3   OH239441   2.900   1.490  14.208  0.6230  0.2801 -0.0641
 6009TIP3    H139442   2.919   1.401  14.178  0.4098  0.5515 -1.0121
 6009TIP3    H239443   2.859   1.479  14.293  1.9013 -0.4727  0.4684
 6010TIP3   OH239444   2.657   5.647  11.937  0.6312  0.1833  0.3696
 6010TIP3    H139445   2.745   5.621  11.966  1.0232  0.8721 -0.1942
 6010TIP3    H239446   2.640   5.729  11.982  0.5528  0.3990 -0.0561
 6011TIP3   OH239447   0.925   5.738  13.657  0.4378 -0.4374 -0.0436
 6011TIP3    H139448   0.899   5.785  13.736 -0.3286  0.2353 -0.6891
 6011TIP3    H239449   0.866   5.770  13.590  0.2547 -1.9424 -0.6125
 6012TIP3   OH239450   2.266   4.730  10.318  0.2587  0.0618  0.1725
 6012TIP3    H139451   2.351   4.699  10.350  0.6757  0.6675 -0.3387
 6012TIP3    H239452   2.244   4.671  10.247 -0.4332 -0.9767  1.2216
 6013TIP3   OH239453   0.824   5.899  13.860 -0.2964 -0.0534 -0.3511
 6013TIP3    H139454   0.815   5.955  13.938 -2.6500  0.0587 -0.6720
 6013TIP3    H239455   0.739   5.855  13.852  0.1079 -0.4933 -2.5219
 6014TIP3   OH239456   0.618   0.271  13.049  0.2822 -0.1431  0.3804
 6014TIP3    H139457   0.618   0.265  12.954  0.2920 -1.1705  0.4370
 6014TIP3    H239458   0.667   0.351  13.069 -1.1531  0.9983 -0.5206
 6015TIP3   OH239459   3.014   4.604  10.826 -0.1270  0.2019  0.1341
 6015TIP3    H139460   2.933   4.654  10.836  0.3814  0.8294  1.2317
 6015TIP3    H239461   3.055   4.640  10.748 -0.0806  1.0720  0.5484
 6016TIP3   OH239462   3.156   4.945  11.215 -0.4328 -0.1706  0.5307
 6016TIP3    H139463   3.232   4.899  11.251  0.2409 -0.0603 -0.7177
 6016TIP3    H239464   3.152   4.916  11.123 -0.0282  2.1978 -0.2626
 6017TIP3   OH239465   3.941   5.605  10.960 -0.3189  0.4989 -0.2577
 6017TIP3    H139466   3.894   5.636  10.883  0.6034  1.7265 -0.3210
 6017TIP3    H239467   4.026   5.648  10.957  1.1784 -2.3052 -0.5731
 6018TIP3   OH239468   0.259   6.067  12.428 -0.8571  0.2054 -0.5783
 6018TIP3    H139469   0.262   5.983  12.382 -0.6536 -0.8928  1.3884
 6018TIP3    H239470   0.294   6.048  12.515  1.8242  2.9291 -0.9725
 6019TIP3   OH239471   6.782   7.225  13.954  0.2486 -0.4202  0.9517
 6019TIP3    H139472   6.773   7.290  14.024  0.2288 -0.6306  1.1451
 6019TIP3    H239473   6.760   7.272  13.874  1.7951  0.2532  0.9013
 6020TIP3   OH239474   3.675   6.038  13.395  0.4751 -0.2345 -0.3495
 6020TIP3    H139475   3.725   6.026  13.315  1.2336 -1.7121  0.3284
 6020TIP3    H239476   3.737   6.074  13.458  0.4838 -1.2343  0.2307
 6021TIP3   OH239477   1.912   0.564  13.211 -0.3122  0.3515  0.0132
 6021TIP3    H139478   1.913   0.656  13.237 -0.5152 -0.0558  1.5422
 6021TIP3    H239479   1.848   0.524  13.270 -0.5556 -0.6855 -0.9380
 6022TIP3   OH239480   4.945   4.462  13.760 -0.3081  0.1066  0.0307
 6022TIP3    H139481   4.946   4.463  13.856 -0.4115 -1.3024  0.0549
 6022TIP3    H239482   4.854   4.444  13.738 -0.1467 -0.2773 -0.3207
 6023TIP3   OH239483   5.200   1.715  13.398  0.2621  0.3757 -0.7813
 6023TIP3    H139484   5.260   1.732  13.470 -0.9921  1.9962 -0.0703
 6023TIP3    H239485   5.115   1.703  13.440 -0.4994  1.4374 -1.9768
 6024TIP3   OH239486   3.910   5.247  12.540  0.4585 -0.3614 -0.1140
 6024TIP3    H139487   3.908   5.228  12.446  1.0348 -1.2221  0.0444
 6024TIP3    H239488   3.992   5.293  12.554  0.6816 -0.8119  0.0732
 6025TIP3   OH239489   6.055   6.695  15.527 -0.1359 -0.1025 -0.0194
 6025TIP3    H139490   6.095   6.686  15.440  2.4825  0.4679  1.0676
 6025TIP3    H239491   6.055   6.790  15.544 -1.0560 -0.1723  0.4313
 6026TIP3   OH239492   4.593   5.363  11.362 -0.4513 -0.0700  0.2136
 6026TIP3    H139493   4.625   5.453  11.357  0.2268 -0.3108  0.1792
 6026TIP3    H239494   4.551   5.358  11.448 -0.9157  0.4141  0.0198
 6027TIP3   OH239495   5.041   6.309  13.956 -0.2762  0.3029 -0.3322
 6027TIP3    H139496   5.046   6.238  14.020 -2.6540  1.2457  0.9240
 6027TIP3    H239497   5.000   6.381  14.003  0.9530  2.1200 -1.9737
 6028TIP3   OH239498   4.165   7.066  10.551  0.9202 -0.6645  0.0883
 6028TIP3    H139499   4.207   7.147  10.580  0.7719 -0.3428 -0.5928
 6028TIP3    H239500   4.221   7.034  10.480 -0.9955  0.7743 -2.1363
 6029TIP3   OH239501   3.271   5.108  13.302  0.6688 -0.4466 -0.2283
 6029TIP3    H139502   3.244   5.138  13.216 -0.1413 -0.9186 -0.1364
 6029TIP3    H239503   3.286   5.188  13.352 -0.7396 -0.1812 -0.2222
 6030TIP3   OH239504   4.647   5.143  12.238  0.6791  0.3746 -0.6999
 6030TIP3    H139505   4.736   5.109  12.231  1.2335  1.6044  0.3155
 6030TIP3    H239506   4.656   5.238  12.227 -0.5076  0.5053 -0.6070
 6031TIP3   OH239507   2.358   4.799  14.524 -0.4041 -0.0852  0.1323
 6031TIP3    H139508   2.398   4.878  14.487 -0.3641 -0.2885 -0.2560
 6031TIP3    H239509   2.337   4.744  14.448  0.5545 -0.9216  0.4635
 6032TIP3   OH239510   6.362   4.936  12.877 -0.2759  0.3349 -0.7291
 6032TIP3    H139511   6.454   4.931  12.904 -0.1587 -1.2574 -1.3585
 6032TIP3    H239512   6.349   5.029  12.855  1.1770  0.5805 -0.6406
 6033TIP3   OH239513   5.476   6.004  12.402  0.2478 -0.7205  0.3359
 6033TIP3    H139514   5.414   5.942  12.364 -0.4113  1.6620 -2.6978
 6033TIP3    H239515   5.554   5.998  12.346  0.1834  1.1193  0.0250
 6034TIP3   OH239516   2.939   6.401  13.392 -0.1327 -0.3050  0.0300
 6034TIP3    H139517   2.972   6.421  13.305 -0.8757 -0.2199 -0.2412
 6034TIP3    H239518   2.970   6.313  13.411  0.6692 -0.0362 -0.0003
 6035TIP3   OH239519   4.600   5.980  11.939 -0.3044  0.3320  0.2456
 6035TIP3    H139520   4.548   5.910  11.899  0.2815  0.7318 -1.2376
 6035TIP3    H239521   4.599   6.050  11.875 -0.2464  1.4077  1.4083
 6036TIP3   OH239522   4.823   2.902  11.996  0.2601 -0.0125 -0.4704
 6036TIP3    H139523   4.817   2.937  11.907  2.1924 -0.8643 -0.9448
 6036TIP3    H239524   4.855   2.813  11.985 -1.1922 -0.7469  0.9821
 6037TIP3   OH239525   3.531   7.231  12.785 -0.1087 -1.0091  0.2133
 6037TIP3    H139526   3.547   7.281  12.705 -2.2960  0.5016  0.6814
 6037TIP3    H239527   3.617   7.227  12.828  0.5034  0.6376 -0.7989
 6038TIP3   OH239528   5.799   0.857  11.764  0.3373 -0.2988 -0.3894
 6038TIP3    H139529   5.882   0.855  11.813 -0.7949 -0.4922  1.5478
 6038TIP3    H239530   5.809   0.788  11.699  1.0761 -1.4502  0.8943
 6039TIP3   OH239531   3.782   5.502  12.205 -0.8443  0.2720 -0.3985
 6039TIP3    H139532   3.717   5.570  12.221  0.0483  1.1178 -0.3706
 6039TIP3    H239533   3.777   5.485  12.111  0.1163  1.5878 -0.7002
 6040TIP3   OH239534   6.829   4.405  12.115  0.3124  0.3801 -0.2955
 6040TIP3    H139535   6.751   4.385  12.062 -0.4244 -1.2662  1.3422
 6040TIP3    H239536   6.810   4.490  12.154 -1.1905 -0.5056  0.9720
 6041TIP3   OH239537   3.689   4.718  11.351 -0.1030 -0.1282  0.1000
 6041TIP3    H139538   3.705   4.767  11.271 -0.3200  0.1593  0.2326
 6041TIP3    H239539   3.775   4.681  11.373  0.2591  0.8915  0.4576
 6042TIP3   OH239540   2.944   0.451  13.226  0.2123 -0.0412  0.6926
 6042TIP3    H139541   2.961   0.404  13.307  0.9395 -1.0367 -0.0170
 6042TIP3    H239542   2.862   0.415  13.194  2.2223 -3.0835 -1.3759
 6043TIP3   OH239543   5.578   0.118  11.360  0.1809  0.0406  0.1746
 6043TIP3    H139544   5.648   0.089  11.300  0.5566  1.5571 -0.1541
 6043TIP3    H239545   5.504   0.061  11.341  1.3604 -1.6429  0.5767
 6044TIP3   OH239546   5.102   6.641  14.229  0.4506  0.1983  0.0257
 6044TIP3    H139547   5.105   6.736  14.225 -2.1617  0.3332  0.4971
 6044TIP3    H239548   5.070   6.621  14.318  2.5845 -1.1877  0.5425
 6045TIP3   OH239549   5.493   6.304  14.546 -0.7736 -0.1896 -0.0893
 6045TIP3    H139550   5.572   6.264  14.509  0.3514  1.9305 -0.0280
 6045TIP3    H239551   5.484   6.263  14.633  0.5684 -0.0383  0.1272
 6046TIP3   OH239552   2.399   6.298  14.251 -0.5339 -0.0622 -0.4631
 6046TIP3    H139553   2.454   6.358  14.301  0.4753 -0.0192 -1.6100
 6046TIP3    H239554   2.309   6.326  14.271 -0.1090  0.9151  0.1244
 6047TIP3   OH239555   6.841   5.469  12.402  0.1430  0.4366 -0.3841
 6047TIP3    H139556   6.888   5.490  12.483 -0.2603 -1.8262  0.4610
 6047TIP3    H239557   6.883   5.524  12.336  0.9305  1.8176  1.2231
 6048TIP3   OH239558   5.139   0.381  12.101  0.2736  0.0379  0.3387
 6048TIP3    H139559   5.196   0.319  12.147 -0.7523  0.7823  2.6900
 6048TIP3    H239560   5.196   0.454  12.078  0.9462 -0.6530 -0.2307
 6049TIP3   OH239561   6.882   1.145  11.764  0.0855 -0.1675 -0.3272
 6049TIP3    H139562   6.874   1.215  11.828 -2.1302 -0.5180 -0.1760
 6049TIP3    H239563   6.917   1.071  11.814  0.8551  0.3478 -0.1103
 6050TIP3   OH239564   5.892   6.810  11.848  0.6017 -0.5618 -0.3891
 6050TIP3    H139565   5.908   6.725  11.889  0.4987 -0.9836 -1.2224
 6050TIP3    H239566   5.871   6.868  11.922  0.7849 -1.2244  0.1925
 6051TIP3   OH239567   5.526   6.214  11.809  0.0934  0.0934  0.0026
 6051TIP3    H139568   5.434   6.233  11.790  0.5205  0.5502 -1.6461
 6051TIP3    H239569   5.560   6.174  11.729  1.2436 -0.4163  0.7270
 6052TIP3   OH239570   7.054   6.838  12.930  0.4513  0.1289 -0.4668
 6052TIP3    H139571   7.121   6.897  12.963 -0.9496  2.3169 -1.4107
 6052TIP3    H239572   6.971   6.879  12.955 -0.6049 -3.4014  2.1903
 6053TIP3   OH239573   4.614   5.360  10.847  0.0381  0.4053  0.3621
 6053TIP3    H139574   4.589   5.441  10.891 -0.3458 -0.0995  1.0738
 6053TIP3    H239575   4.631   5.298  10.918  0.2300 -0.1718 -0.1807
 6054TIP3   OH239576   4.157   6.393  14.080 -0.2638 -0.0216  0.1775
 6054TIP3    H139577   4.173   6.412  13.988 -0.8543  0.2191  0.1224
 6054TIP3    H239578   4.117   6.306  14.080  2.6761 -1.4512  0.4454
 6055TIP3   OH239579   3.973   6.662  15.059 -0.0086 -0.2334 -0.1851
 6055TIP3    H139580   3.992   6.680  15.151 -2.9354  1.3663  0.1898
 6055TIP3    H239581   3.999   6.743  15.013 -1.3997  0.1687 -0.2976
 6056TIP3   OH239582   4.704   6.811  11.885 -0.4465 -0.2229  0.1139
 6056TIP3    H139583   4.688   6.894  11.929 -0.1328 -0.5252  0.8200
 6056TIP3    H239584   4.629   6.799  11.827 -1.4440 -0.3237  1.3785
 6057TIP3   OH239585   4.583   6.299  10.483 -0.0914 -0.2940 -0.5450
 6057TIP3    H139586   4.641   6.312  10.408  3.9036  1.8219  2.7073
 6057TIP3    H239587   4.521   6.371  10.478  0.5333  0.1891 -1.4784
 6058TIP3   OH239588   4.552   5.984  15.497  0.6408 -0.5138 -0.0498
 6058TIP3    H139589   4.470   6.031  15.510 -0.2194 -2.0754  0.3188
 6058TIP3    H239590   4.598   5.992  15.581  1.4753  1.4746 -0.6713
 6059TIP3   OH239591   2.856   6.765  14.074  0.0612  0.4429 -0.4632
 6059TIP3    H139592   2.770   6.740  14.040 -0.2490  0.6032  0.2031
 6059TIP3    H239593   2.915   6.752  14.000 -0.5099  0.1804 -0.8796
 6060TIP3   OH239594   5.303   7.116  11.736 -0.0202 -0.4192  0.2836
 6060TIP3    H139595   5.295   7.062  11.814 -1.3489  0.2398  0.6227
 6060TIP3    H239596   5.356   7.191  11.765 -0.8660  0.0405  0.7037
 6061TIP3   OH239597   3.446   0.588  14.682 -0.9185 -0.3718  0.0012
 6061TIP3    H139598   3.463   0.599  14.775 -0.2531  0.7745 -0.2521
 6061TIP3    H239599   3.358   0.625  14.670 -0.5522  0.5133 -0.0179
 6062TIP3   OH239600   4.261   6.162  12.068 -0.4469  0.1336 -0.1238
 6062TIP3    H139601   4.253   6.088  12.007  0.4947 -0.9115  1.0123
 6062TIP3    H239602   4.268   6.122  12.154 -2.6411  1.6291  0.8127
 6063TIP3   OH239603   2.813   7.019  13.733  0.0175 -0.4760 -0.1005
 6063TIP3    H139604   2.865   6.939  13.733 -2.9590 -2.5327 -2.0067
 6063TIP3    H239605   2.731   6.995  13.776 -0.6408  1.7650  0.0017
 6064TIP3   OH239606   6.355   5.778  12.916 -0.3868 -0.1967  0.2801
 6064TIP3    H139607   6.355   5.855  12.972 -0.0419 -0.2706  0.3856
 6064TIP3    H239608   6.393   5.709  12.970 -1.0258 -0.5313  0.3073
 6065TIP3   OH239609   5.000   0.989  11.966  0.2969 -0.2236 -0.2684
 6065TIP3    H139610   4.943   1.034  12.029  2.6470 -1.2489  2.6831
 6065TIP3    H239611   5.045   1.060  11.919 -0.1730  0.5300  0.4108
 6066TIP3   OH239612   4.352   6.058  11.619 -0.0891  0.5496  0.1289
 6066TIP3    H139613   4.296   6.115  11.566 -0.6099 -0.5291 -0.5096
 6066TIP3    H239614   4.352   6.099  11.706 -2.0906  0.4598  0.2108
 6067TIP3   OH239615   0.310   1.405  14.587 -0.0040 -0.2146  0.1133
 6067TIP3    H139616   0.224   1.448  14.582  0.3952  0.5801  0.0387
 6067TIP3    H239617   0.294   1.317  14.554 -0.8187 -0.1046  0.1972
 6068TIP3   OH239618   1.777   6.459  12.441 -0.4535 -0.5671  0.8817
 6068TIP3    H139619   1.745   6.501  12.521 -1.4004  0.1739  0.1327
 6068TIP3    H239620   1.872   6.467  12.447 -0.4964 -0.7221  2.0360
 6069TIP3   OH239621   3.952   0.516  14.364  0.2357  0.5823  0.6379
 6069TIP3    H139622   3.952   0.422  14.384  0.6957  0.7978  1.6914
 6069TIP3    H239623   3.937   0.521  14.270  1.0658 -0.5717  0.4388
 6070TIP3   OH239624   3.574   6.787   0.138  0.3348  0.2728  0.3419
 6070TIP3    H139625   3.611   6.699   0.133  0.9002  0.5598 -0.6622
 6070TIP3    H239626   3.500   6.785   0.077 -1.3194 -0.2817  2.3010
 6071TIP3   OH239627   6.146   5.482  14.663 -0.5491  0.0156 -0.5558
 6071TIP3    H139628   6.185   5.534  14.593 -2.0802  0.5055 -1.0563
 6071TIP3    H239629   6.146   5.541  14.739 -0.2522 -0.0109 -0.5347
 6072TIP3   OH239630   3.215   0.386  14.143 -0.2155  0.2144  0.2054
 6072TIP3    H139631   3.243   0.324  14.211 -0.6982 -0.4481 -0.1906
 6072TIP3    H239632   3.296   0.426  14.113  0.0811 -0.0523  0.6384
 6073TIP3   OH239633   6.552   1.648  12.614 -0.1379  0.1706 -0.3667
 6073TIP3    H139634   6.506   1.679  12.693 -0.4671  1.7644 -1.1663
 6073TIP3    H239635   6.491   1.587  12.573  0.0089 -0.6256  0.5658
 6074TIP3   OH239636   4.923   0.790  13.019  0.4566 -0.0687  0.8427
 6074TIP3    H139637   4.855   0.798  13.085 -0.0487  1.1672  0.1719
 6074TIP3    H239638   4.921   0.698  12.993  0.6021 -0.5384  2.4805
 6075TIP3   OH239639   6.574   0.966  13.359 -0.2655 -0.6770 -0.3277
 6075TIP3    H139640   6.635   0.892  13.358  0.6434  0.0606 -1.5777
 6075TIP3    H239641   6.563   0.989  13.267  0.0579  1.2084  0.0895
 6076TIP3   OH239642   5.335   6.438  13.924 -0.0580 -0.6573 -0.7267
 6076TIP3    H139643   5.351   6.364  13.865 -3.0523  0.4754 -3.0661
 6076TIP3    H239644   5.271   6.404  13.987  0.3832 -0.7637 -0.3327
 6077TIP3   OH239645   6.561   6.416  11.699 -0.0185 -0.0258  0.2666
 6077TIP3    H139646   6.573   6.491  11.640 -1.0988  0.3994  0.5749
 6077TIP3    H239647   6.488   6.368  11.661 -0.0767 -0.2896  0.7169
 6078TIP3   OH239648   5.502   1.001  13.888  0.2158 -0.6123 -0.0623
 6078TIP3    H139649   5.594   1.014  13.865  1.2464 -2.0887  2.9997
 6078TIP3    H239650   5.477   1.081  13.933  0.1934 -0.5074 -0.2585
 6079TIP3   OH239651   4.685   5.619  11.279 -0.3447 -0.1404  0.1704
 6079TIP3    H139652   4.765   5.641  11.327  0.6865  0.3863 -1.7303
 6079TIP3    H239653   4.630   5.697  11.286 -0.9452 -0.7225  1.9843
 6080TIP3   OH239654   4.542   4.683  11.351  0.3309  0.2241 -0.3305
 6080TIP3    H139655   4.612   4.638  11.305  1.1249  1.2175 -0.1149
 6080TIP3    H239656   4.584   4.721  11.428 -0.9498 -1.2590  1.1326
 6081TIP3   OH239657   5.890   1.114  11.627  1.0507  0.4391 -0.1011
 6081TIP3    H139658   5.904   1.137  11.719  0.3418  0.3687  0.0281
 6081TIP3    H239659   5.841   1.032  11.630  0.7915  0.5760 -0.5431
 6082TIP3   OH239660   3.944   6.940  15.982  0.1336  0.1529  0.2125
 6082TIP3    H139661   4.007   6.925  15.912  1.0091 -0.4559  1.1288
 6082TIP3    H239662   3.965   6.874  16.048 -0.3424  1.0778  1.2936
 6083TIP3   OH239663   4.917   6.536  14.061 -0.7263  0.1764 -0.0563
 6083TIP3    H139664   4.860   6.613  14.060 -1.0203 -0.0391  0.1631
 6083TIP3    H239665   4.985   6.557  14.125 -1.0335  0.0875  0.2967
 6084TIP3   OH239666   6.214   5.901   9.939  0.3608  0.3204 -0.2973
 6084TIP3    H139667   6.232   5.857   9.856  0.6911 -1.6609  0.7934
 6084TIP3    H239668   6.131   5.947   9.925  0.1706 -0.3866 -1.5709
 6085TIP3   OH239669   2.612   0.157  11.501 -0.2497  0.5937 -0.1251
 6085TIP3    H139670   2.682   0.155  11.436 -2.9130 -0.7959 -3.0975
 6085TIP3    H239671   2.602   0.249  11.523  1.4599  0.9634 -0.8411
 6086TIP3   OH239672   3.541   4.676  11.581  0.1149 -0.0873  0.4760
 6086TIP3    H139673   3.450   4.668  11.552  0.0281 -1.6776  1.1412
 6086TIP3    H239674   3.588   4.712  11.505 -0.9812  0.3422  0.0004
 6087TIP3   OH239675   3.991   6.089  11.627 -0.4488  0.7546 -0.7381
 6087TIP3    H139676   3.978   6.039  11.708 -0.2977  0.3658 -0.9525
 6087TIP3    H239677   4.015   6.176  11.657 -0.6411  0.6798 -0.3586
 6088TIP3   OH239678   4.770   6.356  10.293 -0.0718 -0.0106  0.1647
 6088TIP3    H139679   4.835   6.353  10.223 -1.0509  0.0011 -0.7737
 6088TIP3    H239680   4.811   6.409  10.362  0.7607  0.2979 -0.5565
 6089TIP3   OH239681   3.387   6.682  13.018 -0.0046 -0.0921 -0.5537
 6089TIP3    H139682   3.422   6.769  13.037 -2.6361  0.6938  0.9560
 6089TIP3    H239683   3.294   6.688  13.040  0.1606 -3.8777  1.6865
 6090TIP3   OH239684   6.699   0.520  12.359 -0.0375  0.1110 -0.4282
 6090TIP3    H139685   6.680   0.441  12.409  0.1287 -1.5953 -2.9798
 6090TIP3    H239686   6.793   0.518  12.346 -0.3478 -0.6553 -2.6946
 6091TIP3   OH239687   5.240   0.176  14.057 -0.1639  0.2326  0.6211
 6091TIP3    H139688   5.307   0.186  14.126  1.4446 -2.5569 -0.4516
 6091TIP3    H239689   5.290   0.182  13.975 -1.4649 -0.4246 -0.2222
 6092TIP3   OH239690   4.439   4.401  12.679 -0.0035  0.0373  0.7534
 6092TIP3    H139691   4.347   4.389  12.655  0.1405  0.6019 -0.1173
 6092TIP3    H239692   4.450   4.353  12.761 -0.5749 -1.8173 -0.2269
 6093TIP3   OH239693   5.175   2.093  12.277  0.0756  0.5506 -0.0521
 6093TIP3    H139694   5.246   2.052  12.326 -0.1179  1.2851  0.8610
 6093TIP3    H239695   5.140   2.160  12.337 -0.8620  0.7290 -0.7877
 6094TIP3   OH239696   1.858   6.072  12.816  0.1782 -0.3895  0.4130
 6094TIP3    H139697   1.838   5.982  12.844  2.2817 -0.9884  0.0546
 6094TIP3    H239698   1.802   6.085  12.739 -0.0039 -1.4597  0.3499
 6095TIP3   OH239699   2.309   3.770  13.013  0.2156 -0.2493 -0.0903
 6095TIP3    H139700   2.277   3.693  13.060 -0.4679 -0.8265 -1.4786
 6095TIP3    H239701   2.231   3.823  12.996  0.6457  0.6451  0.6299
 6096TIP3   OH239702   3.799   5.918  10.628  0.1436  0.0586 -0.6728
 6096TIP3    H139703   3.878   5.953  10.587 -0.4111  1.5102 -0.5686
 6096TIP3    H239704   3.731   5.930  10.562  0.0706 -1.5016 -0.8900
 6097TIP3   OH239705   3.936   0.967  12.901 -0.4119  0.3351  0.0870
 6097TIP3    H139706   4.028   0.940  12.902 -0.0173  1.5952 -1.2793
 6097TIP3    H239707   3.925   1.013  12.818 -2.2374  0.3387  0.3186
 6098TIP3   OH239708   4.849   6.773  12.872  0.1134  0.1543  0.3259
 6098TIP3    H139709   4.776   6.729  12.830 -0.5270  0.0911  1.4686
 6098TIP3    H239710   4.861   6.854  12.822  0.8906 -0.9979 -1.3939
 6099TIP3   OH239711   3.085   0.103  12.221 -0.1070  0.0420  0.4319
 6099TIP3    H139712   3.033   0.157  12.280  0.8479 -1.5163  2.7706
 6099TIP3    H239713   3.176   0.119  12.246  0.4428  0.6088 -1.7519
 6100TIP3   OH239714   4.756   5.139  14.558  0.9207 -0.1048 -0.2549
 6100TIP3    H139715   4.840   5.093  14.563  1.1064  0.3151  0.5478
 6100TIP3    H239716   4.706   5.106  14.633  1.3942  1.6484  0.8560
 6101TIP3   OH239717   0.256   2.552  11.629 -0.4399 -0.6733  0.1055
 6101TIP3    H139718   0.337   2.585  11.667 -0.4976  0.7838 -1.0319
 6101TIP3    H239719   0.284   2.491  11.561 -0.2920  0.4097 -0.8040
 6102TIP3   OH239720   5.782   0.518  13.785  0.4128 -0.8539  0.0230
 6102TIP3    H139721   5.774   0.594  13.727  1.5970  0.7693  1.9028
 6102TIP3    H239722   5.753   0.549  13.870  2.3770 -2.0360  1.1841
 6103TIP3   OH239723   3.611   1.016  15.302 -0.0405  0.4067 -0.6588
 6103TIP3    H139724   3.682   1.055  15.251  0.4824 -0.4239 -0.5718
 6103TIP3    H239725   3.654   0.980  15.380 -0.7138  0.8943 -0.0519
 6104TIP3   OH239726   3.666   5.029  13.840 -0.1630  0.0432 -0.0922
 6104TIP3    H139727   3.618   5.029  13.923 -0.1844 -3.1985 -0.0358
 6104TIP3    H239728   3.757   5.046  13.865 -0.5875  2.0569  0.2269
 6105TIP3   OH239729   4.839   5.146  13.264 -0.2600 -0.0340  0.0380
 6105TIP3    H139730   4.836   5.052  13.245 -0.0551  0.2740 -1.5260
 6105TIP3    H239731   4.775   5.185  13.204 -0.4739  0.8118  0.8032
 6106TIP3   OH239732   4.106   6.563  14.485 -0.1309  0.3239  0.2625
 6106TIP3    H139733   4.123   6.577  14.391  0.7841 -1.2721  0.1650
 6106TIP3    H239734   4.185   6.595  14.528 -0.9320  1.9188  0.5798
 6107TIP3   OH239735   5.779   5.445  13.010 -0.3939 -0.4672  0.2290
 6107TIP3    H139736   5.742   5.431  12.923  0.9400 -0.2874 -0.3754
 6107TIP3    H239737   5.833   5.523  13.001  2.9569 -2.6881  0.1945
 6108TIP3   OH239738   4.049   6.749  13.006  0.4625 -0.6293  0.3977
 6108TIP3    H139739   4.142   6.769  13.006  0.5477 -1.0228  0.4563
 6108TIP3    H239740   4.015   6.789  13.085  0.3174  0.7475 -0.3514
 6109TIP3   OH239741   5.462   6.886  12.287  0.2465 -0.0667 -0.0004
 6109TIP3    H139742   5.527   6.857  12.222  0.7916 -1.6963  1.2339
 6109TIP3    H239743   5.382   6.840  12.262  0.2350 -0.0392 -0.0151
 6110TIP3   OH239744   3.476   6.240  13.181  0.3412  0.2394 -0.2633
 6110TIP3    H139745   3.498   6.152  13.211  1.0841  0.9596  1.4194
 6110TIP3    H239746   3.535   6.297  13.231 -0.7441  1.7513 -0.6801
 6111TIP3   OH239747   5.654   5.899  11.392 -0.2230  0.0721 -0.2187
 6111TIP3    H139748   5.706   5.870  11.317 -0.2378 -0.7896  0.0946
 6111TIP3    H239749   5.563   5.892  11.363 -0.2954 -1.6877  0.3528
 6112TIP3   OH239750   6.425   0.006  12.850 -0.2502 -0.5448  0.1357
 6112TIP3    H139751   6.369   0.067  12.801 -0.2372 -2.6859 -2.6732
 6112TIP3    H239752   6.511   0.015  12.811  0.2147 -0.8967  1.0654
 6113TIP3   OH239753   3.419   5.716  11.809 -0.2839  0.0370 -0.1420
 6113TIP3    H139754   3.390   5.657  11.878 -0.3207  0.4999  0.2376
 6113TIP3    H239755   3.468   5.785  11.854 -0.0743  0.1962 -0.6018
 6114TIP3   OH239756   2.523   0.215  13.919 -0.8103 -0.4756 -0.9349
 6114TIP3    H139757   2.547   0.129  13.886  3.1863 -0.0712  0.6595
 6114TIP3    H239758   2.551   0.276  13.850  1.6062 -0.1182  0.2871
 6115TIP3   OH239759   3.203   5.225  13.056  0.0945 -1.0701  0.2922
 6115TIP3    H139760   3.188   5.316  13.031 -0.1704 -1.0366  0.5745
 6115TIP3    H239761   3.199   5.176  12.974  0.0256 -0.8578  0.1700
 6116TIP3   OH239762   4.864   0.305  13.843 -0.0532  0.1170  0.6696
 6116TIP3    H139763   4.868   0.345  13.756  1.8156 -0.0002  0.6851
 6116TIP3    H239764   4.863   0.380  13.904 -0.9251  0.1907  0.5721
 6117TIP3   OH239765   3.972   3.980  12.263  0.0469  0.1254 -0.5518
 6117TIP3    H139766   4.052   4.012  12.222  1.3803  0.1666  1.9732
 6117TIP3    H239767   4.000   3.905  12.315 -1.3576  0.7778  1.1868
 6118TIP3   OH239768   4.499   1.905  11.970  0.5449 -0.0546 -0.2808
 6118TIP3    H139769   4.458   1.914  12.056  1.5771  1.0466  0.1128
 6118TIP3    H239770   4.430   1.928  11.907  0.8381  2.9351  0.4113
 6119TIP3   OH239771   3.977   7.290  14.601  0.0731  0.4383 -0.7968
 6119TIP3    H139772   3.949   7.357  14.539  0.6474  2.7019  1.3245
 6119TIP3    H239773   3.897   7.269  14.650  0.4152  1.4264  0.2110
 6120TIP3   OH239774   5.844   7.302  12.503  0.2160 -0.2519 -0.2877
 6120TIP3    H139775   5.813   7.385  12.469  1.2294  0.2633  0.0345
 6120TIP3    H239776   5.828   7.239  12.432 -1.6044 -0.0344 -0.1127
 6121TIP3   OH239777   3.104   1.558  11.144  0.3042 -0.0623 -0.3098
 6121TIP3    H139778   3.061   1.620  11.086  0.2951 -1.4367 -1.8054
 6121TIP3    H239779   3.033   1.517  11.193  0.0519 -0.9464 -1.3965
 6122TIP3   OH239780   3.316   6.236  11.056 -0.1070  0.0354  0.2031
 6122TIP3    H139781   3.373   6.172  11.012 -0.0260  0.2361  0.0154
 6122TIP3    H239782   3.376   6.299  11.095 -0.1623 -0.4000  1.0087
 6123TIP3   OH239783   5.817   5.452  12.500  0.0864  0.4117 -0.2294
 6123TIP3    H139784   5.881   5.521  12.518 -1.0529  1.1457  1.0390
 6123TIP3    H239785   5.857   5.373  12.537  0.8321  0.6145 -0.5817
 6124TIP3   OH239786   5.523   5.137  14.440 -0.8557 -0.2521 -0.4065
 6124TIP3    H139787   5.544   5.117  14.349 -0.3032 -0.3956 -0.2478
 6124TIP3    H239788   5.568   5.220  14.457 -1.0341 -0.1780 -0.2892
 6125TIP3   OH239789   3.681   6.320  12.514 -0.6209  0.2857 -0.0233
 6125TIP3    H139790   3.595   6.330  12.473 -0.0536  0.8819 -1.0794
 6125TIP3    H239791   3.697   6.404  12.557 -1.0117 -0.1789  1.0427
 6126TIP3   OH239792   5.471   6.071  13.408  0.0061  0.7598 -0.3868
 6126TIP3    H139793   5.402   6.044  13.469  0.2000  2.6952  0.7524
 6126TIP3    H239794   5.455   6.020  13.329 -1.7732  0.0333  0.4155
 6127TIP3   OH239795   4.886   7.077  10.873  0.1204  0.4843 -0.1509
 6127TIP3    H139796   4.825   7.012  10.839 -0.8312  2.1957 -1.7520
 6127TIP3    H239797   4.850   7.101  10.958 -1.2884  1.2635 -0.9582
 6128TIP3   OH239798   4.528   3.847  11.155  0.0780  0.2944 -0.3281
 6128TIP3    H139799   4.606   3.800  11.127 -0.6685 -1.8952  1.1596
 6128TIP3    H239800   4.525   3.836  11.250 -1.5697  1.1070 -0.2553
 6129TIP3   OH239801   6.562   4.977  12.084 -0.5360  0.1981 -0.1705
 6129TIP3    H139802   6.556   5.051  12.023  0.1737  0.1247 -0.3283
 6129TIP3    H239803   6.506   5.003  12.158 -1.4936  0.2364 -0.8942
 6130TIP3   OH239804   3.678   7.002  11.279 -0.2637 -0.5160 -0.3287
 6130TIP3    H139805   3.607   7.065  11.265  0.9581  0.9673 -0.0190
 6130TIP3    H239806   3.683   6.953  11.197 -0.9363  0.0978 -0.7433
 6131TIP3   OH239807   6.523   6.304  13.152 -0.2056  0.4438 -0.4590
 6131TIP3    H139808   6.467   6.335  13.224 -1.1622 -0.7290 -0.6809
 6131TIP3    H239809   6.488   6.346  13.074  2.1685  3.4480 -0.0204
 6132TIP3   OH239810   4.100   0.359  13.923  0.1383  0.5037 -0.2774
 6132TIP3    H139811   4.130   0.391  13.838  3.2024 -2.3243 -0.3916
 6132TIP3    H239812   4.035   0.292  13.902 -0.0839  0.7481 -0.3603
 6133TIP3   OH239813   5.286   1.324  13.293  0.5083 -0.0247  0.3825
 6133TIP3    H139814   5.351   1.336  13.224  0.2405 -1.8739 -0.2263
 6133TIP3    H239815   5.202   1.348  13.252  0.6280  1.0960  0.7734
 6134TIP3   OH239816   4.025   6.450  13.164  0.1528  0.7488 -0.3516
 6134TIP3    H139817   4.020   6.387  13.093  0.5147  0.6828 -0.3172
 6134TIP3    H239818   3.943   6.499  13.158  0.6332  1.4323 -1.4563
 6135TIP3   OH239819   3.321   5.151  12.770 -0.3531  0.1966  0.1803
 6135TIP3    H139820   3.316   5.060  12.798  0.2666 -0.1892 -0.9618
 6135TIP3    H239821   3.239   5.166  12.722 -0.4750  0.2657  0.4057
 6136TIP3   OH239822   5.329   0.219  12.720 -0.3014 -0.4089 -0.0789
 6136TIP3    H139823   5.336   0.125  12.736 -0.5610 -0.3570  0.3486
 6136TIP3    H239824   5.414   0.254  12.746  0.0774 -0.6314 -1.0066
 6137TIP3   OH239825   3.495   0.709  13.012 -0.8412  0.8130 -0.5409
 6137TIP3    H139826   3.568   0.648  13.023 -0.8768  0.9451  0.4716
 6137TIP3    H239827   3.434   0.663  12.955  0.0283  0.6975 -1.3828
 6138TIP3   OH239828   1.046   5.983  11.175 -0.0097 -0.3772 -0.2725
 6138TIP3    H139829   1.124   6.023  11.214  0.5969  0.3766 -2.1535
 6138TIP3    H239830   1.075   5.956  11.087 -1.6282 -0.9070 -0.6566
 6139TIP3   OH239831   3.997   5.504  15.015 -0.1391 -0.1429 -0.6403
 6139TIP3    H139832   3.979   5.539  14.927  0.6732 -0.6839 -1.0268
 6139TIP3    H239833   4.029   5.580  15.064 -1.5581  0.3799 -0.5203
 6140TIP3   OH239834   4.604   7.146  10.015  0.8978  0.1421 -0.5420
 6140TIP3    H139835   4.547   7.221  10.031  0.9118  0.5114 -2.1464
 6140TIP3    H239836   4.693   7.180  10.027  0.8192 -0.5473  2.4291
 6141TIP3   OH239837   2.293   0.432  13.470 -0.1100  0.7417  0.1159
 6141TIP3    H139838   2.220   0.370  13.472  1.7492 -1.5568 -0.5341
 6141TIP3    H239839   2.272   0.491  13.397 -1.3558  0.1756  0.0013
 6142TIP3   OH239840   3.048   3.005  11.546 -0.8538  0.7413  0.4076
 6142TIP3    H139841   2.955   3.017  11.567 -1.1835 -1.4701  0.3485
 6142TIP3    H239842   3.088   2.981  11.629 -0.2249  2.2046  0.5342
 6143TIP3   OH239843   4.861   5.862  15.532 -0.1149  0.6786  0.3757
 6143TIP3    H139844   4.916   5.808  15.477 -0.5976  0.3940  0.1682
 6143TIP3    H239845   4.863   5.820  15.618 -0.5648  0.2737  0.1908
 6144TIP3   OH239846   5.542   0.614  13.471  0.0578  0.4820 -0.1928
 6144TIP3    H139847   5.613   0.668  13.505  1.7411 -0.6274 -1.8068
 6144TIP3    H239848   5.581   0.526  13.464 -1.3479 -0.0485 -1.5383
 6145TIP3   OH239849   5.514   7.000  14.702  0.1638  0.5423 -0.1788
 6145TIP3    H139850   5.599   6.970  14.735 -0.0367 -0.0493 -0.1830
 6145TIP3    H239851   5.468   6.919  14.680 -1.0793  0.7525  1.5092
 6146TIP3   OH239852   6.163   0.978  12.453  0.4915 -0.4323  0.3918
 6146TIP3    H139853   6.085   0.937  12.416  0.4652  2.0715 -2.5219
 6146TIP3    H239854   6.229   0.968  12.384  1.3346  1.7146  0.8697
 6147TIP3   OH239855   5.699   0.230  12.556 -0.5667 -0.2293  0.5790
 6147TIP3    H139856   5.714   0.305  12.613 -0.4749 -0.0739  0.3562
 6147TIP3    H239857   5.628   0.258  12.498 -1.9095 -1.0649  1.8049
 6148TIP3   OH239858   3.292   4.198  13.475  1.0498  0.0242 -0.2587
 6148TIP3    H139859   3.305   4.256  13.550 -0.4337 -0.9530  0.7733
 6148TIP3    H239860   3.245   4.122  13.511 -1.4448  0.4338 -2.5288
 6149TIP3   OH239861   4.238   5.619  10.944 -0.0220  0.1392  0.2816
 6149TIP3    H139862   4.317   5.574  10.973  1.9807  3.3474  0.0918
 6149TIP3    H239863   4.199   5.560  10.881  2.1492 -1.6121  0.5001
 6150TIP3   OH239864   4.220   6.663  13.263 -0.0550 -0.2904 -1.0943
 6150TIP3    H139865   4.164   6.597  13.222 -1.6617 -1.0352  2.0948
 6150TIP3    H239866   4.299   6.616  13.287  0.1611 -0.2619 -1.7354
 6151TIP3   OH239867   3.989   6.828  12.132  0.0582 -0.4600 -0.3369
 6151TIP3    H139868   3.943   6.795  12.054 -0.6090  1.1988 -0.6660
 6151TIP3    H239869   4.031   6.750  12.170  0.2067 -1.3207 -2.2216
 6152TIP3   OH239870   3.144   6.232  12.880  0.2276 -0.0915  0.3812
 6152TIP3    H139871   3.090   6.244  12.958  2.0807 -0.3371  1.7502
 6152TIP3    H239872   3.228   6.271  12.904  1.3857 -1.7779 -0.8237
 6153TIP3   OH239873   5.474   6.630  11.613 -0.0246 -0.2514 -0.7104
 6153TIP3    H139874   5.399   6.668  11.568  0.3947  2.8103  1.0746
 6153TIP3    H239875   5.550   6.675  11.577  0.5053  0.4872  1.2781
 6154TIP3   OH239876   2.646   6.222  14.522  0.1496  0.1624 -0.4980
 6154TIP3    H139877   2.680   6.244  14.609  1.3911 -0.5166 -0.7927
 6154TIP3    H239878   2.593   6.297  14.497  0.5472  0.7714  0.4646
 6155TIP3   OH239879   4.313   7.279  15.598  0.0726  0.1459  0.2712
 6155TIP3    H139880   4.342   7.209  15.539  0.2990 -0.8794  1.5839
 6155TIP3    H239881   4.290   7.235  15.679 -2.1215  1.3321  0.3297
 6156TIP3   OH239882   3.979   5.610  14.746 -0.9485 -0.7690  0.6177
 6156TIP3    H139883   4.072   5.613  14.725 -0.9506 -1.7156  0.4539
 6156TIP3    H239884   3.943   5.692  14.711 -0.7400 -1.7466 -2.0207
 6157TIP3   OH239885   5.062   4.734  12.977  0.0759  0.0196  0.1048
 6157TIP3    H139886   4.972   4.704  12.991 -0.2227 -0.1584 -2.1098
 6157TIP3    H239887   5.110   4.702  13.053 -1.3536 -1.4626  0.3989
 6158TIP3   OH239888   4.575   0.285  13.258 -0.0879 -0.2043  0.3955
 6158TIP3    H139889   4.551   0.194  13.246 -0.6147 -0.1778  1.2492
 6158TIP3    H239890   4.507   0.322  13.314 -0.6956  1.0900 -1.1374
 6159TIP3   OH239891   3.403   5.649  10.390 -0.1576 -0.2226  0.0039
 6159TIP3    H139892   3.344   5.624  10.319 -0.5665  0.0434  0.2493
 6159TIP3    H239893   3.399   5.745  10.391  1.2409 -0.1462 -0.8016
 6160TIP3   OH239894   3.379   7.102  13.740  0.5232  0.4403 -0.3310
 6160TIP3    H139895   3.371   7.188  13.781 -0.6952  0.3171 -0.3001
 6160TIP3    H239896   3.412   7.045  13.810  1.4764  0.8999 -0.3920
 6161TIP3   OH239897   3.626   5.702   0.379  0.3192 -0.0036 -0.3579
 6161TIP3    H139898   3.593   5.766   0.315 -2.3216 -0.7217  0.2262
 6161TIP3    H239899   3.606   5.617   0.339 -0.4577 -0.4494  0.9580
 6162TIP3   OH239900   4.923   6.228  15.392 -0.4215 -0.1408 -0.7882
 6162TIP3    H139901   4.899   6.317  15.366 -0.0448  0.2559  0.1957
 6162TIP3    H239902   4.852   6.199  15.448  1.5982  1.2691  2.6467
 6163TIP3   OH239903   4.093   0.244  12.652 -0.4446 -0.2493  0.5086
 6163TIP3    H139904   4.181   0.223  12.622 -0.6988 -1.2051  0.4247
 6163TIP3    H239905   4.036   0.184  12.603 -1.1897  0.7229  0.1646
 6164TIP3   OH239906   3.117   6.482  13.112  0.2465  0.2316 -0.4351
 6164TIP3    H139907   3.118   6.578  13.103 -0.7875  0.1351 -1.6026
 6164TIP3    H239908   3.045   6.453  13.057 -0.9141 -1.0633  1.6841
 6165TIP3   OH239909   4.418   0.104  10.121  0.2676 -0.4427  0.2041
 6165TIP3    H139910   4.432   0.196  10.100  0.6104 -0.5234  0.0856
 6165TIP3    H239911   4.441   0.096  10.213  0.5395 -0.4762  0.1326
 6166TIP3   OH239912   6.338   0.380   1.213  0.0352 -0.0256 -0.1877
 6166TIP3    H139913   6.388   0.299   1.219 -0.8024 -0.5137  0.4996
 6166TIP3    H239914   6.380   0.431   1.144 -0.6098 -1.8837 -1.9871
 6167TIP3   OH239915   0.114   5.366  12.090 -0.1489  0.2376 -0.4077
 6167TIP3    H139916   0.193   5.318  12.117 -0.1734  0.8112  0.7344
 6167TIP3    H239917   0.054   5.298  12.059 -0.1147 -0.4679  1.0266
 6168TIP3   OH239918   7.099   6.293  11.981  0.3107  0.0944  0.4312
 6168TIP3    H139919   7.042   6.370  11.989  0.3402  0.0463  1.2275
 6168TIP3    H239920   7.130   6.295  11.891  1.6106  1.9565  0.8857
 6169TIP3   OH239921   5.165   6.998  15.179  0.0725 -0.0136 -0.0277
 6169TIP3    H139922   5.248   6.965  15.215  0.5050  1.8533  0.7810
 6169TIP3    H239923   5.118   7.031  15.256 -0.1207  1.6440 -0.8234
 6170TIP3   OH239924   5.637   0.484  15.827 -0.4426  0.6204  0.4169
 6170TIP3    H139925   5.561   0.540  15.812 -1.0923 -0.0109  1.2818
 6170TIP3    H239926   5.600   0.396  15.837  0.4236  0.2677  0.5889
 6171TIP3   OH239927   4.452   6.092  10.818  0.1820 -0.3516 -0.1609
 6171TIP3    H139928   4.510   6.017  10.834  0.2386 -0.2034  0.3451
 6171TIP3    H239929   4.511   6.167  10.818  0.1118 -0.2978 -0.5639
 6172TIP3   OH239930   5.029   4.016  11.098  0.8029 -0.6970 -0.2242
 6172TIP3    H139931   5.051   4.107  11.081 -0.3545 -0.3606  0.0754
 6172TIP3    H239932   5.043   4.005  11.192  1.8434 -1.0875 -0.4125
 6173TIP3   OH239933   4.430   4.156  13.530 -0.0760  0.4631  0.0266
 6173TIP3    H139934   4.426   4.153  13.626 -1.3542 -1.9687 -0.0587
 6173TIP3    H239935   4.523   4.149  13.509  0.1447  0.1903  1.0740
 6174TIP3   OH239936   2.694   0.288  12.871  0.2948  0.3045  0.6755
 6174TIP3    H139937   2.679   0.195  12.854 -0.9012  0.8866 -1.6041
 6174TIP3    H239938   2.777   0.308  12.828  0.2600  0.4096  0.6551
 6175TIP3   OH239939   5.355   7.287  12.096  0.2569 -0.5786 -0.0597
 6175TIP3    H139940   5.390   7.235  12.024  2.4431  0.9243 -0.1308
 6175TIP3    H239941   5.364   7.232  12.173  2.0599 -0.5467 -0.2241
 6176TIP3   OH239942   4.485   3.023  11.295  0.2237 -0.6888  0.2705
 6176TIP3    H139943   4.534   3.082  11.352 -1.4984  0.9860  0.0509
 6176TIP3    H239944   4.418   3.078  11.254  0.7853 -2.0579 -2.6284
 6177TIP3   OH239945   7.144   6.628  11.939  0.4520  0.6916 -0.6520
 6177TIP3    H139946   7.121   6.594  11.853  2.5866 -1.0208 -0.5897
 6177TIP3    H239947   7.061   6.626  11.988 -0.1238 -1.4754 -1.6506
 6178TIP3   OH239948   5.020   3.637  12.301 -0.3668 -0.3011 -0.0141
 6178TIP3    H139949   4.949   3.593  12.254 -0.0119 -1.0960  0.1810
 6178TIP3    H239950   5.075   3.674  12.233 -2.3558  2.5952 -0.1510
 6179TIP3   OH239951   0.640   6.511  11.056  0.8329  0.3403 -0.4031
 6179TIP3    H139952   0.713   6.553  11.010  0.4754 -0.7582 -2.0131
 6179TIP3    H239953   0.562   6.542  11.009  0.4689 -0.8171 -0.5662
 6180TIP3   OH239954   6.338   0.371  13.304  0.4141 -0.2631  0.2981
 6180TIP3    H139955   6.333   0.285  13.347  1.0041 -0.1272  0.6525
 6180TIP3    H239956   6.430   0.395  13.312  0.7576 -0.6922 -1.9254
 6181TIP3   OH239957   3.893   4.172  12.553 -0.2473 -0.4485  0.7689
 6181TIP3    H139958   3.906   4.092  12.502 -0.1473 -0.3883  0.6981
 6181TIP3    H239959   3.963   4.230  12.524 -0.6882 -0.1095  0.3722
 6182TIP3   OH239960   4.842   6.466  11.872 -0.5025  0.3998  0.3213
 6182TIP3    H139961   4.885   6.545  11.840 -2.2399  0.9728 -0.6772
 6182TIP3    H239962   4.904   6.428  11.934 -0.0671  3.0996  1.6177
 6183TIP3   OH239963   5.759   4.092  13.960  0.1800 -0.3377  0.1417
 6183TIP3    H139964   5.725   4.019  14.012  0.7901 -0.5636  0.2237
 6183TIP3    H239965   5.681   4.141  13.934 -0.1346 -0.3173  1.1326
 6184TIP3   OH239966   5.136   7.230  11.053 -0.1304  0.4231  0.3041
 6184TIP3    H139967   5.229   7.215  11.038  0.2087  2.1011  0.6027
 6184TIP3    H239968   5.103   7.260  10.968 -0.5145 -0.6194  0.0720
 6185TIP3   OH239969   4.648   5.251  13.102 -0.0737 -0.0126  0.3563
 6185TIP3    H139970   4.628   5.235  13.010  0.7707 -3.3173  0.6748
 6185TIP3    H239971   4.577   5.207  13.150  0.8558 -0.5223  1.2910
 6186TIP3   OH239972   6.192   5.179  14.028  0.0148 -0.7935  0.2852
 6186TIP3    H139973   6.127   5.113  14.051 -0.4658 -0.1366  0.8351
 6186TIP3    H239974   6.171   5.254  14.083  0.8023 -0.3205 -0.0432
 6187TIP3   OH239975   4.877   5.215  11.390  0.5192 -0.3867  0.2129
 6187TIP3    H139976   4.940   5.273  11.432  0.2659 -1.1441  1.6619
 6187TIP3    H239977   4.804   5.271  11.367  1.2309  0.2843 -0.4528
 6188TIP3   OH239978   3.877   6.477  12.287 -0.2138  1.2141  0.1327
 6188TIP3    H139979   3.846   6.469  12.196  1.0487  0.6840 -0.2688
 6188TIP3    H239980   3.936   6.552  12.286  2.1185 -0.5386 -0.1889
 6189TIP3   OH239981   3.586   4.449  11.092 -0.8021  0.1458 -0.0121
 6189TIP3    H139982   3.645   4.488  11.027  0.9697 -0.6969  1.0376
 6189TIP3    H239983   3.555   4.522  11.144 -1.8172  0.7682 -1.4457
 6190TIP3   OH239984   5.430   1.412  15.200 -0.5176 -0.1309 -0.0064
 6190TIP3    H139985   5.437   1.357  15.278  1.8087 -0.7063 -0.5910
 6190TIP3    H239986   5.376   1.361  15.140 -0.2563 -0.7831  0.3032
 6191TIP3   OH239987   5.074   1.360  14.237  0.3621 -0.1179  0.0237
 6191TIP3    H139988   5.038   1.426  14.179  1.7789 -0.1701 -0.9432
 6191TIP3    H239989   5.025   1.370  14.319 -2.3063 -0.6595 -1.4607
 6192TIP3   OH239990   0.018   5.843  13.491 -0.3723 -0.2743 -0.1734
 6192TIP3    H139991  -0.029   5.919  13.525  1.5893  0.3623  1.1824
 6192TIP3    H239992   0.004   5.774  13.557 -1.2240 -0.7774 -0.8601
 6193TIP3   OH239993   4.765   0.214  12.973 -0.4278  0.6865  0.5005
 6193TIP3    H139994   4.723   0.155  12.911 -1.3298  1.8268  0.0138
 6193TIP3    H239995   4.705   0.288  12.981  1.6101  2.5345 -0.5035
 6194TIP3   OH239996   5.693   6.396  13.181 -0.1239 -0.2115  0.2603
 6194TIP3    H139997   5.703   6.301  13.168 -0.7364 -0.2460  0.0140
 6194TIP3    H239998   5.600   6.412  13.166  0.5559  0.9667 -3.2481
 6195TIP3   OH239999   4.764   4.792  14.148  0.0445 -0.0379 -0.0280
 6195TIP3    H140000   4.778   4.783  14.053 -0.7232  0.0267 -0.1503
 6195TIP3    H240001   4.845   4.758  14.187 -0.5813 -2.2865 -0.6259
 6196TIP3   OH240002   0.466   6.170  12.890  0.1295 -0.4418  0.2666
 6196TIP3    H140003   0.411   6.165  12.969  0.7146  0.0168  0.7093
 6196TIP3    H240004   0.406   6.199  12.821 -0.1944  0.0409  0.7407
 6197TIP3   OH240005   3.572   5.963  14.548 -0.2783 -0.6936  0.5009
 6197TIP3    H140006   3.630   5.985  14.621 -0.6813  1.2057  0.2833
 6197TIP3    H240007   3.508   6.033  14.547  1.2744  0.7901 -3.2992
 6198TIP3   OH240008   4.727   3.686  11.558 -0.4058 -0.1691  0.2952
 6198TIP3    H140009   4.736   3.591  11.557  1.1855 -0.0606 -2.9344
 6198TIP3    H240010   4.806   3.717  11.601 -0.4638 -0.2629  0.4705
 6199TIP3   OH240011   3.646   4.016  10.259 -0.0515  0.4984 -0.9366
 6199TIP3    H140012   3.709   3.961  10.212  0.4086 -0.4839  0.7856
 6199TIP3    H240013   3.695   4.050  10.334 -1.9220 -1.3427  1.1602
 6200TIP3   OH240014   4.517   6.929  13.769 -0.5240  0.1031 -0.3382
 6200TIP3    H140015   4.471   7.012  13.760  0.6579  0.9107  0.9224
 6200TIP3    H240016   4.580   6.928  13.697 -0.5883  0.2581 -0.3967
 6201TIP3   OH240017   5.156   4.588  10.699  0.0819  0.4096 -0.6396
 6201TIP3    H140018   5.080   4.645  10.715 -1.8626 -2.3217  0.3411
 6201TIP3    H240019   5.132   4.537  10.622  1.3880  0.2596 -0.9557
 6202TIP3   OH240020   1.995   5.030  10.919 -0.2563  0.1146  0.2813
 6202TIP3    H140021   2.056   4.956  10.927 -0.1322 -0.0069 -1.6964
 6202TIP3    H240022   1.927   4.999  10.859  0.9693  2.3397 -2.3307
 6203TIP3   OH240023   5.529   5.146  11.278 -1.0683 -0.6558  0.1050
 6203TIP3    H140024   5.448   5.195  11.293 -1.4237 -1.0035 -0.6324
 6203TIP3    H240025   5.598   5.212  11.285 -1.6029  0.1555 -1.7036
 6204TIP3   OH240026   4.388   1.060  11.457 -0.0580 -0.0818 -0.0977
 6204TIP3    H140027   4.428   1.086  11.540 -1.2501  0.9419  0.1599
 6204TIP3    H240028   4.405   1.133  11.398 -0.8265 -0.0058 -0.2223
 6205TIP3   OH240029   1.606   5.290  12.650  0.0500 -0.2426 -0.1163
 6205TIP3    H140030   1.701   5.298  12.642  0.1894 -0.7894  0.8689
 6205TIP3    H240031   1.584   5.215  12.594  0.3334 -0.7362  0.4235
 6206TIP3   OH240032   5.207   4.586  13.792  0.3832  0.5391  0.4510
 6206TIP3    H140033   5.122   4.549  13.768  0.6586  0.0422  0.2315
 6206TIP3    H240034   5.187   4.670  13.832 -0.0717  1.7243 -2.1777
 6207TIP3   OH240035   3.994   1.850  13.074  0.3635  0.5643  0.4880
 6207TIP3    H140036   4.082   1.822  13.099  0.0041 -0.9925  0.0823
 6207TIP3    H240037   3.950   1.769  13.047 -0.1139  1.7768 -2.5829
 6208TIP3   OH240038   1.014   0.540  10.840 -0.6807 -0.6564  0.0846
 6208TIP3    H140039   1.081   0.490  10.793 -0.6463 -1.5856  1.0800
 6208TIP3    H240040   1.047   0.544  10.930 -0.2425  1.9908 -0.1635
 6209TIP3   OH240041   1.243   6.935  10.208  0.0409 -0.3478  0.3349
 6209TIP3    H140042   1.280   6.920  10.121  1.7625  2.0972  0.6055
 6209TIP3    H240043   1.319   6.953  10.264 -1.1057 -1.1111  2.1983
 6210TIP3   OH240044   4.775   0.165   9.967 -0.4081  0.6729  0.0461
 6210TIP3    H140045   4.852   0.187   9.915  1.0483 -3.4759  0.1940
 6210TIP3    H240046   4.703   0.162   9.904 -0.0146  2.3496 -0.4998
 6211TIP3   OH240047   7.295   6.571  14.397 -0.2256  0.8869  0.1539
 6211TIP3    H140048   7.221   6.517  14.370  0.2685 -0.1312  0.8079
 6211TIP3    H240049   7.269   6.604  14.483  0.1761  0.3360  0.4883
 6212TIP3   OH240050   6.629   6.638  11.527  0.0471 -0.1587 -0.1571
 6212TIP3    H140051   6.569   6.619  11.455  0.1986 -0.4218 -0.2125
 6212TIP3    H240052   6.581   6.700  11.583  0.0565  0.3034 -0.6577
 6213TIP3   OH240053   5.569   0.495  15.054 -0.6207  0.8370  0.2415
 6213TIP3    H140054   5.536   0.473  14.967 -0.6761  1.8432  0.0015
 6213TIP3    H240055   5.649   0.545  15.037  0.9889 -1.4694  0.8001
 6214TIP3   OH240056   5.615   5.711  12.650 -0.9196  0.0113  0.2916
 6214TIP3    H140057   5.554   5.772  12.692  0.2717  1.1781  0.3595
 6214TIP3    H240058   5.574   5.690  12.566 -0.3031  2.6877 -0.7271
 6215TIP3   OH240059   6.623   0.360  13.749 -0.3273  0.3393  0.3162
 6215TIP3    H140060   6.566   0.300  13.701  1.6329 -2.1119  0.9943
 6215TIP3    H240061   6.629   0.437  13.692 -2.0687 -0.4765 -1.0164
 6216TIP3   OH240062   5.733   1.725  12.177 -0.0688  0.0776  0.4345
 6216TIP3    H140063   5.768   1.649  12.225 -0.6095  0.2538  1.1069
 6216TIP3    H240064   5.645   1.738  12.213  0.1622  1.2581  0.5910
 6217TIP3   OH240065   1.327   1.879  11.991 -0.0135 -0.0977  0.5290
 6217TIP3    H140066   1.400   1.930  12.027 -0.4144  0.2343  0.8661
 6217TIP3    H240067   1.279   1.848  12.067 -2.1415  2.4384  0.2877
 6218TIP3   OH240068   2.478   4.548  13.522  0.2045  0.1313  0.5111
 6218TIP3    H140069   2.484   4.639  13.549  0.3261  0.2024  0.2531
 6218TIP3    H240070   2.556   4.507  13.559  0.4162  0.2481  0.2008
 6219TIP3   OH240071   4.105   4.189  10.379  0.3983  0.0262 -0.6754
 6219TIP3    H140072   4.068   4.168  10.293 -0.0766 -0.9270 -0.2515
 6219TIP3    H240073   4.156   4.112  10.403 -0.5226 -0.2608  0.4549
 6220TIP3   OH240074   6.042   1.580  14.338 -0.3091  0.0995 -0.1294
 6220TIP3    H140075   6.106   1.510  14.327  1.0868  1.2681  0.4806
 6220TIP3    H240076   6.090   1.651  14.379 -2.1314  0.8026  0.8731
 6221TIP3   OH240077   3.329   1.111  14.279  0.0952  0.5345 -0.4725
 6221TIP3    H140078   3.424   1.111  14.276  0.0853 -2.2191 -2.1238
 6221TIP3    H240079   3.302   1.106  14.187 -1.6445  0.0732  0.0416
 6222TIP3   OH240080   5.362   7.048  13.148 -0.1339  0.1019  0.9121
 6222TIP3    H140081   5.336   7.110  13.216  1.1125  0.5961  0.9389
 6222TIP3    H240082   5.354   7.097  13.066 -2.8557 -0.8631  0.5353
 6223TIP3   OH240083   5.732   6.863   0.488 -0.2538  0.1990  0.0721
 6223TIP3    H140084   5.664   6.824   0.433  1.3525 -2.2551 -0.2598
 6223TIP3    H240085   5.725   6.817   0.572  0.7702  0.1533  0.1384
 6224TIP3   OH240086   5.813   5.557  14.296 -0.1325 -0.1780 -0.2215
 6224TIP3    H140087   5.790   5.532  14.207 -1.4598 -1.5035  0.4706
 6224TIP3    H240088   5.837   5.475  14.338 -2.6215 -0.0539  1.5316
 6225TIP3   OH240089   0.311   6.669  10.600  0.2946 -0.1904  0.0602
 6225TIP3    H140090   0.260   6.646  10.522  1.0775 -2.2761  0.1279
 6225TIP3    H240091   0.361   6.590  10.620  0.5838  0.5263  2.3113
 6226TIP3   OH240092   4.192   5.687  12.155  0.3051 -0.0247 -0.5660
 6226TIP3    H140093   4.220   5.756  12.096 -0.6347  0.2648 -0.6806
 6226TIP3    H240094   4.096   5.694  12.158  0.0883 -2.0961 -1.5548
 6227TIP3   OH240095   4.314   0.060   9.869  0.3562  0.2975  0.1862
 6227TIP3    H140096   4.369   0.070   9.791  1.2726  3.6309  1.1445
 6227TIP3    H240097   4.372   0.084   9.941 -1.8151  2.0123  1.4200
 6228TIP3   OH240098   1.464   0.711  12.993 -0.5831 -0.0279  0.2806
 6228TIP3    H140099   1.419   0.771  13.052 -0.8275 -0.0789  0.1440
 6228TIP3    H240100   1.456   0.752  12.907  0.2304  0.3141  0.3631
 6229TIP3   OH240101   5.959   6.936  14.177 -0.1626 -0.7173  0.2585
 6229TIP3    H140102   5.963   7.020  14.132 -1.0873 -0.4656  0.6414
 6229TIP3    H240103   6.046   6.898  14.163 -0.0082 -0.0711 -0.6192
 6230TIP3   OH240104   4.818   4.842  13.873  0.0440 -0.1169  0.1050
 6230TIP3    H140105   4.728   4.835  13.841  0.0802  1.0521 -0.2839
 6230TIP3    H240106   4.872   4.827  13.795  0.1981 -1.1058  0.3925
 6231TIP3   OH240107   6.306   6.608  13.265  0.1157 -0.0743  0.1003
 6231TIP3    H140108   6.387   6.648  13.298  0.3174  1.2362 -1.8590
 6231TIP3    H240109   6.245   6.681  13.257  0.0650 -0.3282 -2.3102
 6232TIP3   OH240110   0.563   6.979  10.841 -0.1541 -0.6357  0.0416
 6232TIP3    H140111   0.555   7.058  10.894 -1.2182  0.6952 -2.0495
 6232TIP3    H240112   0.474   6.945  10.834 -0.0666 -0.6491 -1.1163
 6233TIP3   OH240113   0.222   0.805  11.618 -0.0819  0.4170  0.7038
 6233TIP3    H140114   0.256   0.739  11.557  0.0731 -1.0890  2.3620
 6233TIP3    H240115   0.127   0.801  11.607  0.0140  1.3050 -0.5768
 6234TIP3   OH240116   6.472   0.988  10.479 -0.6345 -0.1664 -0.1613
 6234TIP3    H140117   6.539   0.962  10.416  1.3620  2.5082  0.7800
 6234TIP3    H240118   6.451   0.907  10.527  0.4638 -1.4345 -1.7698
 6235TIP3   OH240119   0.903   0.547  11.379  0.6345  0.0322 -0.0726
 6235TIP3    H140120   0.839   0.476  11.380  2.2042 -1.3823  0.8869
 6235TIP3    H240121   0.871   0.609  11.445  0.3370 -0.7541  0.5286
 6236TIP3   OH240122   6.226   7.153  14.152 -0.0520  0.4168 -0.1775
 6236TIP3    H140123   6.161   7.167  14.084  0.2949  1.7245 -0.2562
 6236TIP3    H240124   6.232   7.058  14.161 -2.6784  0.2912  0.5396
 6237TIP3   OH240125   0.185   4.650  15.444 -0.3248 -0.4603  0.2309
 6237TIP3    H140126   0.201   4.576  15.502 -1.1585 -1.3101 -0.6010
 6237TIP3    H240127   0.259   4.649  15.383 -0.1856 -0.4353  0.3984
 6238TIP3   OH240128   5.534   0.943  13.219  0.4312 -0.5927 -0.1561
 6238TIP3    H140129   5.518   0.904  13.306  1.0717  2.8497  1.5883
 6238TIP3    H240130   5.629   0.944  13.210  0.4274  0.7739 -0.0730
 6239TIP3   OH240131   0.113   5.143  12.904 -0.1452 -0.0114 -0.1085
 6239TIP3    H140132   0.202   5.175  12.914 -0.0894 -0.5482  1.1423
 6239TIP3    H240133   0.113   5.057  12.945 -1.4089  0.2890  0.5490
 6240TIP3   OH240134   3.035   2.980  12.929  0.0535  0.2585 -0.0102
 6240TIP3    H140135   2.987   2.962  12.849 -1.0768  0.9691  0.4870
 6240TIP3    H240136   3.045   3.075  12.931 -0.1435  0.2732  0.7963
 6241TIP3   OH240137   6.653   2.808  13.983  0.7956  0.3262  0.3924
 6241TIP3    H140138   6.614   2.721  13.984 -1.6243  1.3639  0.6583
 6241TIP3    H240139   6.693   2.816  13.897 -1.8963  0.1637 -0.9181
 6242TIP3   OH240140   5.102   0.730  13.260 -0.2507 -0.3865 -0.5131
 6242TIP3    H140141   5.193   0.699  13.262 -0.3776 -0.8129 -1.4108
 6242TIP3    H240142   5.107   0.818  13.222 -0.2797 -0.6341 -1.0885
 6243TIP3   OH240143   6.294   6.479  10.346 -0.1118  0.2472  0.1737
 6243TIP3    H140144   6.312   6.543  10.415  4.1074 -0.3016 -0.2767
 6243TIP3    H240145   6.327   6.396  10.382 -0.4812 -0.6069 -1.4000
 6244TIP3   OH240146   6.511   5.471  14.569  0.0352 -0.0003  0.4721
 6244TIP3    H140147   6.508   5.476  14.664  0.9611 -0.4452  0.5309
 6244TIP3    H240148   6.424   5.497  14.541 -0.8094 -1.6454  1.5045
 6245TIP3   OH240149   0.805   2.409  10.667 -0.1835  0.2360  0.1403
 6245TIP3    H140150   0.739   2.478  10.669 -0.6261 -0.1942  0.4208
 6245TIP3    H240151   0.869   2.434  10.734 -1.0311 -0.3050  1.1539
 6246TIP3   OH240152   2.482   1.448  14.142  0.5104  0.2423  0.2107
 6246TIP3    H140153   2.459   1.500  14.219  1.5778 -0.3561  0.9436
 6246TIP3    H240154   2.547   1.385  14.174  0.0859 -0.7832 -0.9263
 6247TIP3   OH240155   4.743   0.040  11.923  0.5370 -0.8563 -0.1069
 6247TIP3    H140156   4.806   0.110  11.940  0.9335 -1.2435  0.0023
 6247TIP3    H240157   4.706   0.062  11.838 -1.4493  1.0894  1.1914
 6248TIP3   OH240158   5.051   0.853   0.361 -0.2548  0.3924 -0.1503
 6248TIP3    H140159   4.986   0.844   0.431 -0.8489 -2.9002 -1.0608
 6248TIP3    H240160   5.135   0.849   0.406 -0.6340 -1.3733  0.4450
 6249TIP3   OH240161   4.994   0.639  15.137  0.4836  0.1372  0.4715
 6249TIP3    H140162   5.010   0.609  15.226  1.6108  2.0758  0.9430
 6249TIP3    H240163   5.074   0.615  15.089 -0.0111 -0.6616  0.0165
 6250TIP3   OH240164   5.537   7.205  13.497  0.6336 -0.0158  0.4216
 6250TIP3    H140165   5.483   7.150  13.553  0.2701 -0.7571 -0.6400
 6250TIP3    H240166   5.475   7.269  13.460  0.4089 -1.0223 -0.9946
 6251TIP3   OH240167   7.008   6.540  13.332  0.0348 -0.5167  0.1335
 6251TIP3    H140168   7.011   6.634  13.345  0.1545 -0.3961 -0.7252
 6251TIP3    H240169   7.088   6.507  13.373  0.7171 -0.0831 -0.8298
 6252TIP3   OH240170   5.082   5.990  13.197 -0.3973 -0.0067  0.1743
 6252TIP3    H140171   5.127   5.916  13.157  0.4044  1.3555 -1.4968
 6252TIP3    H240172   4.995   5.990  13.158 -0.6675 -0.5369  0.7722
 6253TIP3   OH240173   6.665   5.888  10.657 -0.2285  0.0522  0.4997
 6253TIP3    H140174   6.572   5.873  10.640 -0.4575  1.4664  0.4739
 6253TIP3    H240175   6.710   5.851  10.581 -0.8130  0.0281  0.1669
 6254TIP3   OH240176   5.579   6.438  15.408 -0.3924  0.0122 -0.2375
 6254TIP3    H140177   5.501   6.421  15.461 -1.0382  0.0531 -1.1585
 6254TIP3    H240178   5.652   6.425  15.468 -1.0321 -1.7077  0.1898
 6255TIP3   OH240179   0.135   0.566  10.484 -0.5425  0.2886 -0.5136
 6255TIP3    H140180   0.044   0.560  10.512  0.0546 -1.9022  1.0902
 6255TIP3    H240181   0.165   0.651  10.515 -1.1173 -0.3555  1.9056
 6256TIP3   OH240182   0.023   1.322  13.195 -0.2335  0.3175 -1.0259
 6256TIP3    H140183  -0.001   1.395  13.138 -0.1737  2.5583  1.7189
 6256TIP3    H240184  -0.059   1.278  13.215 -0.9572  2.4773  1.0067
 6257TIP3   OH240185   4.985   6.073  12.052 -0.1601 -0.0554  0.1998
 6257TIP3    H140186   4.991   6.167  12.038 -0.1787  0.2642  2.2059
 6257TIP3    H240187   5.028   6.058  12.136 -0.2342 -1.8266 -0.0540
 6258TIP3   OH240188   4.104   1.336  11.810  0.3741 -0.0667  0.4467
 6258TIP3    H140189   4.121   1.245  11.788 -0.2664  0.2661 -1.4960
 6258TIP3    H240190   4.074   1.376  11.728 -1.6768  1.3057  1.8160
 6259TIP3   OH240191   7.198   4.585  11.837 -0.0411 -0.0739 -0.3736
 6259TIP3    H140192   7.124   4.645  11.842 -0.0222 -0.0172 -0.7946
 6259TIP3    H240193   7.243   4.609  11.756  0.7394  0.2472  0.1430
 6260TIP3   OH240194   2.637   5.497  12.962 -0.0703  0.0374  0.4201
 6260TIP3    H140195   2.708   5.444  12.923  0.3717  1.2978 -0.5195
 6260TIP3    H240196   2.601   5.546  12.888 -0.7500  0.7474  1.2171
 6261TIP3   OH240197   0.239   1.917  12.793  0.0715 -0.1018  0.1640
 6261TIP3    H140198   0.197   1.834  12.771  0.9013 -0.3992 -0.3221
 6261TIP3    H240199   0.299   1.896  12.864 -0.3420  0.2573  0.6260
 6262TIP3   OH240200   6.232   5.884  12.706  0.5221 -0.2012 -0.3688
 6262TIP3    H140201   6.138   5.876  12.716  0.2946  1.9712 -0.4994
 6262TIP3    H240202   6.269   5.820  12.766 -1.0096  0.0593  0.8611
 6263TIP3   OH240203   5.945   6.588   1.569  0.7373  0.0723 -0.4228
 6263TIP3    H140204   5.951   6.665   1.512 -3.2398 -0.3820 -1.6403
 6263TIP3    H240205   5.905   6.521   1.515 -1.0253 -1.1135  2.2274
 6264TIP3   OH240206   5.839   6.235  13.515  0.1469 -0.0701 -0.5049
 6264TIP3    H140207   5.916   6.287  13.538  0.5702 -0.7724 -0.3017
 6264TIP3    H240208   5.765   6.293  13.530  0.5041 -0.0136  1.2265
 6265TIP3   OH240209   3.648   7.139  10.958  0.4274 -0.7789  0.2140
 6265TIP3    H140210   3.642   7.125  10.863  0.6886  2.4019 -0.3310
 6265TIP3    H240211   3.558   7.136  10.988  0.0081  1.7184 -0.7231
 6266TIP3   OH240212   4.583   4.806  11.600  0.4602  0.1977  0.0997
 6266TIP3    H140213   4.647   4.825  11.668 -0.6234  0.8909  0.9358
 6266TIP3    H240214   4.534   4.888  11.589  0.3306 -0.0378 -1.1891
 6267TIP3   OH240215   6.873   4.858  15.039 -1.1283  0.1522  0.2459
 6267TIP3    H140216   6.941   4.910  14.999 -0.0283 -0.8893  0.7127
 6267TIP3    H240217   6.801   4.858  14.976 -0.1418  0.0771 -0.8901
 6268TIP3   OH240218   6.366   5.847  12.434  0.1372 -0.3419 -0.1140
 6268TIP3    H140219   6.434   5.812  12.376 -0.2347 -2.1103  0.4857
 6268TIP3    H240220   6.370   5.791  12.512  0.0048  1.4275  1.1831
 6269TIP3   OH240221   5.008   5.503  10.649 -0.9857  0.8377 -0.0745
 6269TIP3    H140222   5.072   5.569  10.623 -0.5367 -0.0075 -1.1861
 6269TIP3    H240223   4.949   5.496  10.573 -2.2783  1.4608  0.8575
 6270TIP3   OH240224   5.491   6.668  12.060 -0.1578  0.0897 -0.0470
 6270TIP3    H140225   5.518   6.753  12.026 -2.2308  0.2202 -1.4991
 6270TIP3    H240226   5.519   6.605  11.994 -0.6876 -0.0831 -0.1142
 6271TIP3   OH240227   4.924   0.285  14.979 -0.1714 -0.5201 -0.1022
 6271TIP3    H140228   4.945   0.220  14.911 -1.9725 -1.6404  0.3795
 6271TIP3    H240229   4.918   0.368  14.932  1.2309 -0.8437 -0.8779
 6272TIP3   OH240230   5.848   6.945  12.102 -0.4125 -0.6375 -0.5396
 6272TIP3    H140231   5.908   6.896  12.158 -0.0341 -0.8541 -1.1331
 6272TIP3    H240232   5.813   7.014  12.159  0.1586 -0.7039 -0.1098
 6273TIP3   OH240233   5.581   6.743  15.355  0.3099 -0.4902  0.7036
 6273TIP3    H140234   5.605   6.708  15.270  2.5416  0.8590  0.7257
 6273TIP3    H240235   5.632   6.692  15.418 -0.7060 -0.9365  1.1776
 6274TIP3   OH240236   6.615   2.103  13.861  0.0098  0.1156  0.2422
 6274TIP3    H140237   6.602   2.077  13.952  0.6126  2.0075  0.8865
 6274TIP3    H240238   6.541   2.161  13.842  0.1488  0.1092 -0.3222
 6275TIP3   OH240239   5.944   6.143  10.348 -0.2928 -0.0680  0.3432
 6275TIP3    H140240   5.849   6.136  10.343 -0.3609 -0.6084  1.9481
 6275TIP3    H240241   5.976   6.107  10.265 -1.4679 -0.2056 -0.0526
 6276TIP3   OH240242   6.555   0.741  12.282  0.0451  0.6034  0.2007
 6276TIP3    H140243   6.582   0.814  12.338  0.1038 -0.7168  1.8919
 6276TIP3    H240244   6.594   0.664  12.322 -1.7327 -0.6292 -0.4256
 6277TIP3   OH240245   6.330   6.241  12.391 -0.0308  0.5190 -0.2815
 6277TIP3    H140246   6.345   6.204  12.478  0.4885  3.3904  0.9184
 6277TIP3    H240247   6.256   6.191  12.356  0.6103 -1.5557  1.2496
 6278TIP3   OH240248   1.588   5.641  12.712 -0.0829 -0.2040  0.3819
 6278TIP3    H140249   1.656   5.685  12.764 -0.7175  1.1257  0.1133
 6278TIP3    H240250   1.624   5.636  12.624  0.2206 -0.7229  0.5377
 6279TIP3   OH240251   6.696   4.226  11.319 -0.2213 -0.0138  0.0520
 6279TIP3    H140252   6.786   4.193  11.320  0.8690  2.8541  0.4619
 6279TIP3    H240253   6.667   4.213  11.229  1.1478  0.4522 -0.4681
 6280TIP3   OH240254   6.639   6.428  11.285 -0.7073 -0.3296 -0.7110
 6280TIP3    H140255   6.589   6.355  11.321 -0.7183 -0.3933 -0.8545
 6280TIP3    H240256   6.728   6.414  11.317 -0.9153  0.1475  0.0842
 6281TIP3   OH240257   0.952   4.849  11.583 -0.0052  0.4727  0.0731
 6281TIP3    H140258   0.947   4.868  11.490 -0.6044 -0.1020 -0.0124
 6281TIP3    H240259   1.011   4.916  11.618  1.1343 -0.0099 -0.9036
 6282TIP3   OH240260   0.546   0.704  14.363  0.5321  0.1355 -0.4494
 6282TIP3    H140261   0.552   0.773  14.296  0.9694 -0.0371 -0.5929
 6282TIP3    H240262   0.570   0.624  14.317 -0.1956 -0.1462 -0.3332
 6283TIP3   OH240263   1.451   6.150  14.398  0.1752 -0.0018  0.1689
 6283TIP3    H140264   1.470   6.136  14.305  1.2606 -0.7734  0.4938
 6283TIP3    H240265   1.444   6.245  14.408 -2.2641  0.0130 -1.1312
 6284TIP3   OH240266   6.352   6.762  14.692 -0.0377  0.0286  0.0751
 6284TIP3    H140267   6.417   6.807  14.745  0.4780 -1.6723  0.9351
 6284TIP3    H240268   6.269   6.805  14.713  0.1164 -0.7807  2.4617
 6285TIP3   OH240269   6.435   0.240  13.981  0.1173  0.2856  0.0861
 6285TIP3    H140270   6.475   0.171  13.928 -3.7474  0.1173 -2.8303
 6285TIP3    H240271   6.444   0.319  13.929 -1.9489  0.5258  0.0544
 6286TIP3   OH240272   6.896   6.135  12.233  0.5568  0.6855  0.1134
 6286TIP3    H140273   6.963   6.078  12.272  0.3281 -0.2711 -0.8636
 6286TIP3    H240274   6.897   6.113  12.140 -1.6912  0.0684  0.2146
 6287TIP3   OH240275   6.786   0.520  13.466  0.0347 -0.1120 -0.0061
 6287TIP3    H140276   6.869   0.564  13.446 -0.1718 -0.0266 -0.6840
 6287TIP3    H240277   6.733   0.587  13.509  1.0577 -0.7399  2.2859
 6288TIP3   OH240278   6.463   1.297  14.808 -0.0751 -0.1756  0.0320
 6288TIP3    H140279   6.536   1.285  14.747  0.9845  0.8778  1.0661
 6288TIP3    H240280   6.417   1.375  14.775 -0.4188 -0.5109 -0.2939
 6289TIP3   OH240281   0.334   6.031  11.659  0.1168  0.4842  0.0737
 6289TIP3    H140282   0.422   6.047  11.693 -0.6564 -1.4140  3.2040
 6289TIP3    H240283   0.276   6.064  11.728 -1.6465  1.3808 -1.7936
 6290TIP3   OH240284   6.678   6.131  13.346  0.1972 -0.2539 -0.3908
 6290TIP3    H140285   6.622   6.160  13.274  0.2350 -1.2541 -0.8313
 6290TIP3    H240286   6.657   6.190  13.419 -1.5330 -0.7085 -0.5069
 6291TIP3   OH240287   4.947   0.972  12.788  0.0958 -0.4955  0.4482
 6291TIP3    H140288   4.957   1.045  12.850  0.0342  0.2410 -0.4026
 6291TIP3    H240289   4.895   1.008  12.717 -1.0421 -1.7541  0.6210
 6292TIP3   OH240290   5.265   6.752  13.560  0.3510  0.6771 -0.3042
 6292TIP3    H140291   5.345   6.713  13.593  0.1171 -1.2922 -1.9646
 6292TIP3    H240292   5.196   6.690  13.582 -0.5201  1.7038 -0.0848
 6293TIP3   OH240293   6.054   6.136  11.691  0.2983  0.1954 -0.4406
 6293TIP3    H140294   6.095   6.209  11.738  0.4362  0.7254 -1.3675
 6293TIP3    H240295   6.118   6.113  11.624 -0.7504  0.8003 -1.6854
 6294TIP3   OH240296   4.957   5.482  13.048  0.2196 -0.1379 -0.9214
 6294TIP3    H140297   4.962   5.439  13.133  3.0749  1.1999 -0.3398
 6294TIP3    H240298   5.026   5.442  12.996  0.8549  1.5143 -1.3954
 6295TIP3   OH240299   4.977   0.579  14.584 -0.1461 -0.3193  0.3194
 6295TIP3    H140300   4.902   0.606  14.637 -0.1033 -1.3905  0.9557
 6295TIP3    H240301   4.972   0.632  14.505 -2.5928 -1.5955 -0.4240
 6296TIP3   OH240302   4.991   2.403  12.715  1.0180  0.3213 -0.1068
 6296TIP3    H140303   4.903   2.388  12.679  0.2512  0.8619  1.5048
 6296TIP3    H240304   5.007   2.327  12.771  1.5358  0.2832 -0.3068
 6297TIP3   OH240305   6.560   1.098  12.248 -0.1740 -0.2342 -0.0473
 6297TIP3    H140306   6.607   1.051  12.179  0.8018 -1.9228  1.7007
 6297TIP3    H240307   6.576   1.046  12.327  1.2833  3.2528  2.0760
 6298TIP3   OH240308   0.715   2.698  10.724 -0.6702  0.3344  0.3301
 6298TIP3    H140309   0.660   2.767  10.687  0.6135 -0.1592 -2.6528
 6298TIP3    H240310   0.723   2.721  10.817 -1.0741  3.6440 -0.3955
 6299TIP3   OH240311   4.939   6.558  10.442 -0.1448  0.4234  0.5174
 6299TIP3    H140312   4.959   6.540  10.351 -1.3727  0.3219  0.2553
 6299TIP3    H240313   4.933   6.654  10.447  2.2804  0.5876  1.0222
 6300TIP3   OH240314   5.381   5.054  13.427  0.2876  0.3265  0.5612
 6300TIP3    H140315   5.389   4.982  13.365 -4.3636 -0.0296  0.1967
 6300TIP3    H240316   5.433   5.026  13.503  3.1552 -0.7839 -1.6864
 6301TIP3   OH240317   6.007   6.087  10.624  0.1239  0.0604  0.0290
 6301TIP3    H140318   6.011   6.149  10.551  1.3368  2.9773  2.4511
 6301TIP3    H240319   5.933   6.118  10.677  0.5478 -0.7720  1.1117
 6302TIP3   OH240320   5.307   7.128  12.367  0.0429 -0.0846  0.3337
 6302TIP3    H140321   5.282   7.218  12.386  0.7339  0.3300 -0.6773
 6302TIP3    H240322   5.395   7.120  12.404 -0.1707 -0.4670  0.7638
 6303TIP3   OH240323   0.908   4.552  14.006  0.7157  0.3736 -0.3471
 6303TIP3    H140324   0.950   4.555  14.093 -1.4689  1.8760  0.7052
 6303TIP3    H240325   0.818   4.527  14.024  0.0866  1.2975 -2.1269
 6304TIP3   OH240326   5.450   6.715  14.744  0.0192  0.2225 -0.1665
 6304TIP3    H140327   5.391   6.713  14.820 -1.6267 -0.8698 -1.4461
 6304TIP3    H240328   5.498   6.632  14.749  0.5382  0.5401  0.1564
 6305TIP3   OH240329   6.308   5.997  11.311 -0.5810  0.7551 -0.6155
 6305TIP3    H140330   6.337   5.964  11.226  1.8541  1.2560  0.0034
 6305TIP3    H240331   6.221   5.958  11.323  0.1070 -1.3319 -2.1861
 6306TIP3   OH240332   0.042   1.369  12.056  0.1984  0.6040 -0.2094
 6306TIP3    H140333   0.078   1.398  11.972 -0.3669  0.3238 -0.5539
 6306TIP3    H240334   0.097   1.295  12.081 -1.8019 -1.6205 -2.1002
 6307TIP3   OH240335   6.870   4.726  10.108 -0.7980 -0.2667  0.0650
 6307TIP3    H140336   6.934   4.760  10.045  0.8301 -0.6226  1.4704
 6307TIP3    H240337   6.792   4.708  10.056  0.5212 -0.6272 -1.8552
 6308TIP3   OH240338   0.510   5.392  13.189  0.4939 -0.7073  0.0644
 6308TIP3    H140339   0.542   5.305  13.168 -1.2269 -0.9149 -1.7905
 6308TIP3    H240340   0.561   5.451  13.133  1.2733 -0.5658  0.9178
 6309TIP3   OH240341   0.038   7.160  12.359  0.7512 -0.2225  0.4418
 6309TIP3    H140342   0.036   7.249  12.325 -1.3101  0.0605  1.2173
 6309TIP3    H240343  -0.048   7.124  12.336  0.8453 -1.3545  1.8057
 6310TIP3   OH240344   5.225   1.163  12.407 -0.5464  0.5321  0.4044
 6310TIP3    H140345   5.313   1.138  12.380 -0.4777  2.2959 -1.0432
 6310TIP3    H240346   5.236   1.199  12.495  0.1701  0.7225  0.2377
 6311TIP3   OH240347   5.879   6.660   9.790  0.0506  0.1659 -0.0537
 6311TIP3    H140348   5.801   6.708   9.818  0.2599  1.0982 -1.0259
 6311TIP3    H240349   5.948   6.726   9.787 -0.1927  0.3487 -3.7104
 6312TIP3   OH240350   6.830   5.706  12.018  0.3996 -0.5598 -0.8838
 6312TIP3    H140351   6.869   5.696  11.932 -0.2541  1.2000 -1.4152
 6312TIP3    H240352   6.833   5.801  12.035 -1.2480 -0.6685  0.1728
 6313TIP3   OH240353   5.727   7.025  14.309  0.9817  0.0365 -0.2220
 6313TIP3    H140354   5.810   6.987  14.282  0.1503 -2.8144  1.0362
 6313TIP3    H240355   5.661   6.962  14.279 -0.5473  1.1421  0.7333
 6314TIP3   OH240356   4.917   3.524  13.419 -0.5021 -0.2689  0.3130
 6314TIP3    H140357   4.992   3.519  13.360 -0.0687 -0.0142  0.8404
 6314TIP3    H240358   4.907   3.617  13.439 -1.7103 -0.1598 -0.7089
 6315TIP3   OH240359   0.179   7.202  12.644 -0.3649  0.3234  0.1452
 6315TIP3    H140360   0.248   7.156  12.691  0.2920  1.7946  0.6629
 6315TIP3    H240361   0.155   7.143  12.573  0.9244 -0.5215  0.3880
 6316TIP3   OH240362   7.053   6.751  10.840 -0.2938 -0.6911  0.6515
 6316TIP3    H140363   7.135   6.714  10.873 -0.4521 -0.4156  1.3547
 6316TIP3    H240364   7.025   6.689  10.773  0.6568 -0.6216  0.1735
 6317TIP3   OH240365   6.794   5.818  11.539 -0.8411 -0.3388  0.2389
 6317TIP3    H140366   6.708   5.859  11.537 -0.6712  0.0575  0.8726
 6317TIP3    H240367   6.809   5.789  11.449 -1.1020  0.7045 -0.1497
 6318TIP3   OH240368   5.689   6.095  14.580 -0.2989  0.1581  0.0224
 6318TIP3    H140369   5.704   6.059  14.493 -1.2279  0.3205 -0.2102
 6318TIP3    H240370   5.627   6.034  14.621  0.9864 -0.5439  0.9872
 6319TIP3   OH240371   6.062   6.553  10.086 -0.6807 -0.1365 -0.0446
 6319TIP3    H140372   6.046   6.631  10.140  2.7911  1.6359 -1.4139
 6319TIP3    H240373   6.049   6.583   9.996  1.1762 -0.9979 -0.6186
 6320TIP3   OH240374   4.968   5.939  13.911 -0.0532  0.4190 -0.3363
 6320TIP3    H140375   4.901   5.905  13.851  1.5735  0.0402 -1.9994
 6320TIP3    H240376   5.048   5.942  13.857  1.9212 -1.7180  2.3279
 6321TIP3   OH240377   6.512   0.491  11.538  0.5629  0.5432 -0.0346
 6321TIP3    H140378   6.455   0.418  11.560  1.6003 -0.1806  0.2791
 6321TIP3    H240379   6.454   0.556  11.498 -0.0771 -1.0884 -1.7767
 6322TIP3   OH240380   6.489   6.494  13.571  0.4621  0.3500  0.3757
 6322TIP3    H140381   6.433   6.491  13.648 -0.3753 -1.6121 -0.2677
 6322TIP3    H240382   6.428   6.495  13.497  1.2633  0.4738 -0.2988
 6323TIP3   OH240383   5.232   6.036  14.166  0.1579  0.2709 -0.2558
 6323TIP3    H140384   5.269   5.991  14.090  1.1112  0.0574  0.3330
 6323TIP3    H240385   5.306   6.052  14.224 -0.4562  1.0349  0.3367
 6324TIP3   OH240386   0.141   3.501  10.216 -0.2212 -0.1702  0.4040
 6324TIP3    H140387   0.051   3.481  10.240 -0.5876  0.2083 -0.6183
 6324TIP3    H240388   0.135   3.533  10.126  1.0592 -1.1805 -0.0603
 6325TIP3   OH240389   3.666   7.161  14.028 -0.5651  0.4318 -0.6157
 6325TIP3    H140390   3.631   7.075  14.005 -2.7226  1.2796 -0.6016
 6325TIP3    H240391   3.589   7.215  14.044  0.7822  1.8578  1.3135
 6326TIP3   OH240392   0.024   5.129  13.482  0.1663  0.2304 -0.0558
 6326TIP3    H140393   0.040   5.038  13.454  0.7647 -0.2140  1.6385
 6326TIP3    H240394   0.104   5.176  13.459  0.0392  0.2196 -0.5162
 6327TIP3   OH240395   3.578   0.679  14.265 -0.4583  0.2280 -0.1966
 6327TIP3    H140396   3.574   0.767  14.229 -2.9456 -0.3640 -1.5071
 6327TIP3    H240397   3.572   0.690  14.360 -1.1324  1.4489 -0.3806
 6328TIP3   OH240398   4.117   4.690  13.379 -0.4991 -0.1286 -0.0754
 6328TIP3    H140399   4.157   4.639  13.450 -0.2808 -1.7721 -1.3539
 6328TIP3    H240400   4.171   4.769  13.373 -0.5290  0.0356  1.5937
 6329TIP3   OH240401   5.630   1.720  12.885 -0.1574 -0.3374  0.6366
 6329TIP3    H140402   5.650   1.812  12.867 -1.5121 -0.3863 -1.1971
 6329TIP3    H240403   5.628   1.678  12.799  0.2427 -2.0632  1.4336
 6330TIP3   OH240404   5.564   0.224  14.743 -0.2026  0.4767  0.2706
 6330TIP3    H140405   5.507   0.295  14.714 -1.1706 -0.0307  0.8917
 6330TIP3    H240406   5.601   0.188  14.663  0.3091  1.6987 -0.0445
 6331TIP3   OH240407   5.392   6.872  15.962 -0.2781  0.0727  0.1117
 6331TIP3    H140408   5.442   6.949  15.989  0.0781 -0.3137  0.5641
 6331TIP3    H240409   5.347   6.899  15.882 -0.9869  1.0908  0.8432
 6332TIP3   OH240410   5.556   7.240  12.528 -0.2548 -0.1383 -0.5049
 6332TIP3    H140411   5.522   7.265  12.614 -0.3947  2.2776 -1.2087
 6332TIP3    H240412   5.640   7.286  12.522 -0.6535  0.4491 -1.9870
 6333TIP3   OH240413   5.761   0.056  14.271  0.3871  0.8930 -0.5831
 6333TIP3    H140414   5.743  -0.038  14.260 -1.5351  1.2164 -0.4792
 6333TIP3    H240415   5.779   0.087  14.182  1.3520  0.3608 -0.5733
 6334TIP3   OH240416   4.864   0.320  12.462  0.5010 -0.2933  0.0347
 6334TIP3    H140417   4.858   0.237  12.415 -0.8082 -0.3461  0.2606
 6334TIP3    H240418   4.922   0.302  12.535  0.1201 -1.0596  0.1578
 6335TIP3   OH240419   7.162   6.446  13.553  0.3262  0.2729 -0.6244
 6335TIP3    H140420   7.249   6.459  13.513 -0.3651  2.6348 -1.4452
 6335TIP3    H240421   7.148   6.525  13.606 -2.2922  1.0444 -2.3711
 6336TIP3   OH240422   5.410   0.813  14.072  0.3447  0.2703 -0.3398
 6336TIP3    H140423   5.423   0.726  14.034  0.0813 -0.3000  0.8595
 6336TIP3    H240424   5.474   0.868  14.027 -1.2850  0.0571 -3.0520
 6337TIP3   OH240425   5.316   6.788  13.223 -0.6218  0.2476  0.4594
 6337TIP3    H140426   5.349   6.875  13.200 -0.5833  0.7638  2.3738
 6337TIP3    H240427   5.377   6.757  13.290 -0.1677 -1.6146 -0.7804
 6338TIP3   OH240428   5.728   5.998  13.865 -0.2559  0.6819 -0.5799
 6338TIP3    H140429   5.823   5.998  13.876 -0.3949  0.1138  0.9070
 6338TIP3    H240430   5.714   5.986  13.771  1.1396  2.3801 -1.0169
 6339TIP3   OH240431   6.194   6.313  11.864  0.4068 -0.2067 -0.2419
 6339TIP3    H140432   6.288   6.309  11.883  0.4404  0.0760 -0.3405
 6339TIP3    H240433   6.177   6.405  11.846  0.4560 -0.5277 -2.0012
 6340TIP3   OH240434   5.858   4.319   0.789 -0.1117  0.5544  0.0612
 6340TIP3    H140435   5.854   4.327   0.884  0.3424 -0.1701  0.1464
 6340TIP3    H240436   5.952   4.318   0.769 -0.1749 -0.9849 -0.2409
 6341TIP3   OH240437   6.425   6.494  11.126  0.1610 -0.2952  0.0576
 6341TIP3    H140438   6.500   6.486  11.184  0.8579  0.8867 -0.6715
 6341TIP3    H240439   6.458   6.471  11.039 -0.1960  0.6652 -0.3458
 6342TIP3   OH240440   0.823   2.536   1.044  0.2679  0.4699 -0.3454
 6342TIP3    H140441   0.760   2.542   0.973  0.8017  0.1261 -0.8596
 6342TIP3    H240442   0.777   2.569   1.121 -0.3874  0.6294 -0.8050
 6343TIP3   OH240443   6.768   5.890  13.446 -0.6123  0.3992 -0.3502
 6343TIP3    H140444   6.863   5.886  13.435 -0.3068  1.8038  1.6010
 6343TIP3    H240445   6.743   5.975  13.409 -1.0159  0.3802 -0.1240
 6344TIP3   OH240446   5.844   5.110  12.628  0.2763  0.2805 -0.4235
 6344TIP3    H140447   5.908   5.046  12.595  0.8334  0.5812  0.0580
 6344TIP3    H240448   5.897   5.173  12.677 -0.3592  0.7029 -0.2797
 6345TIP3   OH240449   6.086   5.555  10.666 -0.4592 -0.5961 -0.0441
 6345TIP3    H140450   6.180   5.559  10.652 -0.5986 -0.5259 -0.9961
 6345TIP3    H240451   6.059   5.474  10.622 -0.8113 -0.7191  0.3997
 6346TIP3   OH240452   0.593   5.198  12.829 -0.2222  0.3108  0.2330
 6346TIP3    H140453   0.572   5.224  12.739  0.9613 -1.1164 -0.4822
 6346TIP3    H240454   0.685   5.221  12.839 -0.1657 -0.1818  0.8404
 6347TIP3   OH240455   4.307   0.830  13.431 -0.7040 -0.3237 -0.3007
 6347TIP3    H140456   4.324   0.813  13.524 -3.6862  0.1105  0.3878
 6347TIP3    H240457   4.312   0.926  13.424 -0.4019 -0.3633 -0.5867
 6348TIP3   OH240458   6.755   6.049  13.026  0.2067  1.1038  0.0473
 6348TIP3    H140459   6.813   6.003  12.966  0.4952  0.8603  0.5168
 6348TIP3    H240460   6.783   6.141  13.022  0.9132  0.9118  0.6178
 6349TIP3   OH240461   3.306   5.099  11.498 -0.9869 -0.2621  0.3937
 6349TIP3    H140462   3.329   5.108  11.406  1.3189 -1.3405  0.8221
 6349TIP3    H240463   3.334   5.181  11.539  0.3334 -0.7768  0.5550
 6350TIP3   OH240464   6.136   0.326  13.115 -0.0906 -0.1643 -0.4256
 6350TIP3    H140465   6.084   0.246  13.113 -1.5084  0.7271 -0.5321
 6350TIP3    H240466   6.186   0.321  13.196 -0.6822 -0.8500 -0.1039
 6351TIP3   OH240467   0.124   4.494  12.815 -0.0058  0.2633 -0.0654
 6351TIP3    H140468   0.096   4.517  12.903 -0.6263 -0.9960  0.0885
 6351TIP3    H240469   0.043   4.493  12.764  0.2397  0.1865 -0.4542
 6352TIP3   OH240470   0.830   6.025  13.094 -0.0354  0.3253 -0.2380
 6352TIP3    H140471   0.819   6.120  13.096  1.3439  0.5950 -2.7932
 6352TIP3    H240472   0.742   5.991  13.078 -0.7439  1.0891  1.9151
 6353TIP3   OH240473   4.123   5.461  10.750 -0.2013 -0.0842 -0.1212
 6353TIP3    H140474   4.155   5.389  10.696 -2.1355  0.0954 -1.5790
 6353TIP3    H240475   4.089   5.525  10.688 -0.8132  0.9638  1.2486
 6354TIP3   OH240476   5.474   5.700  11.835  0.1253 -0.4706 -0.2634
 6354TIP3    H140477   5.481   5.636  11.905 -0.0817 -0.1947  0.0106
 6354TIP3    H240478   5.525   5.775  11.864 -0.9871  0.1395  0.1589
 6355TIP3   OH240479   5.348   6.306  12.294  0.6713 -0.0821 -0.3418
 6355TIP3    H140480   5.410   6.271  12.230  0.8264  0.1288 -0.3072
 6355TIP3    H240481   5.381   6.393  12.315  1.2388 -0.5615  0.8312
 6356TIP3   OH240482   4.329   1.097  13.364 -0.5979 -0.0225 -0.0462
 6356TIP3    H140483   4.256   1.101  13.302 -1.1339  0.9201  0.6321
 6356TIP3    H240484   4.334   1.185  13.401  0.8553 -0.0884 -0.0432
 6357TIP3   OH240485   6.025   0.788  13.716  0.2026 -0.6727  0.1511
 6357TIP3    H140486   6.065   0.848  13.654 -0.5848 -0.1676  0.1262
 6357TIP3    H240487   5.937   0.823  13.730  0.8343  0.0376  2.6406
 6358TIP3   OH240488   7.031   6.807  12.383  0.2332  0.1158  0.1563
 6358TIP3    H140489   7.029   6.896  12.348  0.6603 -0.0198 -0.2212
 6358TIP3    H240490   7.059   6.817  12.474  2.2070  0.2141 -0.4366
 6359TIP3   OH240491   6.814   6.294  15.202  0.4081  0.2437 -0.0371
 6359TIP3    H140492   6.872   6.259  15.270 -0.9224  1.7002  1.9364
 6359TIP3    H240493   6.742   6.232  15.197  0.5454  0.0950 -0.1833
 6360TIP3   OH240494   6.280   5.014  13.296 -0.6866 -0.4565  0.2035
 6360TIP3    H140495   6.277   4.977  13.384 -0.0319 -0.9036  0.0448
 6360TIP3    H240496   6.368   4.993  13.265 -0.5431  0.6654 -0.1445
 6361TIP3   OH240497   5.772   1.605  11.315  0.2157 -0.0317 -0.0004
 6361TIP3    H140498   5.699   1.657  11.282 -0.7172 -2.1817 -1.4247
 6361TIP3    H240499   5.849   1.661  11.303 -0.7119  0.8863 -1.8110
 6362TIP3   OH240500   4.128   0.211  12.260 -0.1504  0.3219  0.2294
 6362TIP3    H140501   4.165   0.289  12.302 -1.7448  1.4068 -0.3504
 6362TIP3    H240502   4.182   0.139  12.292  0.3502  1.4666  2.0202
 6363TIP3   OH240503   6.508   6.789  13.024 -0.3768  0.1459 -0.2174
 6363TIP3    H140504   6.541   6.762  13.110 -1.1287 -0.8006 -0.2267
 6363TIP3    H240505   6.433   6.845  13.044 -1.0581 -0.7352 -0.2581
 6364TIP3   OH240506   2.121   3.714  10.857  0.3766 -1.2869 -0.1997
 6364TIP3    H140507   2.039   3.676  10.826  0.0765 -1.6656  1.0359
 6364TIP3    H240508   2.186   3.645  10.844  0.4641 -1.0605 -0.9850
 6365TIP3   OH240509   5.553   5.216  12.285 -0.8809  0.3621 -0.5274
 6365TIP3    H140510   5.588   5.305  12.274  1.8839 -0.5516  0.5308
 6365TIP3    H240511   5.463   5.222  12.253 -0.8677  3.6307 -0.1110
 6366TIP3   OH240512   6.782   6.373  12.596 -0.0051  0.3666  0.5698
 6366TIP3    H140513   6.875   6.396  12.605 -0.1403  1.4307 -0.6823
 6366TIP3    H240514   6.737   6.457  12.590 -1.0085 -0.1610  0.6942
 6367TIP3   OH240515   6.153   0.096  14.483  0.3334  0.0636  0.0403
 6367TIP3    H140516   6.116   0.143  14.409  3.5442  0.9822 -1.0753
 6367TIP3    H240517   6.234   0.143  14.503  1.6195 -2.6394  1.4708
 6368TIP3   OH240518   4.813   6.583  15.075  0.0175  0.4969 -0.0452
 6368TIP3    H140519   4.818   6.593  14.980  0.7421 -0.1768 -0.0867
 6368TIP3    H240520   4.767   6.661  15.105  0.8485  1.3103 -0.8392
 6369TIP3   OH240521   7.184   4.377  14.536 -0.0433  0.0691 -0.1617
 6369TIP3    H140522   7.150   4.309  14.594  0.8233  0.1496  0.4529
 6369TIP3    H240523   7.158   4.459  14.576 -0.5253  0.1141 -0.5591
 6370TIP3   OH240524   5.872   0.421  12.896  0.1334  0.2392 -0.1988
 6370TIP3    H140525   5.836   0.341  12.935  0.5565  0.9108  1.5875
 6370TIP3    H240526   5.796   0.468  12.864 -0.3930  0.4997  1.3817
 6371TIP3   OH240527   6.961   0.610  12.375  0.5216  0.2595 -0.5607
 6371TIP3    H140528   6.917   0.694  12.380 -0.0715 -0.1325  0.8773
 6371TIP3    H240529   7.008   0.613  12.291 -2.0701  0.7400 -2.0431
 6372TIP3   OH240530   2.169   6.874   1.940 -0.4021 -0.7637 -0.6532
 6372TIP3    H140531   2.087   6.836   1.970 -0.3068  0.3198  1.0563
 6372TIP3    H240532   2.237   6.824   1.986 -0.1933 -0.0754 -0.2129
 6373TIP3   OH240533   6.389   0.254  14.519 -0.5015  0.5769  0.1787
 6373TIP3    H140534   6.361   0.250  14.610 -1.3929  0.2211 -0.1059
 6373TIP3    H240535   6.350   0.335  14.485  0.4648  1.1173  0.3086
 6374TIP3   OH240536   0.556   2.622  15.735 -0.0780 -0.0972 -0.2016
 6374TIP3    H140537   0.533   2.713  15.714  0.2253  0.3065  1.2042
 6374TIP3    H240538   0.487   2.570  15.693 -0.9735  0.8514  0.0811
 6375TIP3   OH240539   7.130   6.446   0.175 -0.3908  0.0015  0.3070
 6375TIP3    H140540   7.095   6.360   0.198  1.0620 -0.4689  0.7783
 6375TIP3    H240541   7.225   6.436   0.178 -0.1978  1.7731  0.9749
 6376TIP3   OH240542   0.021   1.999  14.843  0.3045 -0.4149  0.2476
 6376TIP3    H140543   0.054   2.088  14.853 -0.2713 -0.0248 -1.2517
 6376TIP3    H240544  -0.053   1.994  14.905  0.2685  0.1804  0.2560
 6377TIP3   OH240545   2.310   2.409  15.610 -0.2337  0.1443  0.8383
 6377TIP3    H140546   2.356   2.343  15.662  2.1155  1.9310  1.1103
 6377TIP3    H240547   2.316   2.377  15.520  1.6110  0.3664  0.8703
 6378TIP3   OH240548   0.704   3.221  14.642  0.2802  0.3119  0.1772
 6378TIP3    H140549   0.697   3.206  14.548  1.9836 -0.6860  0.1971
 6378TIP3    H240550   0.706   3.134  14.681  0.0663  0.7138  1.1104
 6379TIP3   OH240551   6.113   4.133  15.273  0.0299  0.0575  0.5036
 6379TIP3    H140552   6.196   4.180  15.269 -0.5385  1.1734  1.4808
 6379TIP3    H240553   6.137   4.040  15.276  1.1681  0.2641 -1.4563
 6380TIP3   OH240554   6.125   0.652  13.935 -0.7171  0.4066 -0.2880
 6380TIP3    H140555   6.101   0.652  13.843  0.3267  1.0372 -0.5667
 6380TIP3    H240556   6.097   0.738  13.967 -0.1431  0.5891 -0.2715
 6381TIP3   OH240557   0.351   1.609  14.949 -0.2787 -0.5028  0.2048
 6381TIP3    H140558   0.285   1.667  14.913 -0.1501  0.0195  0.7934
 6381TIP3    H240559   0.363   1.640  15.039  0.7057 -0.6392  0.1230
 6382TIP3   OH240560   6.108   2.462  13.473  0.3745 -0.2816  0.2081
 6382TIP3    H140561   6.096   2.536  13.533  0.6766 -0.9209  1.0631
 6382TIP3    H240562   6.150   2.501  13.396 -3.1841  1.1994 -1.0805
 6383TIP3   OH240563   1.653   2.543  14.123 -0.2434  0.5779 -0.4650
 6383TIP3    H140564   1.588   2.565  14.056  0.3888  0.6898 -1.0462
 6383TIP3    H240565   1.602   2.499  14.191 -1.1673  1.9849 -0.2303
 6384TIP3   OH240566   6.034   2.200  14.138 -0.5417  0.5483 -0.3850
 6384TIP3    H140567   6.089   2.154  14.075  0.6678  3.7118 -1.7300
 6384TIP3    H240568   5.951   2.152  14.136  0.4275 -1.1426 -2.2190
 6385TIP3   OH240569   1.252   0.818  15.122 -0.3060 -0.6351  0.7986
 6385TIP3    H140570   1.335   0.855  15.150 -0.9603 -1.5363  4.1106
 6385TIP3    H240571   1.194   0.894  15.112  0.9566  0.0223 -1.8473
 6386TIP3   OH240572   0.252   0.485  15.629  0.9380 -0.0367  0.1426
 6386TIP3    H140573   0.253   0.580  15.640 -0.0422  0.0788 -0.6277
 6386TIP3    H240574   0.266   0.472  15.535 -1.8035 -0.5182 -0.2465
 6387TIP3   OH240575   6.381   1.149  15.071 -0.3714  0.2054 -0.1892
 6387TIP3    H140576   6.308   1.092  15.048  0.5129 -1.0598  0.1092
 6387TIP3    H240577   6.401   1.196  14.990  0.6219 -1.8570 -1.1800
 6388TIP3   OH240578   6.789   2.578  14.735  0.1823  0.2762  0.1724
 6388TIP3    H140579   6.825   2.497  14.699 -1.8797 -0.3558 -0.5403
 6388TIP3    H240580   6.837   2.647  14.689  2.7918 -0.4807  1.6443
 6389TIP3   OH240581   2.315   2.057  15.430 -0.2581  0.2786 -0.1007
 6389TIP3    H140582   2.290   2.149  15.431 -1.4535 -0.0467  0.8470
 6389TIP3    H240583   2.305   2.031  15.338  3.4383  1.9506 -1.0428
 6390TIP3   OH240584   2.941   7.154  15.403 -0.4001  0.4033  0.2865
 6390TIP3    H140585   2.918   7.109  15.322 -0.3501 -1.2910  1.1986
 6390TIP3    H240586   2.863   7.204  15.426 -1.7318 -1.9870  1.1120
 6391TIP3   OH240587   0.618   2.489  12.694 -0.3133 -0.5010 -0.3487
 6391TIP3    H140588   0.590   2.450  12.611  0.6840  2.2321 -2.0269
 6391TIP3    H240589   0.708   2.457  12.706  0.0031  0.1096 -1.0132
 6392TIP3   OH240590   1.444   2.950   0.153 -0.4479  0.0277 -0.1541
 6392TIP3    H140591   1.503   2.959   0.077 -1.4198 -0.5277 -0.9861
 6392TIP3    H240592   1.465   2.864   0.189 -0.5818 -0.0677 -0.3037
 6393TIP3   OH240593   4.931   3.249   1.414  0.2835  0.4197  0.7305
 6393TIP3    H140594   4.930   3.183   1.483  1.2628  0.7457  1.0624
 6393TIP3    H240595   4.891   3.326   1.455  1.0938  0.6904  1.0118
 6394TIP3   OH240596   3.269   2.885  13.085  0.1943  0.3344  0.2615
 6394TIP3    H140597   3.177   2.880  13.059 -0.1163 -1.9465  1.5542
 6394TIP3    H240598   3.273   2.960  13.145 -0.9685  0.1007  0.6540
 6395TIP3   OH240599   6.569   1.692  15.303 -0.7231  0.2841  0.2424
 6395TIP3    H140600   6.596   1.625  15.366 -2.3753 -0.4057  0.2391
 6395TIP3    H240601   6.549   1.643  15.223  3.2998  1.3278 -1.5673
 6396TIP3   OH240602   0.235   1.657   0.048 -0.4856 -0.8537 -0.3478
 6396TIP3    H140603   0.170   1.590   0.025  0.4939 -1.8085 -0.4159
 6396TIP3    H240604   0.277   1.679  -0.035 -2.8601  2.1223 -0.8464
 6397TIP3   OH240605   2.099   4.841  13.430  0.8293 -0.2828  0.2603
 6397TIP3    H140606   2.051   4.903  13.485 -0.4565  0.8165 -2.0153
 6397TIP3    H240607   2.188   4.874  13.428  0.8655 -0.2891  1.6111
 6398TIP3   OH240608   0.591   0.046  13.252 -0.2737  0.0826  0.0415
 6398TIP3    H140609   0.508  -0.001  13.238 -0.5621  0.7630 -0.5721
 6398TIP3    H240610   0.607   0.090  13.168  0.6720  0.0165  0.1851
 6399TIP3   OH240611   5.803   1.427  14.849 -0.1509 -0.6260 -0.1574
 6399TIP3    H140612   5.752   1.346  14.843 -0.7864 -0.2303 -0.1076
 6399TIP3    H240613   5.762   1.477  14.919 -0.9461  0.5752 -1.4598
 6400TIP3   OH240614   5.643   0.099  15.684  0.0428 -0.1741 -0.0080
 6400TIP3    H140615   5.655   0.135  15.772  0.9498 -1.4925  0.4153
 6400TIP3    H240616   5.687   0.014  15.686 -2.2709 -1.4270 -0.9310
 6401TIP3   OH240617   1.919   2.049  14.490 -0.0091 -0.1403  0.2967
 6401TIP3    H140618   1.893   1.960  14.467  0.4091  0.0221 -0.8528
 6401TIP3    H240619   1.837   2.097  14.499 -0.1950  0.3150 -3.0664
 6402TIP3   OH240620   6.169   3.078  15.775  0.1259 -0.6996  0.3972
 6402TIP3    H140621   6.189   3.160  15.731  0.4697 -1.3669 -0.7016
 6402TIP3    H240622   6.252   3.050  15.815  0.3061 -1.1340 -0.2741
 6403TIP3   OH240623   2.926   1.537  15.283  1.1201  0.4378  0.2593
 6403TIP3    H140624   2.900   1.608  15.225 -0.4184 -1.5278 -1.5288
 6403TIP3    H240625   3.018   1.520  15.261  0.7901  0.2625 -1.0222
 6404TIP3   OH240626   1.811   0.022  14.841  0.4998 -0.1836 -0.2207
 6404TIP3    H140627   1.754  -0.038  14.793 -0.4082  0.5143 -0.0303
 6404TIP3    H240628   1.887   0.033  14.785  1.0851 -2.1750  0.1139
 6405TIP3   OH240629   0.907   1.230  15.280  0.2320 -0.0716  0.3050
 6405TIP3    H140630   0.905   1.285  15.201  0.4680 -1.1749 -0.4760
 6405TIP3    H240631   0.911   1.293  15.352 -1.2645  0.9840 -0.4943
 6406TIP3   OH240632   1.820   2.375  13.962 -0.2337  0.2765 -0.0808
 6406TIP3    H140633   1.800   2.455  14.011  0.4729  0.9506 -0.8775
 6406TIP3    H240634   1.744   2.318  13.977 -0.5523  0.9223  0.8372
 6407TIP3   OH240635   6.951   3.677   1.171  1.0343 -0.1607  0.4837
 6407TIP3    H140636   6.866   3.684   1.127  1.0365  0.0949  0.5148
 6407TIP3    H240637   6.931   3.697   1.263  1.5167  2.4789  0.0762
 6408TIP3   OH240638   2.053   1.258  14.018 -0.1382  0.6685  0.4138
 6408TIP3    H140639   2.127   1.221  13.970 -1.1585  1.3043 -1.7461
 6408TIP3    H240640   2.071   1.238  14.109  1.6651 -1.0019 -0.2656
 6409TIP3   OH240641   1.446   1.014   0.149  0.3451 -0.0816 -0.3033
 6409TIP3    H140642   1.384   0.974   0.088 -0.1928 -0.7011  0.6241
 6409TIP3    H240643   1.525   0.961   0.141 -0.2759 -1.1933  0.7198
 6410TIP3   OH240644   6.481   2.082  14.108 -0.4924 -0.1641 -0.5774
 6410TIP3    H140645   6.492   2.002  14.161  0.0535  0.2466 -0.0664
 6410TIP3    H240646   6.386   2.095  14.103 -0.5158  1.2667  2.5321
 6411TIP3   OH240647   0.980   1.740  14.567 -0.1606  0.0848  0.3765
 6411TIP3    H140648   1.009   1.797  14.637 -0.5980 -1.8585  2.1873
 6411TIP3    H240649   0.886   1.729  14.581 -0.1586 -0.7470 -0.1853
 6412TIP3   OH240650   3.011   3.106  15.455 -0.5305  0.0527 -0.1490
 6412TIP3    H140651   2.973   3.036  15.402  0.0110 -0.8386  0.6105
 6412TIP3    H240652   2.936   3.148  15.497 -0.9053  0.3212 -1.0767
 6413TIP3   OH240653   2.596   2.078  14.752  0.5180 -0.2859  0.0694
 6413TIP3    H140654   2.569   1.998  14.797  0.2105 -0.4071 -0.3197
 6413TIP3    H240655   2.679   2.101  14.792  1.2473 -1.5131 -0.6877
 6414TIP3   OH240656   2.079   0.800  13.360  0.2401  0.4794  0.1672
 6414TIP3    H140657   2.097   0.853  13.438 -0.7099 -1.9238  2.0818
 6414TIP3    H240658   1.983   0.798  13.354  0.3016  0.3400 -0.8735
 6415TIP3   OH240659   6.975   1.078  15.751  0.1763 -0.0808  0.1361
 6415TIP3    H140660   7.049   1.017  15.748 -0.1992 -0.5373  0.1034
 6415TIP3    H240661   6.920   1.046  15.823  0.4915  0.8203  0.8002
 6416TIP3   OH240662   1.506   6.312  13.347 -0.1219 -0.0976 -0.8287
 6416TIP3    H140663   1.540   6.233  13.390 -0.3224  0.3650  0.1783
 6416TIP3    H240664   1.411   6.305  13.356 -0.1997 -0.2959 -1.7286
 6417TIP3   OH240665   6.556   1.499  15.067  0.7358  0.0050 -0.3295
 6417TIP3    H140666   6.591   1.410  15.062  1.6621  0.2292  1.9283
 6417TIP3    H240667   6.597   1.545  14.994  1.9016 -0.8610 -0.2312
 6418TIP3   OH240668   0.041   1.462  14.292  0.2683 -0.0834  0.0652
 6418TIP3    H140669  -0.028   1.485  14.230 -0.8258  0.6329  1.4964
 6418TIP3    H240670   0.096   1.540  14.297 -0.7982  0.6169  1.4588
 6419TIP3   OH240671   0.740   2.975  14.779  0.4624  0.4478  0.1016
 6419TIP3    H140672   0.807   2.907  14.768 -2.0359 -1.9960 -0.5524
 6419TIP3    H240673   0.680   2.939  14.845 -2.7103  0.4903 -2.6470
 6420TIP3   OH240674   1.424   2.429   1.081 -0.7233  0.7667  0.4949
 6420TIP3    H140675   1.368   2.495   1.042  0.2297  1.7022  0.6944
 6420TIP3    H240676   1.442   2.367   1.010 -1.8568  0.5519  0.3878
 6421TIP3   OH240677   2.320   4.779  13.894 -0.0072  0.2975 -0.3236
 6421TIP3    H140678   2.406   4.751  13.926  0.0271 -1.4321 -1.8161
 6421TIP3    H240679   2.313   4.870  13.921  1.3727 -0.1637  1.7144
 6422TIP3   OH240680   1.656   2.906  14.165 -0.0038 -0.0479  0.0783
 6422TIP3    H140681   1.673   2.815  14.190 -1.3373 -0.3495 -0.0570
 6422TIP3    H240682   1.560   2.913  14.167  0.1432  1.7466  1.4883
 6423TIP3   OH240683   0.609   1.689  14.131 -0.1464  0.2580 -0.2849
 6423TIP3    H140684   0.634   1.779  14.156 -0.3845 -0.1498  1.4852
 6423TIP3    H240685   0.538   1.701  14.068  0.0390  1.3276 -0.3130
 6424TIP3   OH240686   1.542   0.833  15.428  0.7295  0.3321 -0.1139
 6424TIP3    H140687   1.545   0.757  15.487  1.8329 -0.2654 -0.9472
 6424TIP3    H240688   1.525   0.907  15.487 -1.0546 -0.6310  0.6294
 6425TIP3   OH240689   0.591   1.951  14.183  0.4961  0.6345 -0.1654
 6425TIP3    H140690   0.624   2.035  14.214 -0.5869  1.3874 -1.0372
 6425TIP3    H240691   0.552   1.970  14.098 -1.1310 -0.4566  0.3256
 6426TIP3   OH240692   6.811   0.963   0.536  0.1578  0.4673  0.2455
 6426TIP3    H140693   6.724   0.965   0.578  0.1044 -2.3278  0.3764
 6426TIP3    H240694   6.792   0.961   0.443 -0.1086 -3.1930  0.2913
 6427TIP3   OH240695   1.408   0.140  15.301 -0.7637  0.1190  0.2584
 6427TIP3    H140696   1.378   0.207  15.362 -1.0832  1.5696 -1.4581
 6427TIP3    H240697   1.499   0.124  15.325 -1.5587 -1.1203  2.6597
 6428TIP3   OH240698   4.903   0.255  15.270  0.2258 -0.5108 -0.2303
 6428TIP3    H140699   4.912   0.272  15.176  2.2894 -1.0678 -0.1543
 6428TIP3    H240700   4.934   0.336  15.311 -1.9403  0.2454 -0.0183
 6429TIP3   OH240701   6.735   0.222  14.446 -0.3036  0.7607  0.2659
 6429TIP3    H140702   6.751   0.285  14.517  0.7301 -0.3815  1.0646
 6429TIP3    H240703   6.640   0.210  14.447 -0.6130  2.9011 -0.4239
 6430TIP3   OH240704   1.686   2.520  13.249  0.4921 -0.4762 -0.3215
 6430TIP3    H140705   1.608   2.559  13.209  0.4989  0.4649  0.5437
 6430TIP3    H240706   1.744   2.501  13.176 -1.3597 -3.0720 -1.1810
 6431TIP3   OH240707   0.166   6.306  13.049 -0.6285 -0.0121  0.2961
 6431TIP3    H140708   0.138   6.362  12.977 -0.1220  0.9020  0.8070
 6431TIP3    H240709   0.204   6.366  13.114  1.3332 -1.0804  0.1801
 6432TIP3   OH240710   2.799   0.600  14.476  1.0353 -0.0840 -0.1316
 6432TIP3    H140711   2.873   0.555  14.435 -0.6712 -2.6918 -0.4268
 6432TIP3    H240712   2.747   0.634  14.402  0.5357 -0.5534  0.0024
 6433TIP3   OH240713   5.317   1.602  14.334 -0.7878 -0.2765 -0.2374
 6433TIP3    H140714   5.269   1.650  14.267  1.6535 -0.9850 -2.5574
 6433TIP3    H240715   5.369   1.538  14.286  0.5780 -1.2061  2.3712
 6434TIP3   OH240716   1.222   1.278  13.332  0.2567 -0.1819  0.3044
 6434TIP3    H140717   1.203   1.210  13.397 -0.9738  0.4825  0.6520
 6434TIP3    H240718   1.147   1.278  13.274  1.1764 -0.4897 -0.9024
 6435TIP3   OH240719   1.451   0.369  15.953  0.4386 -0.4015 -0.1853
 6435TIP3    H140720   1.396   0.327  15.887  0.3152 -3.5837  1.8132
 6435TIP3    H240721   1.540   0.342  15.930  0.7255  1.0741 -0.8414
 6436TIP3   OH240722   1.301   0.274  15.756 -0.1607  0.3927 -1.1778
 6436TIP3    H140723   1.239   0.202  15.747  0.3129 -0.0026 -1.2908
 6436TIP3    H240724   1.336   0.287  15.668  0.6145 -0.0146 -0.9329
 6437TIP3   OH240725   4.725   2.464  13.544 -0.4827  0.2676 -0.2279
 6437TIP3    H140726   4.679   2.458  13.628  1.6895 -0.6139  0.9183
 6437TIP3    H240727   4.760   2.377  13.530  1.4541  1.1022 -0.7226
 6438TIP3   OH240728   6.367   1.481  15.258 -0.2196 -0.5486 -0.0145
 6438TIP3    H140729   6.413   1.441  15.184  0.8789 -0.0774  0.4089
 6438TIP3    H240730   6.426   1.550  15.289 -1.8729  1.0938 -0.4203
 6439TIP3   OH240731   5.350   0.626  13.276  0.0458 -0.1420 -0.3450
 6439TIP3    H140732   5.415   0.618  13.346 -1.6559  3.6704  1.7954
 6439TIP3    H240733   5.399   0.666  13.204  1.3765 -2.4250 -0.7422
 6440TIP3   OH240734   6.960   1.311  14.141  0.4189 -0.4698  0.5079
 6440TIP3    H140735   6.872   1.287  14.112  0.9789 -2.0866  0.0882
 6440TIP3    H240736   7.005   1.227  14.151  2.1033  0.3787  0.1464
 6441TIP3   OH240737   7.193   6.959  13.121 -0.7444 -0.0675  0.3876
 6441TIP3    H140738   7.153   7.046  13.123  0.5346  0.5287  0.5050
 6441TIP3    H240739   7.177   6.923  13.208  0.3347  0.7984  0.9494
 6442TIP3   OH240740   5.905   1.972  13.206 -0.3075 -0.4229 -0.2422
 6442TIP3    H140741   5.820   1.952  13.168 -0.5876  1.1569 -0.4814
 6442TIP3    H240742   5.886   2.001  13.296 -0.1347  0.9378 -0.6292
 6443TIP3   OH240743   0.784   0.162  15.190  0.7273  0.5909 -0.0344
 6443TIP3    H140744   0.694   0.128  15.182  1.8199 -2.0352 -2.1325
 6443TIP3    H240745   0.817   0.122  15.270  0.3984  0.6154  0.1141
 6444TIP3   OH240746   0.071   0.238   0.024  0.4552  0.2082 -0.0848
 6444TIP3    H140747   0.077   0.196   0.109  1.7022 -2.1928 -1.3096
 6444TIP3    H240748   0.082   0.167  -0.039  2.0564  2.2494 -2.2145
 6445TIP3   OH240749   6.736   3.946  14.014 -0.0433 -0.5029  0.3262
 6445TIP3    H140750   6.825   3.929  13.981  0.1268 -1.9286  1.4483
 6445TIP3    H240751   6.679   3.898  13.954 -0.3297  2.4522 -1.9345
 6446TIP3   OH240752   0.292   2.471  14.322 -0.4440  0.2800 -0.5880
 6446TIP3    H140753   0.213   2.417  14.317  0.0007 -0.3112 -1.4678
 6446TIP3    H240754   0.265   2.555  14.285 -0.8607  0.3244 -0.1872
 6447TIP3   OH240755   2.814   3.034  14.841  0.0976 -0.1930  0.4469
 6447TIP3    H140756   2.807   3.074  14.927  0.9964 -0.2393  0.5435
 6447TIP3    H240757   2.798   2.940  14.856 -2.1357  0.1076  0.2008
 6448TIP3   OH240758   7.265   1.316  14.755 -0.3447 -0.0907 -0.3865
 6448TIP3    H140759   7.190   1.257  14.755 -0.9935  0.7012 -2.7407
 6448TIP3    H240760   7.302   1.310  14.667  1.4203  0.7088  0.2692
 6449TIP3   OH240761   3.810   1.659  14.206  0.6258  0.5850 -0.1036
 6449TIP3    H140762   3.866   1.624  14.276  0.2998 -0.9103 -0.5697
 6449TIP3    H240763   3.741   1.707  14.252 -0.3738 -1.5446  0.6851
 6450TIP3   OH240764   6.612   0.610  13.640 -0.2225 -0.0378 -0.1842
 6450TIP3    H140765   6.524   0.578  13.660  0.3077 -0.5778  1.3399
 6450TIP3    H240766   6.613   0.701  13.670 -0.1925 -0.0875 -0.0374
 6451TIP3   OH240767   0.930   5.910  15.247  0.3509 -0.0985 -0.0765
 6451TIP3    H140768   0.858   5.967  15.217  0.9121 -0.3557 -2.0115
 6451TIP3    H240769   0.978   5.963  15.310  0.5207  1.3937 -1.4166
 6452TIP3   OH240770   5.929   3.350  13.772 -0.3626  0.2477 -0.2947
 6452TIP3    H140771   5.839   3.322  13.763 -0.3882 -0.0748  0.8613
 6452TIP3    H240772   5.930   3.440  13.738 -1.7917  1.3952  2.5301
 6453TIP3   OH240773   0.058   1.902  15.485  0.5709  0.4840  0.4650
 6453TIP3    H140774   0.058   1.959  15.562 -0.6791  1.7976 -0.4852
 6453TIP3    H240775   0.074   1.961  15.412 -0.3270 -0.4460 -0.4972
 6454TIP3   OH240776   1.152   2.122  14.532 -0.1936  0.0670 -0.2214
 6454TIP3    H140777   1.132   2.181  14.605  0.0943 -0.1598  0.0423
 6454TIP3    H240778   1.195   2.047  14.573 -0.1902 -0.1413 -0.6058
 6455TIP3   OH240779   1.557   2.792  14.859 -0.1220  0.4185 -0.4083
 6455TIP3    H140780   1.583   2.872  14.904 -0.9212  1.0054 -0.9623
 6455TIP3    H240781   1.483   2.759  14.910  0.8946 -0.5511  0.4348
 6456TIP3   OH240782   5.221   0.715  15.361  0.4412 -0.6284  0.3544
 6456TIP3    H140783   5.137   0.742  15.397 -0.8627 -2.9474 -0.7718
 6456TIP3    H240784   5.226   0.759  15.276  1.2449  0.9950  1.2403
 6457TIP3   OH240785   6.392   2.364  14.960  0.8005 -0.0757 -0.1072
 6457TIP3    H140786   6.363   2.375  15.051  1.3991 -1.8553  0.3082
 6457TIP3    H240787   6.312   2.378  14.908  0.1928 -0.2912  0.7595
 6458TIP3   OH240788   7.232   1.915  13.637 -1.0112  0.0157 -0.3057
 6458TIP3    H140789   7.137   1.930  13.632 -1.6268 -2.0332  3.1305
 6458TIP3    H240790   7.240   1.824  13.665  1.9441  0.6032  0.9859
 6459TIP3   OH240791   0.231   2.046  15.336  0.0866 -0.7431 -0.5798
 6459TIP3    H140792   0.265   2.031  15.424 -1.3496  0.8550  0.2736
 6459TIP3    H240793   0.302   2.017  15.278  0.7220 -2.5753  1.0575
 6460TIP3   OH240794   1.157   1.556  15.942  0.0278 -0.1322 -0.7177
 6460TIP3    H140795   1.122   1.572  16.030 -1.0739  2.8743 -1.6493
 6460TIP3    H240796   1.250   1.540  15.956 -0.4435 -1.5342  1.1411
 6461TIP3   OH240797   1.568   2.234  15.833  0.1089 -0.4599 -0.9195
 6461TIP3    H140798   1.537   2.279  15.755 -2.6559 -0.5435  0.1004
 6461TIP3    H240799   1.489   2.217  15.885  1.4988 -3.2080  0.4251
 6462TIP3   OH240800   0.113   1.741  14.936  0.1140 -0.0079 -0.0167
 6462TIP3    H140801   0.031   1.722  14.981 -0.0541  0.7669  0.0031
 6462TIP3    H240802   0.106   1.833  14.910  1.8557  0.6860  1.8598
 6463TIP3   OH240803   7.141   0.196  12.472 -0.3134 -0.5434 -0.1829
 6463TIP3    H140804   7.135   0.284  12.509  0.2931 -0.2181 -0.8591
 6463TIP3    H240805   7.216   0.199  12.414 -0.2090 -1.5512 -0.1111
 6464TIP3   OH240806   0.576   3.114  12.857 -0.1807  0.5047  0.0939
 6464TIP3    H140807   0.595   3.114  12.764 -0.2949  0.0598  0.0706
 6464TIP3    H240808   0.481   3.129  12.863 -0.5599 -1.6383  0.0470
 6465TIP3   OH240809   0.867   2.328  14.258 -0.4463  0.5525 -0.3134
 6465TIP3    H140810   0.934   2.361  14.318  0.0385 -0.2306 -0.4165
 6465TIP3    H240811   0.874   2.386  14.182 -0.7691  1.2777  0.2016
 6466TIP3   OH240812   0.491   2.853  15.574 -0.1162  0.3620  0.6544
 6466TIP3    H140813   0.399   2.876  15.560  0.2768  1.1970 -0.6078
 6466TIP3    H240814   0.532   2.935  15.600  0.2844  0.0018  1.1485
 6467TIP3   OH240815   4.056   0.290  12.948 -0.3019 -0.0318 -0.0808
 6467TIP3    H140816   3.982   0.235  12.975  0.3464  0.3401  2.6623
 6467TIP3    H240817   4.080   0.258  12.861 -2.7190 -1.1445 -0.3769
 6468TIP3   OH240818   2.116   1.958  14.652  0.0726  0.0855 -0.3731
 6468TIP3    H140819   2.081   1.982  14.565  1.1639  3.3088 -0.0107
 6468TIP3    H240820   2.102   2.036  14.705  1.0642 -1.2184  1.8651
 6469TIP3   OH240821   4.633   1.669  13.635  0.3756  0.6322 -0.0434
 6469TIP3    H140822   4.629   1.576  13.654  1.9979  0.6853  0.6362
 6469TIP3    H240823   4.714   1.680  13.585 -0.5040  1.4811 -1.3288
 6470TIP3   OH240824   0.518   1.460  14.780  0.0472 -0.0255  0.0164
 6470TIP3    H140825   0.461   1.524  14.823 -0.2842  0.1285 -0.6411
 6470TIP3    H240826   0.467   1.429  14.705 -0.9211 -3.1977  1.9353
 6471TIP3   OH240827   7.299   1.337   0.414  0.4235  0.4015  0.2848
 6471TIP3    H140828   7.381   1.295   0.387  0.5489  1.5561 -1.1792
 6471TIP3    H240829   7.263   1.374   0.333 -0.2984  2.0740  1.3449
 6472TIP3   OH240830   0.634   2.397  14.642 -0.2947  0.0696  0.3243
 6472TIP3    H140831   0.629   2.310  14.603 -1.7699 -0.0876  0.8207
 6472TIP3    H240832   0.563   2.399  14.706 -0.3913  1.6927  0.1961
 6473TIP3   OH240833   1.010   2.596  15.536 -0.6384 -0.2550 -0.8529
 6473TIP3    H140834   1.050   2.654  15.471  1.0695 -2.7238 -2.0594
 6473TIP3    H240835   1.058   2.615  15.617 -1.2218  1.1756 -0.8177
 6474TIP3   OH240836   2.488   2.183  15.088 -0.2741 -0.6086 -0.2379
 6474TIP3    H140837   2.503   2.138  15.005 -0.0429 -1.7479  0.4024
 6474TIP3    H240838   2.399   2.161  15.113  0.2145 -1.6896  0.6400
 6475TIP3   OH240839   5.948   1.446  15.852 -0.1408 -0.3398 -0.5553
 6475TIP3    H140840   5.874   1.493  15.814  1.0794  2.0557 -0.0546
 6475TIP3    H240841   6.025   1.481  15.806  1.0116 -0.1501  1.4724
 6476TIP3   OH240842   1.515   2.215  12.884 -0.2898  0.1335  0.1523
 6476TIP3    H140843   1.427   2.220  12.922 -0.5053  1.4625 -0.4748
 6476TIP3    H240844   1.517   2.131  12.838 -1.9694  0.9878 -1.5574
 6477TIP3   OH240845   6.756   2.481   0.202  0.2019  0.6748 -0.3405
 6477TIP3    H140846   6.756   2.573   0.228  0.5623  0.6609 -0.2920
 6477TIP3    H240847   6.723   2.434   0.279  1.0370  0.6570  0.0053
 6478TIP3   OH240848   1.823   0.218  12.746  0.8403  0.4493  0.1056
 6478TIP3    H140849   1.846   0.309  12.764 -1.4395  0.7542  1.6598
 6478TIP3    H240850   1.781   0.220  12.660  1.1110  0.8177 -0.0155
 6479TIP3   OH240851   0.041   2.023  15.771 -0.0859 -0.6180  0.1106
 6479TIP3    H140852   0.061   2.075  15.849  0.4163 -0.9206  0.1850
 6479TIP3    H240853  -0.041   1.978  15.793  0.4168 -1.2371  0.7218
 6480TIP3   OH240854   1.393   2.427  15.276  0.0089 -0.8528  0.1926
 6480TIP3    H140855   1.353   2.508  15.308  1.5422  1.0085 -2.4352
 6480TIP3    H240856   1.443   2.394  15.350 -0.5462  0.6489  1.2578
 6481TIP3   OH240857   5.181   1.094  10.632  0.0863 -0.2247  0.1524
 6481TIP3    H140858   5.239   1.163  10.600  0.1556 -0.2082  0.3116
 6481TIP3    H240859   5.098   1.138  10.650 -0.2496 -0.4118 -0.9143
 6482TIP3   OH240860   7.275   1.549  12.527 -0.1842  0.3114 -0.0844
 6482TIP3    H140861   7.314   1.559  12.441  0.0561  0.4795  0.0425
 6482TIP3    H240862   7.238   1.461  12.527  0.6879 -0.0606 -0.0132
 6483TIP3   OH240863   0.310   2.291  13.983 -0.3099  0.4985 -0.5405
 6483TIP3    H140864   0.296   2.253  14.069  0.0325  1.8844  0.1365
 6483TIP3    H240865   0.269   2.377  13.988  1.9370  1.6108 -0.9295
 6484TIP3   OH240866   5.983   7.209  14.666  0.1684  0.2499  0.2163
 6484TIP3    H140867   5.980   7.278  14.600 -0.1194 -0.9016 -1.0099
 6484TIP3    H240868   5.899   7.163  14.656  0.8661 -1.0386  0.1420
 6485TIP3   OH240869   1.094   4.220  15.239  0.2108  0.3172  0.3652
 6485TIP3    H140870   1.184   4.195  15.217  0.5220  1.9797 -0.3137
 6485TIP3    H240871   1.041   4.145  15.213  1.3922 -0.6924  0.7881
 6486TIP3   OH240872   2.365   6.861  14.637  0.2395  0.5147 -0.3520
 6486TIP3    H140873   2.282   6.899  14.610  0.5873  0.5925 -1.3252
 6486TIP3    H240874   2.357   6.768  14.617 -0.2928  0.1925  1.2488
 6487TIP3   OH240875   2.103   0.797  15.138  0.1295 -0.3273 -0.1291
 6487TIP3    H140876   2.049   0.875  15.148 -1.8064 -1.6849  0.1842
 6487TIP3    H240877   2.188   0.830  15.108 -0.8182  1.8357 -0.4789
 6488TIP3   OH240878   6.138   5.916  13.461  0.0601  0.8396 -0.7162
 6488TIP3    H140879   6.063   5.886  13.511 -0.7940  3.5292 -0.3187
 6488TIP3    H240880   6.125   5.879  13.373 -1.3535  0.7526 -0.4757
 6489TIP3   OH240881   7.099   6.283  13.776  0.4286  0.2869  0.9262
 6489TIP3    H140882   7.125   6.349  13.711 -0.0155  0.7083  1.1768
 6489TIP3    H240883   7.080   6.333  13.855  4.2983 -0.5025  2.4637
 6490TIP3   OH240884   6.684   0.372  14.679  0.0869 -0.0911  0.0958
 6490TIP3    H140885   6.742   0.401  14.750  1.2172 -0.7880 -0.5358
 6490TIP3    H240886   6.649   0.289  14.711  0.6036 -0.4100 -0.1658
 6491TIP3   OH240887   2.909   1.092  12.536 -0.0339 -0.1797 -0.0460
 6491TIP3    H140888   2.876   1.156  12.599 -0.7030  1.6647 -2.2024
 6491TIP3    H240889   2.860   1.012  12.554  0.9182 -0.1709  2.7966
 6492TIP3   OH240890   6.259   0.424  14.923 -0.0181  0.2832 -0.0131
 6492TIP3    H140891   6.172   0.429  14.963 -0.8834 -1.6471 -1.5440
 6492TIP3    H240892   6.320   0.439  14.995 -1.6029  0.1436  1.3884
 6493TIP3   OH240893   6.740   3.216  14.508 -0.0378  0.0027  0.4036
 6493TIP3    H140894   6.695   3.165  14.441 -1.3227  1.3483  0.2164
 6493TIP3    H240895   6.772   3.151  14.571  0.9801 -1.2459 -1.3829
 6494TIP3   OH240896   5.349   0.559  14.560 -0.5393 -0.6358  0.1174
 6494TIP3    H140897   5.396   0.483  14.527 -3.6972 -2.3839 -0.4904
 6494TIP3    H240898   5.363   0.627  14.494  1.0390 -1.1295 -0.0753
 6495TIP3   OH240899   1.288   2.502  14.991 -0.0940  0.3890  0.0480
 6495TIP3    H140900   1.341   2.487  15.069 -0.4258 -0.1278  0.1736
 6495TIP3    H240901   1.229   2.574  15.015  0.5372  0.9644 -0.0902
 6496TIP3   OH240902   1.034   1.224   3.141 -0.2269  0.3652 -0.6017
 6496TIP3    H140903   0.967   1.204   3.076 -1.9115  1.5584  0.7176
 6496TIP3    H240904   1.056   1.316   3.126  0.0834  0.3771 -0.0977
 6497TIP3   OH240905   7.083   6.019  13.580  0.3056 -0.0900  0.2197
 6497TIP3    H140906   7.076   5.969  13.498  1.0693 -0.5611  0.4361
 6497TIP3    H240907   7.036   6.101  13.562 -0.0629 -0.4480 -0.4845
 6498TIP3   OH240908   0.409   2.071  13.189  0.3717 -0.2910  0.1164
 6498TIP3    H140909   0.326   2.050  13.147  0.7578  0.2890 -0.9753
 6498TIP3    H240910   0.460   2.115  13.120  1.0610  0.5873  1.1675
 6499TIP3   OH240911   5.978   4.556   0.052  0.0477 -0.0595 -0.0067
 6499TIP3    H140912   6.009   4.468   0.031  0.6469 -0.0964  0.9538
 6499TIP3    H240913   5.927   4.545   0.132 -0.6233  0.3371 -0.3744
 6500TIP3   OH240914   1.957   2.538  15.488 -0.4783 -0.2608  0.1501
 6500TIP3    H140915   2.010   2.593  15.430  0.4318 -1.2845 -0.0072
 6500TIP3    H240916   2.021   2.485  15.535 -1.2430  0.0462  1.5820
 6501TIP3   OH240917   5.126   1.641  15.388 -0.5444  0.1988  0.1292
 6501TIP3    H140918   5.142   1.583  15.313  0.6382  0.4475  0.1854
 6501TIP3    H240919   5.083   1.585  15.453 -1.4396 -0.0548 -0.6673
 6502TIP3   OH240920   1.835   3.605  13.248 -0.1248 -0.3282 -0.5785
 6502TIP3    H140921   1.749   3.645  13.240 -0.2334 -0.7063 -1.4208
 6502TIP3    H240922   1.886   3.667  13.300 -0.7540  0.1344 -0.5103
 6503TIP3   OH240923   6.284   2.371   0.315  0.0552 -0.5370  0.0569
 6503TIP3    H140924   6.347   2.335   0.253  0.7195 -0.5309  0.7251
 6503TIP3    H240925   6.202   2.325   0.295  0.4338 -1.0393 -0.3581
 6504TIP3   OH240926   6.889   2.750   0.154 -0.4444  0.4333  0.0993
 6504TIP3    H140927   6.925   2.779   0.238  0.1529  0.4012 -0.1380
 6504TIP3    H240928   6.943   2.674   0.131  0.4786  1.4248 -1.1043
 6505TIP3   OH240929   2.696   1.320   2.540 -0.4894 -0.1101  0.0067
 6505TIP3    H140930   2.671   1.239   2.584 -0.6033 -0.2916 -0.3892
 6505TIP3    H240931   2.640   1.387   2.578 -1.8633 -0.5763 -1.1447
 6506TIP3   OH240932   0.538   1.055  12.988 -0.6308  0.4141 -0.3151
 6506TIP3    H140933   0.631   1.039  12.978 -0.1717  1.9585  1.2028
 6506TIP3    H240934   0.499   1.021  12.907  1.1835 -0.5923 -0.7938
 6507TIP3   OH240935   0.376   7.286  13.927  0.1709  0.1018 -0.2250
 6507TIP3    H140936   0.436   7.340  13.875  1.5327 -1.9139 -0.8538
 6507TIP3    H240937   0.408   7.294  14.017  0.3882  0.3131 -0.3206
 6508TIP3   OH240938   2.360   1.338   0.650 -0.1936  0.3131 -0.8478
 6508TIP3    H140939   2.266   1.321   0.654 -0.2349  0.5574 -0.8239
 6508TIP3    H240940   2.398   1.254   0.621 -0.4728  0.3874 -1.4223
 6509TIP3   OH240941   1.545   2.738  14.482 -0.1552  0.2825 -0.2475
 6509TIP3    H140942   1.461   2.781  14.464 -0.2881  0.2697  0.3480
 6509TIP3    H240943   1.544   2.659  14.427 -0.5792  0.2254 -0.1566
 6510TIP3   OH240944   2.325   7.147   0.308 -0.3771  0.1575 -0.1642
 6510TIP3    H140945   2.364   7.210   0.248 -1.3572  1.2894  0.3591
 6510TIP3    H240946   2.307   7.198   0.387 -2.7979 -0.3555 -0.3544
 6511TIP3   OH240947   6.846   0.796  14.689  0.4638  0.1844 -0.1402
 6511TIP3    H140948   6.754   0.773  14.681  0.3236  0.1990  1.4445
 6511TIP3    H240949   6.891   0.712  14.694  0.3370  0.1950  1.2786
 6512TIP3   OH240950   6.562   7.040  15.983 -0.0189  0.0632  0.2416
 6512TIP3    H140951   6.568   6.953  16.024 -0.1900 -1.0614 -2.0463
 6512TIP3    H240952   6.625   7.093  16.032  0.2114 -1.3878  1.5823
 6513TIP3   OH240953   5.766   3.563  14.259  0.2147  0.1063 -0.5898
 6513TIP3    H140954   5.795   3.605  14.178  1.8396 -0.8828 -0.5212
 6513TIP3    H240955   5.672   3.550  14.246  0.7203 -1.4887 -2.9930
 6514TIP3   OH240956   0.669   2.712  13.714 -0.3547 -0.0171  0.0607
 6514TIP3    H140957   0.704   2.713  13.803 -0.6880  0.4473  0.1900
 6514TIP3    H240958   0.607   2.639  13.713 -0.2259 -0.1284  0.1564
 6515TIP3   OH240959   1.118   0.738  14.546 -0.6516  0.2693  0.3825
 6515TIP3    H140960   1.083   0.774  14.464 -0.9032  0.1306  0.4290
 6515TIP3    H240961   1.121   0.644  14.531  0.8859  0.3623 -0.0847
 6516TIP3   OH240962   1.891   6.813  14.631  0.1402  0.2956  0.8352
 6516TIP3    H140963   1.830   6.845  14.697  1.1665 -0.3052  2.1192
 6516TIP3    H240964   1.868   6.721  14.619  1.5496 -0.2796  2.2644
 6517TIP3   OH240965   7.135   1.745   0.573 -0.1634  0.4134  0.5563
 6517TIP3    H140966   7.160   1.785   0.489 -1.1093  0.6747  0.3930
 6517TIP3    H240967   7.121   1.653   0.552  1.4204  0.1028  0.8095
 6518TIP3   OH240968   5.715   2.226   0.222  0.0599  0.5102 -0.6661
 6518TIP3    H140969   5.706   2.151   0.281 -0.1075 -0.2191 -1.6103
 6518TIP3    H240970   5.683   2.301   0.273  2.3454  0.3481  1.0975
 6519TIP3   OH240971   0.971   2.186   1.421 -0.5512  0.2312 -0.0313
 6519TIP3    H140972   0.890   2.141   1.397 -0.3374 -0.1798  0.0217
 6519TIP3    H240973   0.967   2.195   1.516 -2.0119  3.0187 -0.3035
 6520TIP3   OH240974   1.694   0.890   0.164 -0.1457 -0.2746 -0.1393
 6520TIP3    H140975   1.630   0.820   0.156  1.1964 -1.4377 -1.0565
 6520TIP3    H240976   1.779   0.845   0.158  0.7511  1.2387  0.8857
 6521TIP3   OH240977   1.770   0.492  15.551 -1.2136 -0.0715  0.5451
 6521TIP3    H140978   1.712   0.506  15.626  0.2673 -0.0931  1.7097
 6521TIP3    H240979   1.713   0.503  15.474 -2.1412  2.9311  1.5829
 6522TIP3   OH240980   0.433   6.136  15.348 -0.1296 -0.0793 -0.1429
 6522TIP3    H140981   0.469   6.053  15.380  0.2593 -0.0434 -0.4868
 6522TIP3    H240982   0.445   6.197  15.421 -1.2739 -0.5600  0.4579
 6523TIP3   OH240983   5.737   2.663   1.215  0.3183  0.3107 -0.5456
 6523TIP3    H140984   5.657   2.656   1.161 -0.1922  1.9909 -0.0379
 6523TIP3    H240985   5.802   2.701   1.156  0.1979  0.6936 -0.4368
 6524TIP3   OH240986   0.469   0.761  15.638  0.5481 -0.0616 -0.5310
 6524TIP3    H140987   0.388   0.802  15.667  1.1466  1.1628 -0.5353
 6524TIP3    H240988   0.504   0.718  15.716  0.6001  0.6157 -0.1696
 6525TIP3   OH240989   3.230   1.838  15.148  0.4452 -0.0373  0.1260
 6525TIP3    H140990   3.137   1.830  15.127  0.7799  0.2583 -1.6031
 6525TIP3    H240991   3.237   1.812  15.239 -1.3440 -0.0063  0.2860
 6526TIP3   OH240992   0.771   2.331  13.905  0.0507  0.3790 -0.4926
 6526TIP3    H140993   0.695   2.377  13.870 -0.4034 -0.9897 -1.3405
 6526TIP3    H240994   0.813   2.395  13.963 -2.3230  0.7866  0.8359
 6527TIP3   OH240995   0.660   1.198  11.317  0.0349 -0.1545  0.2585
 6527TIP3    H140996   0.574   1.159  11.305 -0.9049  1.6232  1.1396
 6527TIP3    H240997   0.704   1.142  11.381 -1.1444 -0.0094  1.1936
 6528TIP3   OH240998   5.979   2.706  14.402  0.0373  0.8099  0.0536
 6528TIP3    H140999   6.046   2.711  14.471  1.5393 -1.6800 -1.1691
 6528TIP3    H241000   5.920   2.637  14.431  0.2153  0.3115 -0.7626
 6529TIP3   OH241001   0.790   4.639   2.090  0.0816  0.0748  0.4540
 6529TIP3    H141002   0.800   4.580   2.015  0.3225 -0.7289  1.1114
 6529TIP3    H241003   0.804   4.727   2.054  0.7411 -0.3484 -0.3314
 6530TIP3   OH241004   2.323   3.157  14.924  0.1356 -0.0004 -0.1382
 6530TIP3    H141005   2.318   3.067  14.956 -1.7324  0.2673  0.3675
 6530TIP3    H241006   2.382   3.152  14.849 -0.5923 -1.8085 -0.6227
 6531TIP3   OH241007   3.325   2.384  14.796 -0.1614 -0.8250 -0.3486
 6531TIP3    H141008   3.258   2.451  14.809 -0.0955 -1.2308  2.2105
 6531TIP3    H241009   3.277   2.311  14.757 -1.2280 -1.0836  1.3999
 6532TIP3   OH241010   1.917   2.354  12.738 -0.3716 -0.1010  0.5466
 6532TIP3    H141011   1.977   2.308  12.680  0.7866  1.9703  0.0450
 6532TIP3    H241012   1.855   2.396  12.678 -0.9824 -0.4148  0.9604
 6533TIP3   OH241013   1.775   0.120  13.144  0.3624 -0.3667  0.2828
 6533TIP3    H141014   1.827   0.096  13.221  1.9190 -2.3732 -1.3378
 6533TIP3    H241015   1.729   0.039  13.121 -0.5215  0.3710 -0.5747
 6534TIP3   OH241016   1.594   0.787  14.576 -0.2136  0.2265 -0.2362
 6534TIP3    H141017   1.575   0.767  14.485 -1.6103 -2.1317  0.5359
 6534TIP3    H241018   1.684   0.757  14.589 -1.2253 -2.8550  0.0650
 6535TIP3   OH241019   1.731   0.982  13.987 -0.2012 -0.1185 -0.2681
 6535TIP3    H141020   1.789   1.037  13.935 -0.0328 -0.2248 -0.1917
 6535TIP3    H241021   1.760   0.993  14.077  0.7433 -1.4234 -0.3907
 6536TIP3   OH241022   0.160   1.392  13.423  0.3964  0.0732 -0.0368
 6536TIP3    H141023   0.120   1.479  13.422 -1.0771 -0.5914 -1.7352
 6536TIP3    H241024   0.129   1.350  13.343  2.5930 -1.3599 -0.1821
 6537TIP3   OH241025   2.144   1.022  11.100 -0.6676  0.2997  0.1679
 6537TIP3    H141026   2.134   1.105  11.053 -2.7022 -0.1093 -0.1685
 6537TIP3    H241027   2.125   0.955  11.034  0.5688 -0.4132  0.5376
 6538TIP3   OH241028   4.355   0.970  14.547 -0.7330  0.0647  0.4517
 6538TIP3    H141029   4.344   1.007  14.460 -1.0477  0.9253  0.8521
 6538TIP3    H241030   4.271   0.927  14.565 -1.1784  1.1183  0.9076
 6539TIP3   OH241031   0.558   6.506  14.200  0.7592  0.2982 -0.0827
 6539TIP3    H141032   0.538   6.500  14.294  1.9417  1.1956  0.2368
 6539TIP3    H241033   0.553   6.600  14.181  0.3248  0.1011 -0.9767
 6540TIP3   OH241034   7.243   0.293  15.106  0.2467  0.4572 -0.1042
 6540TIP3    H141035   7.220   0.385  15.091  1.1405  0.4689 -1.5338
 6540TIP3    H241036   7.308   0.295  15.176 -0.0502  0.8809  0.1598
 6541TIP3   OH241037   2.284   6.632  15.649  0.2962 -0.2309 -0.2788
 6541TIP3    H141038   2.361   6.632  15.706  0.1035 -0.9205 -0.0148
 6541TIP3    H241039   2.320   6.644  15.561  0.5579  1.2841  0.0323
 6542TIP3   OH241040   2.432   6.908  13.596  0.4020 -0.2184  0.5374
 6542TIP3    H141041   2.401   6.818  13.592  1.0733 -0.5087  1.6219
 6542TIP3    H241042   2.355   6.961  13.576  0.2990 -1.0656 -1.3586
 6543TIP3   OH241043   0.365   5.625  15.675 -0.4262 -0.3790 -0.4377
 6543TIP3    H141044   0.304   5.553  15.659  0.9071 -1.9492  1.2740
 6543TIP3    H241045   0.445   5.582  15.706  0.4535  1.8410  0.4738
 6544TIP3   OH241046   1.351   2.235  13.940 -0.1868  0.2159 -0.1938
 6544TIP3    H141047   1.259   2.210  13.945  0.2581 -1.3935  0.2147
 6544TIP3    H241048   1.384   2.191  13.861  0.6873 -0.7685  0.7094
 6545TIP3   OH241049   3.057   1.136  15.158 -0.2172 -0.3601  0.3666
 6545TIP3    H141050   3.113   1.193  15.105 -0.4769  0.0388  0.5187
 6545TIP3    H241051   3.064   1.050  15.116 -1.2284  0.1730 -0.9418
 6546TIP3   OH241052   5.186   0.563  15.843  0.1292  0.6236  0.3033
 6546TIP3    H141053   5.129   0.523  15.908  1.7250 -0.8665  0.8172
 6546TIP3    H241054   5.137   0.639  15.812 -0.7337  1.2544  3.0825
 6547TIP3   OH241055   0.406   0.061   0.015  0.4790  0.0548 -0.6139
 6547TIP3    H141056   0.394   0.011  -0.066  1.0571  0.1480 -0.7628
 6547TIP3    H241057   0.501   0.076   0.019  0.9559 -3.0792  1.9481
 6548TIP3   OH241058   6.607   0.738  15.237  0.3201  0.1037 -0.1407
 6548TIP3    H141059   6.666   0.806  15.204  1.0358 -0.0185  0.8660
 6548TIP3    H241060   6.664   0.677  15.284 -0.2250 -1.5973 -1.6671
 6549TIP3   OH241061   0.802   0.674  14.892  0.4409  0.1461 -0.3232
 6549TIP3    H141062   0.714   0.636  14.894  0.3726  0.3619  1.0725
 6549TIP3    H241063   0.809   0.713  14.805 -1.2453  1.0664 -0.0744
 6550TIP3   OH241064   2.162   1.496   0.409 -0.6444  0.3176  0.4340
 6550TIP3    H141065   2.069   1.480   0.390 -0.7147  0.7166  0.4394
 6550TIP3    H241066   2.164   1.522   0.501 -0.5349  0.3897  0.4112
 6551TIP3   OH241067   2.369   0.946   0.066  0.3001 -0.1390 -0.0343
 6551TIP3    H141068   2.366   0.862   0.021  0.9490 -1.0708  1.6345
 6551TIP3    H241069   2.435   0.935   0.134 -0.3967  1.3660  0.9208
 6552TIP3   OH241070   6.100   1.118  13.341 -0.2506 -0.4341 -0.5485
 6552TIP3    H141071   6.097   1.194  13.283 -0.2807  0.1462  0.2157
 6552TIP3    H241072   6.019   1.071  13.324 -0.6680  0.2124 -0.3236
 6553TIP3   OH241073   5.024   1.483  12.043  0.0123 -0.0334  0.0393
 6553TIP3    H141074   5.052   1.393  12.026  0.5678 -0.0340  0.9267
 6553TIP3    H241075   4.992   1.481  12.134 -0.5381  0.5294 -0.1406
 6554TIP3   OH241076   1.574   5.026  13.829 -0.3130 -0.8230  0.1732
 6554TIP3    H141077   1.628   5.059  13.901 -0.6298  1.4558 -0.6012
 6554TIP3    H241078   1.630   5.032  13.752 -0.8356 -0.8119 -0.2085
 6555TIP3   OH241079   7.101   0.324  14.748 -0.3700  0.2907 -0.0007
 6555TIP3    H141080   7.146   0.306  14.665  1.7189  0.8480  0.9646
 6555TIP3    H241081   7.116   0.245  14.801  0.1989  0.7920  0.6087
 6556TIP3   OH241082   6.438   2.341   0.826  0.7148  0.2720  0.3171
 6556TIP3    H141083   6.501   2.288   0.777 -1.2947 -1.2024 -0.7839
 6556TIP3    H241084   6.402   2.401   0.761 -0.7522 -0.5612  0.3311
 6557TIP3   OH241085   6.509   0.599  14.643  0.4831 -0.2305  0.2933
 6557TIP3    H141086   6.507   0.601  14.739  1.4852  0.3537  0.3115
 6557TIP3    H241087   6.567   0.525  14.622  1.6321  0.6832  0.1717
 6558TIP3   OH241088   6.378   0.430  15.390 -0.0806  0.1805  0.3352
 6558TIP3    H141089   6.364   0.464  15.479 -1.4418  1.4656 -0.3489
 6558TIP3    H241090   6.298   0.380  15.372  1.0032 -1.6759  0.5280
 6559TIP3   OH241091   2.795   2.279  12.565 -0.9009 -0.3220 -0.6857
 6559TIP3    H141092   2.889   2.298  12.565 -0.5849 -1.6355  1.2104
 6559TIP3    H241093   2.775   2.258  12.474  0.6792 -0.1392 -1.1038
 6560TIP3   OH241094   0.380   0.210   0.661  0.5591 -0.3690 -0.3043
 6560TIP3    H141095   0.307   0.270   0.649  1.5330  0.5827 -1.5641
 6560TIP3    H241096   0.381   0.191   0.755 -0.7857  0.2534 -0.1661
 6561TIP3   OH241097   6.505   3.841   0.258 -0.1549  0.0621 -0.2581
 6561TIP3    H141098   6.588   3.811   0.294  0.2328  0.7059 -0.6211
 6561TIP3    H241099   6.452   3.862   0.335 -0.0835 -0.6266 -0.0232
 6562TIP3   OH241100   1.534   3.391   1.333  0.2653  0.4172  0.1004
 6562TIP3    H141101   1.617   3.343   1.334  1.2902  2.0789 -0.7992
 6562TIP3    H241102   1.493   3.372   1.417 -0.1482 -3.3060 -0.8785
 6563TIP3   OH241103   2.465   2.468  13.734 -0.7908 -0.2039 -0.7602
 6563TIP3    H141104   2.424   2.528  13.795 -1.3983  0.0450 -1.4026
 6563TIP3    H241105   2.419   2.385  13.746  1.3581 -1.1279  1.5406
 6564TIP3   OH241106   5.809   2.305  13.831 -0.1981  0.0525 -0.0756
 6564TIP3    H141107   5.792   2.336  13.742  2.2414 -2.0531 -1.3565
 6564TIP3    H241108   5.843   2.381  13.877  0.3807  0.6944 -1.5226
 6565TIP3   OH241109   7.188   2.541  13.954 -0.7138  0.0808 -0.1953
 6565TIP3    H141110   7.159   2.450  13.949  1.0188 -0.5262  0.5984
 6565TIP3    H241111   7.282   2.538  13.938 -1.0469  2.0645 -2.9023
 6566TIP3   OH241112   5.908   2.758  14.941  0.4687  0.1028  0.1441
 6566TIP3    H141113   5.844   2.759  14.870  1.9024 -1.8419 -1.1971
 6566TIP3    H241114   5.985   2.802  14.905  0.5233  0.8838  1.1820
 6567TIP3   OH241115   0.384   0.638  15.340 -0.1851 -0.1628  0.9566
 6567TIP3    H141116   0.307   0.678  15.298  0.4779  0.3218  0.1923
 6567TIP3    H241117   0.386   0.677  15.428  0.5759  1.6759  0.1552
 6568TIP3   OH241118   0.735   0.491  13.543 -0.4115  0.5590  0.2826
 6568TIP3    H141119   0.648   0.526  13.562 -0.1891  0.7287  1.0211
 6568TIP3    H241120   0.720   0.398  13.528 -1.1562  1.1332 -2.7783
 6569TIP3   OH241121   0.396   1.690  12.474 -0.0446  0.0589  0.0158
 6569TIP3    H141122   0.379   1.783  12.490 -0.6826  0.0557 -0.5832
 6569TIP3    H241123   0.473   1.690  12.418 -0.7323  0.2945 -0.9565
 6570TIP3   OH241124   6.519   1.198  15.291  1.0581 -0.0957  0.8462
 6570TIP3    H141125   6.474   1.193  15.207  1.1153  0.8248  0.7555
 6570TIP3    H241126   6.506   1.112  15.330 -0.1581 -0.0726  0.5098
 6571TIP3   OH241127   3.719   6.295  14.572 -0.9707 -0.3130 -0.4373
 6571TIP3    H141128   3.624   6.287  14.574 -1.0779  0.8700  0.2267
 6571TIP3    H241129   3.736   6.381  14.611  0.3366 -0.2470 -1.1243
 6572TIP3   OH241130   7.061   1.244  15.312 -0.0021 -0.0525  0.4591
 6572TIP3    H141131   7.055   1.239  15.217 -1.4445 -0.9615  0.5810
 6572TIP3    H241132   6.992   1.305  15.338 -0.3039 -0.6178  0.9996
 6573TIP3   OH241133   3.414   1.303   0.849 -0.0041  0.6073 -1.0533
 6573TIP3    H141134   3.366   1.318   0.930 -0.6500 -1.0677 -1.1007
 6573TIP3    H241135   3.375   1.364   0.786 -1.2764  0.0948 -0.7758
 6574TIP3   OH241136   0.537   0.975  14.182 -0.7772 -0.2458 -0.2863
 6574TIP3    H141137   0.556   1.068  14.173  1.6540 -0.7795 -1.0895
 6574TIP3    H241138   0.489   0.952  14.101  0.1328 -0.0445 -0.8874
 6575TIP3   OH241139   0.497   0.203  14.678 -0.0782  0.0096 -0.1141
 6575TIP3    H141140   0.521   0.248  14.597  0.0199  0.2310  0.0385
 6575TIP3    H241141   0.444   0.267  14.726 -0.1595 -0.1314 -0.0148
 6576TIP3   OH241142   1.455   1.268  14.324  0.1294  0.2703  0.1948
 6576TIP3    H141143   1.425   1.303  14.240  0.4212  0.5853  0.2220
 6576TIP3    H241144   1.413   1.323  14.389  2.1099  1.8417  0.2109
 6577TIP3   OH241145   6.984   3.385  15.762 -0.5048  0.1385  0.3557
 6577TIP3    H141146   6.908   3.334  15.789  0.9561 -1.0107  2.4469
 6577TIP3    H241147   7.059   3.328  15.780  0.8339  0.9614 -2.3574
 6578TIP3   OH241148   1.223   6.634  13.482  0.4880  0.2333  0.4500
 6578TIP3    H141149   1.228   6.710  13.424 -0.5403 -0.7061 -0.9154
 6578TIP3    H241150   1.294   6.647  13.544  1.8623  1.1212 -1.2461
 6579TIP3   OH241151   7.055   0.396  13.924 -0.4039 -0.3304 -0.0361
 6579TIP3    H141152   6.963   0.415  13.943 -0.8703 -2.3946 -0.0613
 6579TIP3    H241153   7.096   0.385  14.010  0.3984  2.9705  0.0577
 6580TIP3   OH241154   5.203   3.757  12.105  0.5366 -0.8541  0.0993
 6580TIP3    H141155   5.249   3.733  12.024  1.5259 -2.4551  1.1026
 6580TIP3    H241156   5.256   3.719  12.175 -0.1625  0.7507  1.5307
 6581TIP3   OH241157   1.725   2.264  14.284  0.6563 -0.0930  0.7524
 6581TIP3    H141158   1.809   2.249  14.241 -0.3693 -0.7457 -1.0548
 6581TIP3    H241159   1.659   2.245  14.217 -0.9633 -0.3362  2.3686
 6582TIP3   OH241160   1.261   7.169  15.340 -0.2089  0.5744  1.0714
 6582TIP3    H141161   1.324   7.099  15.358 -0.6531 -0.0841  0.1016
 6582TIP3    H241162   1.306   7.227  15.279 -0.8661 -0.4139 -0.3894
 6583TIP3   OH241163   0.068   7.040  15.592 -0.1286  0.4023 -0.2702
 6583TIP3    H141164   0.080   7.118  15.538  1.2858  0.0292 -0.5104
 6583TIP3    H241165   0.133   7.048  15.661  1.6512 -1.6817 -1.6267
 6584TIP3   OH241166   0.289   1.142  13.581 -0.3074 -0.2447 -0.1061
 6584TIP3    H141167   0.239   1.224  13.585  0.9850  0.4797  1.9197
 6584TIP3    H241168   0.313   1.124  13.671  2.7104 -0.8101 -0.9808
 6585TIP3   OH241169   1.203   1.756  14.900 -0.1322  0.1626 -0.2172
 6585TIP3    H141170   1.134   1.772  14.836 -0.6886  1.0086  0.5845
 6585TIP3    H241171   1.243   1.842  14.914  0.0278 -0.0286  0.5134
 6586TIP3   OH241172   5.287   2.178   0.120 -1.0809  0.9901  0.2302
 6586TIP3    H141173   5.220   2.110   0.126  0.7183 -0.8095  0.2065
 6586TIP3    H241174   5.280   2.210   0.030  0.1116 -1.3418 -0.7259
 6587TIP3   OH241175   0.990   1.612  15.203  0.4141  0.3512 -0.1533
 6587TIP3    H141176   1.062   1.635  15.261  0.6220 -0.2017 -0.1886
 6587TIP3    H241177   0.928   1.684  15.211  0.4586  0.2938  0.7207
 6588TIP3   OH241178   1.948   6.854  14.962 -0.1540 -0.5116 -0.0807
 6588TIP3    H141179   1.898   6.860  15.044 -0.8700 -1.1258 -0.4645
 6588TIP3    H241180   1.953   6.944  14.930 -1.4011 -0.4943 -0.2567
 6589TIP3   OH241181   2.868   1.006  14.097  0.8468 -0.1370 -0.0619
 6589TIP3    H141182   2.880   0.924  14.145 -2.0040 -0.3022  0.4743
 6589TIP3    H241183   2.869   0.980  14.005  0.4795 -0.7198  0.0924
 6590TIP3   OH241184   0.594   0.613  12.876  0.0971  0.2550  0.1237
 6590TIP3    H141185   0.682   0.637  12.846 -0.3639  2.0011  0.1183
 6590TIP3    H241186   0.562   0.552  12.809  1.7621 -1.3753  0.7699
 6591TIP3   OH241187   2.282   0.804  14.487 -0.0680 -0.1696 -0.4765
 6591TIP3    H141188   2.271   0.734  14.423  0.9857 -1.2975  0.5577
 6591TIP3    H241189   2.375   0.803  14.509 -0.3418  0.4576  0.7783
 6592TIP3   OH241190   1.640   6.493  14.164 -0.2503 -0.0072  0.0084
 6592TIP3    H141191   1.545   6.508  14.167 -0.0953  0.7408  1.4758
 6592TIP3    H241192   1.679   6.577  14.189  0.7820 -0.5893  0.3934
 6593TIP3   OH241193   0.498   2.176  14.502 -0.4316  0.5379  0.6392
 6593TIP3    H141194   0.404   2.194  14.500 -0.2915  1.2761  0.6531
 6593TIP3    H241195   0.528   2.198  14.414 -0.3616 -0.2316  0.4627
 6594TIP3   OH241196   2.846   2.156  14.825 -0.1614  0.7137  0.0122
 6594TIP3    H141197   2.920   2.170  14.766 -1.6717  1.1445 -1.8388
 6594TIP3    H241198   2.847   2.232  14.883  1.2783  0.3419  0.4986
 6595TIP3   OH241199   1.871   1.774  14.562  0.0914  0.0870  0.8620
 6595TIP3    H141200   1.794   1.729  14.595  0.6325 -0.6761  1.0936
 6595TIP3    H241201   1.916   1.805  14.641 -2.1921  4.3002  0.6366
 6596TIP3   OH241202   0.850   1.164  14.344 -0.4766 -0.1148 -0.3663
 6596TIP3    H141203   0.835   1.071  14.328  0.6273 -0.1611 -1.1834
 6596TIP3    H241204   0.766   1.198  14.373 -0.5882 -1.6334  1.1516
 6597TIP3   OH241205   2.239   0.089  13.910  0.0152  0.3304  0.0402
 6597TIP3    H141206   2.298   0.158  13.942 -0.7929  0.2028  1.8273
 6597TIP3    H241207   2.230   0.108  13.816  1.5275  1.3707  0.0856
 6598TIP3   OH241208   0.432   5.996  14.628 -0.0678 -0.7624  0.0186
 6598TIP3    H141209   0.349   6.024  14.590  0.6739  0.8980 -0.4322
 6598TIP3    H241210   0.460   5.923  14.574 -0.1544  0.0981 -1.2035
 6599TIP3   OH241211   4.161   0.034  14.836  0.5226  0.6850  0.2279
 6599TIP3    H141212   4.116  -0.010  14.909 -0.6802  0.5626 -0.5756
 6599TIP3    H241213   4.099   0.029  14.763  2.2612 -0.4505 -1.2203
 6600TIP3   OH241214   3.503   0.848  14.030  0.1862 -0.4072  0.1381
 6600TIP3    H141215   3.553   0.926  14.008 -2.9077  1.6725  0.1488
 6600TIP3    H241216   3.471   0.815  13.946 -0.4132 -0.3300  0.3338
 6601TIP3   OH241217   1.169   1.871  13.308  0.0211  0.0384  0.2052
 6601TIP3    H141218   1.077   1.858  13.332 -0.2627  0.3517 -0.6631
 6601TIP3    H241219   1.206   1.783  13.304 -0.5972 -0.1847 -0.7729
 6602TIP3   OH241220   4.636   6.745  15.229 -0.4682 -0.4161  0.5220
 6602TIP3    H141221   4.659   6.714  15.316  2.4413 -0.5296 -0.2342
 6602TIP3    H241222   4.615   6.838  15.241 -1.2165 -0.7094  1.5109
 6603TIP3   OH241223   6.558   7.033  14.144  0.0701  0.2931  0.3220
 6603TIP3    H141224   6.651   7.056  14.153  0.4689 -0.9894 -0.4774
 6603TIP3    H241225   6.513   7.099  14.196  1.3588  1.5376 -0.0975
 6604TIP3   OH241226   1.224   0.548  13.343  0.7505  0.5485  0.3166
 6604TIP3    H141227   1.263   0.527  13.258  0.5539 -1.4355  0.7103
 6604TIP3    H241228   1.131   0.559  13.325  0.8957  1.3759  0.0611
 6605TIP3   OH241229   0.448   1.065  14.471 -0.7180 -0.6228 -0.4694
 6605TIP3    H141230   0.458   1.045  14.378 -1.1615 -1.4894 -0.3415
 6605TIP3    H241231   0.504   1.141  14.486  1.8655 -2.3799 -0.7746
 6606TIP3   OH241232   4.527   2.891  15.338 -0.6149 -0.1102 -0.0234
 6606TIP3    H141233   4.561   2.818  15.287 -0.0249  0.2516 -0.1599
 6606TIP3    H241234   4.434   2.895  15.317 -0.3556  0.1086 -1.1504
 6607TIP3   OH241235   0.834   2.408  15.463 -0.4839 -0.1483 -0.3796
 6607TIP3    H141236   0.900   2.473  15.488 -1.1948 -0.3062  1.9651
 6607TIP3    H241237   0.792   2.446  15.385  0.3919  1.2939 -0.1775
 6608TIP3   OH241238   1.080   7.128  12.769 -0.9126  0.1817  0.1607
 6608TIP3    H141239   0.989   7.122  12.740 -1.0975 -3.2475  1.2119
 6608TIP3    H241240   1.079   7.090  12.857  1.6717 -0.8173 -0.2031
 6609TIP3   OH241241   1.696   2.552  15.409 -0.0205 -0.5926  0.0787
 6609TIP3    H141242   1.783   2.548  15.449 -0.3370 -0.7016  0.7592
 6609TIP3    H241243   1.670   2.644  15.417  0.7160 -0.2250 -1.6000
 6610TIP3   OH241244   5.745   7.140  15.727  0.3949 -0.2218 -0.3932
 6610TIP3    H141245   5.833   7.104  15.729  0.4208 -0.1963 -1.2407
 6610TIP3    H241246   5.688   7.065  15.708  0.2430 -0.2107  0.0018
 6611TIP3   OH241247   4.624   2.014  14.236  0.9826 -0.2661  0.0058
 6611TIP3    H141248   4.599   2.106  14.234  2.0806  0.0383 -0.0784
 6611TIP3    H241249   4.604   1.982  14.148  1.6548  0.1886 -0.3194
 6612TIP3   OH241250   3.877   0.536  14.073 -0.4178  0.1009  0.1924
 6612TIP3    H141251   3.898   0.461  14.017 -1.2517  1.1823 -1.6255
 6612TIP3    H241252   3.818   0.589  14.020 -0.5171  1.6161  1.7891
 6613TIP3   OH241253   1.467   1.036  15.590  0.0346 -0.5938 -0.3050
 6613TIP3    H141254   1.528   1.101  15.626 -0.1761 -0.4884 -0.1358
 6613TIP3    H241255   1.397   1.031  15.655 -0.0723 -0.8092 -0.4372
 6614TIP3   OH241256   0.564   0.239  15.377  0.2586  0.5479  0.2547
 6614TIP3    H141257   0.566   0.145  15.359 -0.6301  0.3072  1.3396
 6614TIP3    H241258   0.651   0.258  15.414 -0.0159 -0.1129  1.2581
 6615TIP3   OH241259   3.405   6.825  14.804  0.4703 -0.6099  0.8404
 6615TIP3    H141260   3.473   6.838  14.737  0.8667 -1.3241  1.0907
 6615TIP3    H241261   3.406   6.730  14.820  2.5995 -0.0973  4.1330
 6616TIP3   OH241262   2.810   6.435  14.757 -0.1728  0.2815  0.0024
 6616TIP3    H141263   2.887   6.382  14.776 -0.1069  0.3291 -0.1326
 6616TIP3    H241264   2.823   6.465  14.667 -0.1758  0.5858  0.1032
 6617TIP3   OH241265   1.519   1.145  12.981  0.7427 -0.2090  0.0280
 6617TIP3    H141266   1.556   1.145  13.070  0.0719 -1.5360  0.3165
 6617TIP3    H241267   1.436   1.098  12.989 -1.2792  3.0770 -0.5328
 6618TIP3   OH241268   4.684   2.600  14.468 -0.0029 -0.7346 -0.1675
 6618TIP3    H141269   4.697   2.692  14.493  2.6700 -1.2760  0.6139
 6618TIP3    H241270   4.765   2.577  14.422 -0.9528 -2.4956 -0.9603
 6619TIP3   OH241271   1.899   7.218  10.847 -0.1464  0.1883 -0.0485
 6619TIP3    H141272   1.892   7.127  10.818  0.7155  0.3740 -0.8553
 6619TIP3    H241273   1.926   7.266  10.769 -1.2660  1.2470  0.2169
 6620TIP3   OH241274   4.961   2.634   0.509 -0.5226  0.2423 -0.1921
 6620TIP3    H141275   4.916   2.696   0.451 -0.3763  1.0880  0.5949
 6620TIP3    H241276   4.925   2.549   0.484  0.5717  0.4171 -2.5037
 6621TIP3   OH241277   2.225   7.017  12.481 -0.3675  0.1125  0.3869
 6621TIP3    H141278   2.162   7.041  12.549  0.4109  2.0836  0.4607
 6621TIP3    H241279   2.194   6.933  12.447 -0.9467 -0.7502  2.9533
 6622TIP3   OH241280   2.296   1.820  13.907 -0.5075  0.8070 -0.0741
 6622TIP3    H141281   2.262   1.787  13.824  0.0404  0.2147 -0.0692
 6622TIP3    H241282   2.238   1.784  13.973  0.1137 -0.1929 -0.0668
 6623TIP3   OH241283   2.231   1.529  15.948 -0.2163 -0.0974  0.0808
 6623TIP3    H141284   2.267   1.573  15.871  0.3514  3.8816  2.4552
 6623TIP3    H241285   2.144   1.502  15.922 -0.7916  2.9651 -1.4402
 6624TIP3   OH241286   4.105   0.671   0.230  1.1033 -0.6141  0.2726
 6624TIP3    H141287   4.057   0.598   0.270  0.5490  0.1068  0.9484
 6624TIP3    H241288   4.040   0.742   0.225  1.0895 -0.7572 -2.1398
 6625TIP3   OH241289   1.747   6.829  13.979  0.3085  0.2761  0.3286
 6625TIP3    H141290   1.706   6.908  14.014  0.3870  1.1727 -1.4919
 6625TIP3    H241291   1.699   6.811  13.898  1.7357 -0.2319 -0.4402
 6626TIP3   OH241292   3.333   7.240  13.311 -0.0224  0.1630  0.7976
 6626TIP3    H141293   3.398   7.179  13.277 -0.3763 -0.0426  0.4835
 6626TIP3    H241294   3.297   7.196  13.389 -1.2684 -0.6543 -0.2278
 6627TIP3   OH241295   2.104   0.880  13.896 -0.0631 -0.3781  0.2678
 6627TIP3    H141296   2.164   0.883  13.970 -0.3249  0.1276  0.4574
 6627TIP3    H241297   2.161   0.877  13.819  0.2357  2.5527  0.3288
 6628TIP3   OH241298   2.976   1.999  13.032 -0.0968 -0.4208  0.2347
 6628TIP3    H141299   3.066   2.018  13.005 -0.7981 -0.8648 -2.5634
 6628TIP3    H241300   2.929   2.082  13.018 -0.5885 -0.8124 -0.4970
 6629TIP3   OH241301   0.159   6.582  11.641 -0.2122  0.4970 -0.1249
 6629TIP3    H141302   0.216   6.506  11.637 -0.9569 -0.0386 -0.9005
 6629TIP3    H241303   0.218   6.657  11.644  0.5230 -0.0672 -0.4629
 6630TIP3   OH241304   4.050   0.850  12.475 -0.5804  0.7649  0.0465
 6630TIP3    H141305   4.030   0.939  12.446 -0.1406  0.7705 -0.2487
 6630TIP3    H241306   3.972   0.821  12.522 -0.6495  1.3727  0.2994
 6631TIP3   OH241307   1.881   7.250  12.750  0.0523 -0.2233  0.1208
 6631TIP3    H141308   1.798   7.206  12.731  0.7043 -1.2470 -0.3842
 6631TIP3    H241309   1.855   7.338  12.779 -1.2721 -0.9728  1.2639
 6632TIP3   OH241310   1.647   0.039  12.128 -0.1598  0.0733  0.3124
 6632TIP3    H141311   1.741   0.045  12.112 -0.1542  2.4757  1.1093
 6632TIP3    H241312   1.608   0.032  12.041  0.5442  2.4631 -0.2134
 6633TIP3   OH241313   2.421   1.808   0.585  0.7321 -0.5720 -0.3586
 6633TIP3    H141314   2.374   1.877   0.538 -0.4625 -0.4456  0.9850
 6633TIP3    H241315   2.473   1.764   0.518  0.1340  0.4988 -1.5382
 6634TIP3   OH241316   1.687   2.843  15.707  0.5332 -0.1420  0.5969
 6634TIP3    H141317   1.627   2.797  15.767  1.3236  0.8187  2.1697
 6634TIP3    H241318   1.771   2.799  15.718  0.3816 -0.8318 -0.8520
 6635TIP3   OH241319   3.045   7.177   0.175  0.0570  0.4528 -0.3272
 6635TIP3    H141320   3.110   7.246   0.160 -0.0096  1.6149  4.1939
 6635TIP3    H241321   2.960   7.220   0.163  0.0440  0.3255 -0.7063
 6636TIP3   OH241322   2.266   4.029  13.368 -0.9246 -0.1513  0.0987
 6636TIP3    H141323   2.341   3.994  13.320 -1.8458 -0.1450 -1.3722
 6636TIP3    H241324   2.215   3.951  13.392 -0.1553 -0.2053  1.6328
 6637TIP3   OH241325   4.135   5.241  13.935 -0.4556  0.0988  0.3148
 6637TIP3    H141326   4.209   5.276  13.885  0.4865 -2.0471  0.1392
 6637TIP3    H241327   4.112   5.311  13.996  0.1187  1.7294 -1.3233
 6638TIP3   OH241328   2.761   2.140  13.676  0.6309 -0.2978 -0.4269
 6638TIP3    H141329   2.665   2.139  13.670  0.5473  2.1088  0.3389
 6638TIP3    H241330   2.782   2.071  13.740 -0.6507 -0.0004  0.3230
 6639TIP3   OH241331   4.807   1.699  10.941  0.0281  0.1688  0.1381
 6639TIP3    H141332   4.868   1.766  10.908  1.4487 -2.0329 -1.8472
 6639TIP3    H241333   4.855   1.656  11.011 -1.6833  2.5360  2.8689
 6640TIP3   OH241334   2.336   0.014  13.448 -0.0066 -0.4459 -0.6226
 6640TIP3    H141335   2.430  -0.006  13.444 -0.2399 -1.4348 -1.4264
 6640TIP3    H241336   2.315   0.049  13.362 -0.7102 -1.7775 -1.0059
 6641TIP3   OH241337   2.206   0.328  14.603 -0.1395  0.3338 -0.3047
 6641TIP3    H141338   2.195   0.264  14.532  0.3230 -0.4507  0.3193
 6641TIP3    H241339   2.261   0.396  14.566 -0.7108  0.4158 -1.0103
 6642TIP3   OH241340   0.398   0.891  13.963 -0.0425  0.2145  0.0995
 6642TIP3    H141341   0.306   0.914  13.950 -1.3999 -3.0381  3.1039
 6642TIP3    H241342   0.409   0.810  13.913  1.0528  0.2787  0.2399
 6643TIP3   OH241343   2.755   6.629  13.303  0.4818  0.0181  0.6655
 6643TIP3    H141344   2.732   6.612  13.212 -1.0907  0.5745  0.9463
 6643TIP3    H241345   2.788   6.545  13.335  2.4719  0.2012 -0.8141
 6644TIP3   OH241346   3.854   6.418  13.475  0.7047 -0.6082  0.2399
 6644TIP3    H141347   3.761   6.402  13.458  0.3606  0.1769  1.3171
 6644TIP3    H241348   3.899   6.346  13.431 -0.4003 -0.8492 -0.5145
 6645TIP3   OH241349   3.123   7.247  14.759  0.0780 -0.7090 -0.0781
 6645TIP3    H141350   3.158   7.311  14.821 -0.4435  0.6305 -1.1584
 6645TIP3    H241351   3.028   7.254  14.768  0.0236 -1.4744 -0.0558
 6646TIP3   OH241352   2.180   1.200  13.721  0.5052  0.2449  0.2150
 6646TIP3    H141353   2.244   1.243  13.777 -1.1158  0.9353  1.5674
 6646TIP3    H241354   2.150   1.269  13.661  2.0897 -0.4410 -1.3924
 6647TIP3   OH241355   2.921   5.569  12.016  0.0252  0.1327  0.1147
 6647TIP3    H141356   2.854   5.527  12.070  1.3347 -1.1681  0.7631
 6647TIP3    H241357   2.922   5.518  11.935  1.1764 -0.6918  0.6489
 6648TIP3   OH241358   2.760   1.409   0.887  0.3459  0.0021 -0.4417
 6648TIP3    H141359   2.789   1.327   0.926 -0.9265 -0.1491  0.2324
 6648TIP3    H241360   2.689   1.439   0.945  0.4438  1.2982 -0.9767
 6649TIP3   OH241361   6.117   2.179  15.108 -0.6651  0.1908  0.3220
 6649TIP3    H141362   6.082   2.165  15.019 -1.1433  0.9570  0.3834
 6649TIP3    H241363   6.121   2.092  15.146  0.3734 -0.2433 -0.7641
 6650TIP3   OH241364   2.855   2.948  12.412  0.8349 -0.4423  0.0949
 6650TIP3    H141365   2.822   2.864  12.445  1.0232 -0.2939  0.6662
 6650TIP3    H241366   2.817   2.956  12.324 -0.8864 -0.1574  0.8383
 6651TIP3   OH241367   3.861   2.296  14.767 -0.0374  0.5720  0.4922
 6651TIP3    H141368   3.871   2.368  14.829  1.3670 -1.2706  2.4592
 6651TIP3    H241369   3.797   2.238  14.809  1.7867 -1.2595  0.8023
 6652TIP3   OH241370   1.731   0.114  14.055  0.0011  0.1872  0.1866
 6652TIP3    H141371   1.823   0.101  14.032 -0.0111  0.7116 -0.1769
 6652TIP3    H241372   1.687   0.127  13.971 -0.6298 -1.3783  0.2622
 6653TIP3   OH241373   6.795   7.048  13.692  0.0497  0.0566  0.1031
 6653TIP3    H141374   6.850   7.124  13.676 -1.0310  0.7333 -0.4969
 6653TIP3    H241375   6.830   7.008  13.772  1.1365  0.7004 -0.0543
 6654TIP3   OH241376   1.631   1.421   0.532 -0.0196 -0.6618 -0.5981
 6654TIP3    H141377   1.614   1.344   0.478  1.2647 -0.3317 -1.5119
 6654TIP3    H241378   1.727   1.423   0.541 -0.0536  0.7009 -0.4364
 6655TIP3   OH241379   0.990   2.114  14.937 -0.5111  0.8576  0.0298
 6655TIP3    H141380   1.026   2.120  15.025 -0.6003 -1.4052  0.2480
 6655TIP3    H241381   1.060   2.145  14.880  0.1173  0.8348  0.7843
 6656TIP3   OH241382   6.337   1.507  14.711 -0.1241  0.1703  0.3961
 6656TIP3    H141383   6.341   1.596  14.747  0.4955  0.5694 -0.6433
 6656TIP3    H241384   6.315   1.519  14.619  1.7993 -0.6405 -0.2037
 6657TIP3   OH241385   3.664   2.092  14.877 -0.3220  0.3044  0.7877
 6657TIP3    H141386   3.718   2.017  14.904 -1.0970 -0.7798 -0.5877
 6657TIP3    H241387   3.644   2.137  14.959  1.1588 -0.3012  1.5142
 6658TIP3   OH241388   0.912   0.075  14.944  0.3524  0.0555  0.4093
 6658TIP3    H141389   0.824   0.071  14.907 -0.1121  0.5137  1.4752
 6658TIP3    H241390   0.900   0.105  15.034  1.4817 -1.0470  0.9462
 6659TIP3   OH241391   1.352   0.024  13.737 -0.2998 -0.0934 -0.0680
 6659TIP3    H141392   1.364   0.081  13.661  0.5915 -1.6317 -1.1027
 6659TIP3    H241393   1.258   0.007  13.739 -0.6882  1.9499  0.6708
 6660TIP3   OH241394   1.500   0.459  13.093  0.0627 -0.7999 -0.5225
 6660TIP3    H141395   1.534   0.408  13.020  1.8478  0.0228 -0.2919
 6660TIP3    H241396   1.507   0.550  13.063  0.2991 -0.4969  0.4505
 6661TIP3   OH241397   0.446   0.487  12.669  0.0472  0.0214  0.3822
 6661TIP3    H141398   0.354   0.489  12.640  0.1642  1.4223  0.0623
 6661TIP3    H241399   0.450   0.414  12.730 -0.2824 -2.9301 -2.9166
 6662TIP3   OH241400   2.563   0.609  15.034 -0.2233  0.2878 -0.8511
 6662TIP3    H141401   2.641   0.664  15.040 -0.4568  0.4607  0.7211
 6662TIP3    H241402   2.596   0.523  15.007  0.5738  0.2263  0.3112
 6663TIP3   OH241403   3.050   0.358  13.923  0.4230 -0.2161  0.0694
 6663TIP3    H141404   3.054   0.323  13.833 -0.0004  3.1761 -1.3462
 6663TIP3    H241405   3.126   0.319  13.967 -0.8231 -4.0190 -0.9104
 6664TIP3   OH241406   1.374   2.534   0.314 -0.3618  0.4585  0.1504
 6664TIP3    H141407   1.288   2.507   0.280  0.1892 -0.0679 -0.8533
 6664TIP3    H241408   1.354   2.604   0.376 -1.4359  1.0667 -0.8495
 6665TIP3   OH241409   1.875   6.937  13.742  0.1696  0.1264  0.3868
 6665TIP3    H141410   1.937   6.865  13.730  2.0436  1.6186  0.8685
 6665TIP3    H241411   1.792   6.902  13.709  1.4406 -1.6117 -1.1259
 6666TIP3   OH241412   2.459   1.469  15.574  0.1630  0.0577  0.5971
 6666TIP3    H141413   2.539   1.445  15.527 -1.4827  0.0487 -2.3046
 6666TIP3    H241414   2.402   1.392  15.565 -0.4114  0.2921  2.1285
 6667TIP3   OH241415   1.155   5.735  15.240  0.1096 -0.6989 -0.2680
 6667TIP3    H141416   1.196   5.764  15.158  0.3499  0.3975  0.2319
 6667TIP3    H241417   1.075   5.786  15.247  0.3770 -0.3694  0.4676
 6668TIP3   OH241418   3.158   4.213  14.070  0.3714  0.3315 -1.0883
 6668TIP3    H141419   3.208   4.290  14.099 -0.4441 -0.0410  1.4326
 6668TIP3    H241420   3.067   4.237  14.086  0.1272 -1.2652  0.0232
 6669TIP3   OH241421   4.611   2.201   1.343  0.1658 -0.3050  0.2866
 6669TIP3    H141422   4.592   2.110   1.321  0.5299 -0.2184 -0.3828
 6669TIP3    H241423   4.628   2.200   1.437  2.9971 -1.3956 -0.1852
 6670TIP3   OH241424   2.424   1.518  12.071 -0.4044 -0.3362  0.3382
 6670TIP3    H141425   2.501   1.536  12.016 -0.7011  0.4072  0.1548
 6670TIP3    H241426   2.354   1.499  12.008  0.2280 -3.6201  0.5451
 6671TIP3   OH241427   2.979   0.004  14.321  0.3939  0.2449 -0.0585
 6671TIP3    H141428   2.982  -0.020  14.229  0.9398  0.7959 -0.1924
 6671TIP3    H241429   2.940   0.092  14.321  2.1255  1.0266  0.0650
 6672TIP3   OH241430   1.691   6.686  12.593  0.0005 -0.0952  0.1746
 6672TIP3    H141431   1.728   6.655  12.676 -0.5375 -0.2847  0.3391
 6672TIP3    H241432   1.696   6.782  12.599  3.5936 -0.1055 -1.1850
 6673TIP3   OH241433   6.755   2.133  14.491 -0.2296  0.2155 -0.2460
 6673TIP3    H141434   6.661   2.143  14.511 -0.3555  0.6237 -1.0114
 6673TIP3    H241435   6.765   2.174  14.405  0.8638  1.1607  0.3282
 6674TIP3   OH241436   1.964   1.538  13.324 -0.2314  0.0521 -0.4695
 6674TIP3    H141437   2.008   1.618  13.294  1.9989 -0.6091  0.9734
 6674TIP3    H241438   1.912   1.566  13.399  1.6853 -0.0699  0.9512
 6675TIP3   OH241439   0.969   0.517  15.561  0.3280  0.2426  0.3890
 6675TIP3    H141440   0.909   0.539  15.490  0.0640 -0.6657  0.3178
 6675TIP3    H241441   0.932   0.562  15.637  0.5289  1.0955 -0.0152
 6676TIP3   OH241442   1.815   0.359   1.718 -0.1858 -0.3233 -0.1913
 6676TIP3    H141443   1.809   0.279   1.665  2.1263 -0.6942  0.0309
 6676TIP3    H241444   1.812   0.430   1.654 -0.5596 -0.6491 -0.5406
 6677TIP3   OH241445   2.954   2.649  13.735  0.1216  0.3000 -0.2647
 6677TIP3    H141446   2.890   2.594  13.690  0.2483  0.5315 -0.7308
 6677TIP3    H241447   3.030   2.652  13.676  0.4599  0.2442  0.1635
 6678TIP3   OH241448   1.904   6.573  13.520 -0.0827 -0.1746  0.3766
 6678TIP3    H141449   1.812   6.556  13.501 -0.2850  0.0092  1.1438
 6678TIP3    H241450   1.943   6.486  13.526 -0.2152 -0.2552  0.0843
 6679TIP3   OH241451   2.966   2.768  14.612  0.6395 -0.4527 -0.8058
 6679TIP3    H141452   2.981   2.836  14.677  1.9685 -0.9101 -0.6202
 6679TIP3    H241453   2.898   2.803  14.555  2.4113  1.6958 -1.6728
 6680TIP3   OH241454   3.289   6.663  13.910  0.6888 -0.0640  0.0006
 6680TIP3    H141455   3.288   6.573  13.943  0.0738 -0.1081 -0.1419
 6680TIP3    H241456   3.364   6.665  13.850  2.2265  0.2109  1.8898
 6681TIP3   OH241457   2.880   4.317  14.118  0.1290  0.0782  0.0846
 6681TIP3    H141458   2.836   4.261  14.054 -2.2478 -0.3406  2.0257
 6681TIP3    H241459   2.856   4.280  14.203  2.5712  1.1109  1.2626
 6682TIP3   OH241460   1.414   4.015  15.471  0.6902  0.7735  0.0914
 6682TIP3    H141461   1.447   3.971  15.393  3.9725  0.5969  1.4973
 6682TIP3    H241462   1.427   3.952  15.542  1.4458  2.3558  1.4167
 6683TIP3   OH241463   1.611   1.773  12.507 -0.3883 -0.1530  0.3574
 6683TIP3    H141464   1.640   1.756  12.597 -2.2307 -0.9085  0.8213
 6683TIP3    H241465   1.668   1.719  12.453 -1.4743 -2.3164  1.3248
 6684TIP3   OH241466   1.387   6.979  13.897 -0.2372  0.5600  0.4212
 6684TIP3    H141467   1.331   7.023  13.961 -0.8742 -0.5405  0.6284
 6684TIP3    H241468   1.328   6.921  13.849  0.6680 -0.3709  0.4255
 6685TIP3   OH241469   0.873   0.934  13.081  0.3996 -0.0414 -0.0908
 6685TIP3    H141470   0.823   0.855  13.061  0.2211 -0.1198  0.6306
 6685TIP3    H241471   0.934   0.944  13.008  0.7180 -1.0880  0.0248
 6686TIP3   OH241472   3.586   3.934  13.606 -0.3601  0.4298 -0.6186
 6686TIP3    H141473   3.675   3.933  13.640 -0.3132  2.7739 -0.5924
 6686TIP3    H241474   3.586   3.869  13.536  1.0735 -0.3477  0.0793
 6687TIP3   OH241475   4.379   3.191  14.775  0.2442  0.2316  0.1412
 6687TIP3    H141476   4.406   3.272  14.731  1.5354  1.0490  2.3747
 6687TIP3    H241477   4.461   3.153  14.806 -0.5621 -0.8876  0.8905
 6688TIP3   OH241478   2.242   1.915  12.035 -0.1094  0.1908 -0.1145
 6688TIP3    H141479   2.200   1.948  12.114  0.3439  0.4379  0.0241
 6688TIP3    H241480   2.272   1.993  11.989  0.1926  0.0187 -0.2124
 6689TIP3   OH241481   3.699   1.428  14.396  0.3657  0.3738 -0.2024
 6689TIP3    H141482   3.697   1.495  14.465  0.3405 -0.0622  0.2234
 6689TIP3    H241483   3.631   1.455  14.334 -2.5056 -1.4223  2.0350
 6690TIP3   OH241484   2.933   4.601  14.452 -0.1356 -0.7296  0.1771
 6690TIP3    H141485   2.895   4.538  14.514 -2.1771  0.9327  0.6735
 6690TIP3    H241486   3.026   4.579  14.450 -0.7894 -3.8584  0.2338
 6691TIP3   OH241487   0.235   6.001   0.285  0.1059  0.2818 -0.0215
 6691TIP3    H141488   0.310   5.942   0.278  0.4932  0.7198  0.3961
 6691TIP3    H241489   0.208   6.017   0.195 -0.0813 -0.6327 -0.1332
 6692TIP3   OH241490   2.568   0.597  12.471  0.0739 -0.2131  0.2427
 6692TIP3    H141491   2.569   0.547  12.552  3.5217  1.1691  1.1299
 6692TIP3    H241492   2.533   0.683  12.496 -0.1445 -0.2207 -0.0310
 6693TIP3   OH241493   1.728   0.960  14.997  0.3234  0.5929 -0.0966
 6693TIP3    H141494   1.762   0.990  15.081 -1.1362 -0.9267  1.0535
 6693TIP3    H241495   1.633   0.957  15.008  0.2493 -1.8193 -1.0361
 6694TIP3   OH241496   0.986   1.753  11.723  0.1943  0.9042  0.1476
 6694TIP3    H141497   0.899   1.789  11.704  0.7097  1.7094 -0.7463
 6694TIP3    H241498   1.004   1.780  11.813 -1.0574 -0.4380  0.8144
 6695TIP3   OH241499   2.853   3.515  12.634 -0.4332  0.4930 -0.3233
 6695TIP3    H141500   2.948   3.508  12.624 -0.3583 -0.3202  0.8929
 6695TIP3    H241501   2.818   3.443  12.581 -0.3626  0.6246 -0.5505
 6696TIP3   OH241502   0.933   0.616  13.364  0.1079  0.2292  0.0556
 6696TIP3    H141503   0.858   0.587  13.415 -0.1979  1.3643  0.2718
 6696TIP3    H241504   0.941   0.709  13.384 -0.0117  0.6915 -1.9577
 6697TIP3   OH241505   2.782   5.338  13.684 -0.6251 -0.1722  0.1167
 6697TIP3    H141506   2.746   5.319  13.598  1.3342  2.9433 -1.4810
 6697TIP3    H241507   2.856   5.277  13.693 -1.6395 -1.4071  0.1995
 6698TIP3   OH241508   1.885   2.150  15.328 -0.3550  0.4186  0.2456
 6698TIP3    H141509   1.806   2.170  15.378 -0.1926 -0.9827  1.0716
 6698TIP3    H241510   1.854   2.103  15.251 -0.6402  2.8796 -1.2048
 6699TIP3   OH241511   1.702   1.116  14.774 -0.8814 -0.6013  0.0489
 6699TIP3    H141512   1.684   1.185  14.838  1.7139  1.2161 -1.0771
 6699TIP3    H241513   1.730   1.041  14.826  0.5487  0.6431  1.0972
 6700TIP3   OH241514   2.090   0.815  14.685 -0.2302  0.4505 -0.2161
 6700TIP3    H141515   2.149   0.836  14.613  0.0013 -0.8591 -0.4246
 6700TIP3    H241516   2.144   0.765  14.747 -0.3350  1.8820  1.0384
 6701TIP3   OH241517   3.237   0.500   0.496  0.1656  0.5960 -0.3529
 6701TIP3    H141518   3.149   0.526   0.468 -0.4056 -0.8752 -0.0023
 6701TIP3    H241519   3.272   0.576   0.542 -0.7595  1.3435 -0.8833
 6702TIP3   OH241520   3.565   6.641  12.528  0.0836 -0.0855 -0.1563
 6702TIP3    H141521   3.655   6.609  12.524 -0.1768 -0.8664  0.2066
 6702TIP3    H241522   3.532   6.613  12.613 -0.5623  0.0341 -0.3586
 6703TIP3   OH241523   2.399   7.062  12.267  0.6963  0.2039  0.2601
 6703TIP3    H141524   2.360   7.047  12.352  1.3833  2.1246  0.9549
 6703TIP3    H241525   2.491   7.037  12.277  0.2866 -1.7316 -0.5902
 6704TIP3   OH241526   1.632   1.354  12.573  0.3203  0.1146 -0.2569
 6704TIP3    H141527   1.717   1.376  12.536  0.2309  0.8723 -0.0016
 6704TIP3    H241528   1.626   1.405  12.653 -0.6818  0.6239 -0.6494
 6705TIP3   OH241529   4.176   4.723  14.758  0.2140  0.1738  0.5418
 6705TIP3    H141530   4.117   4.755  14.826 -2.2161 -0.5273 -1.1632
 6705TIP3    H241531   4.200   4.635  14.786 -0.5603 -0.0044  0.6755
 6706TIP3   OH241532   1.797   5.858  14.082  0.2613  0.2986  0.0510
 6706TIP3    H141533   1.859   5.898  14.021 -0.2356  0.1727 -0.5433
 6706TIP3    H241534   1.712   5.868  14.039 -0.1672  0.7174  0.9850
 6707TIP3   OH241535   3.112   3.487  12.908  0.8603 -0.1938  0.4779
 6707TIP3    H141536   3.056   3.471  12.984  1.0398  0.7248  0.8135
 6707TIP3    H241537   3.154   3.403  12.891  1.2940 -0.2558  1.7859
 6708TIP3   OH241538   2.496   0.927  12.229  0.3069 -0.4390 -0.6543
 6708TIP3    H141539   2.433   0.981  12.182 -1.4114 -0.0453  2.0255
 6708TIP3    H241540   2.522   0.860  12.166 -0.5872  1.1018 -2.7080
 6709TIP3   OH241541   3.705   4.844  10.785 -0.1003  0.2237 -0.0582
 6709TIP3    H141542   3.731   4.784  10.715  0.1964 -0.7340  0.8640
 6709TIP3    H241543   3.613   4.825  10.800  0.0800 -0.2329  0.4650
 6710TIP3   OH241544   1.674   6.240   0.137 -0.1068  0.1048  0.2677
 6710TIP3    H141545   1.689   6.335   0.137  0.2617  0.0471  0.6623
 6710TIP3    H241546   1.761   6.202   0.148 -0.1350 -0.3044 -0.8696
 6711TIP3   OH241547   5.049   3.796  14.759 -0.0301  0.2948  0.1109
 6711TIP3    H141548   4.963   3.769  14.727 -0.0579 -0.5870  0.9097
 6711TIP3    H241549   5.033   3.877  14.807 -0.6463 -0.6765  1.5472
 6712TIP3   OH241550   0.484   2.722   0.703  0.5728  0.6785 -0.0259
 6712TIP3    H141551   0.527   2.730   0.618 -0.3849  0.3783 -0.5347
 6712TIP3    H241552   0.391   2.729   0.684  0.2817 -0.8168  0.8156
 6713TIP3   OH241553   5.481   0.524  14.036 -0.1739 -0.2996  0.6697
 6713TIP3    H141554   5.574   0.520  14.059 -0.1934 -1.1853  0.5978
 6713TIP3    H241555   5.463   0.442  13.991 -0.6807  0.4465 -0.5174
 6714TIP3   OH241556   1.854   0.722  14.673 -0.1752 -0.4644 -0.4015
 6714TIP3    H141557   1.941   0.763  14.667 -0.2414 -0.1423  0.7173
 6714TIP3    H241558   1.862   0.659  14.744 -0.2237 -2.0922 -1.7976
 6715TIP3   OH241559   1.223   0.852  13.939 -0.7891 -0.5161  0.0250
 6715TIP3    H141560   1.289   0.918  13.964 -2.0549  0.2911  1.2984
 6715TIP3    H241561   1.273   0.785  13.894  0.4780  1.5823 -1.8125
 6716TIP3   OH241562   4.039   0.355  15.715 -0.0467  0.7046 -0.1098
 6716TIP3    H141563   4.004   0.305  15.789 -1.1033  0.6613 -0.6268
 6716TIP3    H241564   4.049   0.290  15.645 -2.7305  1.4264 -1.2255
 6717TIP3   OH241565   4.895   5.591  13.400 -0.3637  0.4467  0.1223
 6717TIP3    H141566   4.972   5.647  13.387  0.5897 -0.6845  0.8462
 6717TIP3    H241567   4.928   5.502  13.389 -1.5525 -0.0616  0.5843
 6718TIP3   OH241568   0.642   2.613  14.464  0.2394 -0.1229  0.2875
 6718TIP3    H141569   0.642   2.536  14.521  2.7581 -0.0664  0.3896
 6718TIP3    H241570   0.578   2.673  14.505 -1.2046 -1.8391  0.5908
 6719TIP3   OH241571   6.973   0.118  14.108  0.4728 -0.5174 -0.2958
 6719TIP3    H141572   6.914   0.090  14.178  0.4141 -1.8866 -0.8599
 6719TIP3    H241573   7.042   0.168  14.151 -0.1767 -0.3762  0.5840
 6720TIP3   OH241574   2.740   1.783  14.319 -0.0641 -0.2213  0.4451
 6720TIP3    H141575   2.758   1.767  14.411 -1.2205  0.2954  0.7611
 6720TIP3    H241576   2.819   1.826  14.286  0.1010  0.1517  1.3341
 6721TIP3   OH241577   2.594   0.762  14.779  0.3539 -0.4800  0.4133
 6721TIP3    H141578   2.588   0.673  14.743  1.5097  0.0369 -1.1450
 6721TIP3    H241579   2.686   0.772  14.803  0.8667  1.2211 -2.0138
 6722TIP3   OH241580   1.254   1.453  15.563 -0.4646 -0.1382 -0.1394
 6722TIP3    H141581   1.343   1.431  15.535 -0.0966 -1.4917  1.9878
 6722TIP3    H241582   1.266   1.526  15.624 -0.9477  0.5348 -0.8373
 6723TIP3   OH241583   0.371   0.418  14.749 -0.1575 -0.2470  0.5866
 6723TIP3    H141584   0.305   0.463  14.801 -2.4361 -2.7299 -0.0276
 6723TIP3    H241585   0.374   0.465  14.666 -0.2280  0.6094  1.0634
 6724TIP3   OH241586   1.610   6.299   0.627  0.1066 -0.2060 -0.1275
 6724TIP3    H141587   1.625   6.386   0.592 -0.0103  0.2640  0.9562
 6724TIP3    H241588   1.669   6.242   0.578 -0.4144  0.3500 -1.4126
 6725TIP3   OH241589   2.001   6.670  13.765  0.3066  0.4547 -0.4011
 6725TIP3    H141590   2.089   6.636  13.778 -0.4908 -1.2646  0.6822
 6725TIP3    H241591   1.976   6.643  13.677  0.3129 -0.3129 -0.1655
 6726TIP3   OH241592   1.491   0.574  15.647  0.2165 -0.5658 -0.2642
 6726TIP3    H141593   1.475   0.534  15.732 -1.2511 -1.0614 -0.7657
 6726TIP3    H241594   1.405   0.599  15.615  0.8607  0.6438 -1.1155
 6727TIP3   OH241595   3.781   1.451   0.378 -0.4692 -0.2916  0.0695
 6727TIP3    H141596   3.832   1.494   0.446  1.8962  0.0436 -1.8222
 6727TIP3    H241597   3.698   1.497   0.376  0.5852  1.6681  0.6663
 6728TIP3   OH241598   3.995   3.188  14.883  0.2380  0.6690 -0.1319
 6728TIP3    H141599   3.977   3.098  14.857  0.5887  0.4280  0.4695
 6728TIP3    H241600   3.941   3.202  14.961  0.8008  0.7296  0.2425
 6729TIP3   OH241601   5.746   0.568  14.077 -0.1210 -0.1342 -0.1558
 6729TIP3    H141602   5.829   0.519  14.076  1.1387  1.9146  0.9100
 6729TIP3    H241603   5.767   0.650  14.122 -2.7531  0.4106  0.1609
 6730TIP3   OH241604   2.352   1.554  15.058 -0.3373 -0.2880  0.1846
 6730TIP3    H141605   2.439   1.576  15.090 -0.7615  1.5427  0.1496
 6730TIP3    H241606   2.296   1.557  15.136 -0.3799 -1.4890  0.2138
 6731TIP3   OH241607   4.037   1.928  14.221  0.3528  0.1015  0.1833
 6731TIP3    H141608   3.956   1.958  14.178  0.3704 -0.5996 -0.3502
 6731TIP3    H241609   4.008   1.896  14.307 -0.2828 -2.1632 -0.8224
 6732TIP3   OH241610   3.161   7.245   1.499  0.2304  0.1382  0.4303
 6732TIP3    H141611   3.139   7.221   1.409 -0.9170 -0.6093  0.8968
 6732TIP3    H241612   3.101   7.193   1.553  0.0286  1.5162  1.5782
 6733TIP3   OH241613   3.992   6.975   0.303 -0.4874 -0.0462 -0.4657
 6733TIP3    H141614   4.012   7.067   0.287 -0.3459  0.1315  0.6712
 6733TIP3    H241615   3.905   6.962   0.266 -1.4151  1.1027  1.2713
 6734TIP3   OH241616   1.478   0.960  13.390 -0.0664  0.1256 -0.4312
 6734TIP3    H141617   1.478   0.882  13.445  0.0259  0.2700 -0.2276
 6734TIP3    H241618   1.420   1.022  13.435 -1.7367 -0.5392 -1.6132
 6735TIP3   OH241619   2.383   6.182  14.713  0.0933 -0.2290 -0.7763
 6735TIP3    H141620   2.442   6.130  14.659 -0.0047  0.4181 -1.5053
 6735TIP3    H241621   2.441   6.243  14.759  0.3985 -2.0071  1.3018
 6736TIP3   OH241622   3.324   6.299  14.913  0.0175  0.6347  0.2709
 6736TIP3    H141623   3.244   6.264  14.953 -0.2608  1.3577  0.3646
 6736TIP3    H241624   3.317   6.275  14.820 -0.3676  0.7924  0.2571
 6737TIP3   OH241625   3.394   0.363   0.123  0.4350 -0.3271  0.7661
 6737TIP3    H141626   3.401   0.360   0.219 -1.9314 -0.7501  0.9539
 6737TIP3    H241627   3.314   0.413   0.107  0.3381 -1.0140 -0.9723
 6738TIP3   OH241628   2.257   0.659   0.480  0.0368 -0.3748  0.9329
 6738TIP3    H141629   2.316   0.585   0.468 -0.9565 -0.8979 -0.8233
 6738TIP3    H241630   2.254   0.702   0.395 -0.7143  0.6846  1.4878
 6739TIP3   OH241631   0.863   6.552  14.422  0.3773  0.1215  0.5398
 6739TIP3    H141632   0.799   6.486  14.448  0.4547  0.8313  2.7013
 6739TIP3    H241633   0.858   6.618  14.491  0.8972  1.9670 -1.1328
 6740TIP3   OH241634   3.498   2.745   0.544 -0.0201  0.3860 -0.9728
 6740TIP3    H141635   3.468   2.781   0.628 -2.0920  0.7637 -1.8500
 6740TIP3    H241636   3.496   2.650   0.557  2.9615  0.4526  0.4897
 6741TIP3   OH241637   4.091   4.639  14.486  0.2544 -0.1931  0.2595
 6741TIP3    H141638   4.083   4.544  14.498 -1.7045 -0.3488 -1.8481
 6741TIP3    H241639   4.133   4.670  14.566  0.6244 -2.8045  1.1236
 6742TIP3   OH241640   5.659   1.279  12.194 -0.1929 -0.3158 -0.3990
 6742TIP3    H141641   5.579   1.320  12.226 -0.0175 -0.1169 -0.2157
 6742TIP3    H241642   5.639   1.254  12.104  0.4780  2.2923 -1.3078
 6743TIP3   OH241643   2.455   0.392  12.949  0.3902 -0.5003 -0.0599
 6743TIP3    H141644   2.383   0.358  12.895 -0.1285  0.7056 -0.1379
 6743TIP3    H241645   2.533   0.346  12.917 -0.0739 -0.5571 -1.1309
 6744TIP3   OH241646   1.637   6.771   0.496  0.2881  0.1719 -0.0664
 6744TIP3    H141647   1.731   6.762   0.479  0.1681  0.6838 -1.0858
 6744TIP3    H241648   1.595   6.717   0.429 -0.2457  3.2527 -2.3404
 6745TIP3   OH241649   2.895   2.133  12.087 -0.1808  0.0124  0.0454
 6745TIP3    H141650   2.837   2.203  12.118 -0.6453  0.1144 -1.0289
 6745TIP3    H241651   2.836   2.069  12.048  0.2728 -0.8366  0.7417
 6746TIP3   OH241652   4.514   3.257  15.417 -0.4633 -0.3748 -0.5206
 6746TIP3    H141653   4.582   3.300  15.366 -0.8206 -0.7601 -1.3226
 6746TIP3    H241654   4.561   3.194  15.472  0.0498  0.9367  0.5791
 6747TIP3   OH241655   1.023   7.055  15.252 -0.2395  0.3755 -0.5407
 6747TIP3    H141656   0.932   7.069  15.278 -0.5330 -0.0810 -1.2805
 6747TIP3    H241657   1.074   7.115  15.307 -0.7533 -1.0833  1.5591
 6748TIP3   OH241658   1.745   1.228   0.061  0.8731 -0.0959  0.0364
 6748TIP3    H141659   1.818   1.232   0.122  0.4956 -0.2199  0.4971
 6748TIP3    H241660   1.754   1.307   0.007  1.1180  0.0911  0.3507
 6749TIP3   OH241661   2.125   6.939  14.552 -0.6934  0.5209 -0.3200
 6749TIP3    H141662   2.115   6.973  14.464  0.4752  0.3127 -0.5516
 6749TIP3    H241663   2.043   6.892  14.570 -1.6496  2.0707 -0.5985
 6750TIP3   OH241664   4.538   2.773  12.962  0.4079 -0.0909  0.0286
 6750TIP3    H141665   4.461   2.820  12.994 -0.2926 -1.7531  0.8663
 6750TIP3    H241666   4.609   2.837  12.967 -1.0139  1.6468 -1.3080
 6751TIP3   OH241667   2.005   1.521  15.390  0.4860 -0.2288  0.1816
 6751TIP3    H141668   1.960   1.603  15.411  0.3041 -1.0315  3.0708
 6751TIP3    H241669   1.981   1.461  15.460  0.1066 -3.0004 -2.2290
 6752TIP3   OH241670   2.040   0.129  14.723  0.2607 -0.3907 -0.3930
 6752TIP3    H141671   2.092   0.051  14.700 -0.9993 -1.4438  0.2491
 6752TIP3    H241672   2.081   0.200  14.674  0.2470 -1.8232 -2.5654
 6753TIP3   OH241673   2.753   3.772  12.370 -0.3622  0.4247 -1.1175
 6753TIP3    H141674   2.741   3.711  12.297 -0.1204  1.0447 -1.6843
 6753TIP3    H241675   2.721   3.856  12.336 -0.7591  0.5900 -0.3230
 6754TIP3   OH241676   1.716   0.459  15.096  0.1866 -0.1480 -0.2952
 6754TIP3    H141677   1.767   0.406  15.035  0.1461  0.1605 -0.5978
 6754TIP3    H241678   1.727   0.549  15.065 -0.6562 -0.0949 -0.4472
 6755TIP3   OH241679   6.952   0.752  13.521  0.1608  0.2364  0.0816
 6755TIP3    H141680   7.014   0.823  13.507 -0.1476  0.4992  0.0410
 6755TIP3    H241681   6.982   0.709  13.601  2.1323 -1.4762 -1.5057
 6756TIP3   OH241682   4.059   2.346   1.395  0.4097  0.4063  0.1686
 6756TIP3    H141683   3.979   2.345   1.448 -0.2875 -3.1956 -0.7929
 6756TIP3    H241684   4.128   2.317   1.455  0.1612 -0.7258 -0.0696
 6757TIP3   OH241685   3.591   0.056  13.090  0.4100  0.3078  0.4271
 6757TIP3    H141686   3.609  -0.036  13.112 -1.2075  0.3310  1.9731
 6757TIP3    H241687   3.505   0.054  13.048  0.0762  1.1890  1.0713
 6758TIP3   OH241688   3.816   1.332  14.657 -0.2210  0.0706  0.1443
 6758TIP3    H141689   3.783   1.345  14.746 -1.6924 -2.7568  0.0787
 6758TIP3    H241690   3.762   1.388  14.602  0.0717  1.1060  0.8848
 6759TIP3   OH241691   3.838   1.268  15.586 -0.4390  0.2661 -0.0443
 6759TIP3    H141692   3.856   1.313  15.669 -1.4670  0.5189  0.0497
 6759TIP3    H241693   3.744   1.277  15.574 -0.2134  0.7521 -1.5443
 6760TIP3   OH241694   3.678   0.827   0.726  0.0343  0.2987 -0.7322
 6760TIP3    H141695   3.650   0.821   0.818 -1.5184 -0.9188 -1.2798
 6760TIP3    H241696   3.722   0.912   0.721 -0.3091  0.6106  1.0150
 6761TIP3   OH241697   0.385   0.822  15.047  0.4272  0.0874  0.2611
 6761TIP3    H141698   0.353   0.872  15.123  0.6677 -1.6608  1.5625
 6761TIP3    H241699   0.309   0.771  15.019  0.4824  0.3505 -0.3706
 6762TIP3   OH241700   2.259   2.634   0.016  0.2176  0.2485  0.5349
 6762TIP3    H141701   2.332   2.571   0.019  0.8853  0.9704 -0.2991
 6762TIP3    H241702   2.236   2.639  -0.077 -0.7004  0.2586  0.7630
 6763TIP3   OH241703   2.494   5.859  13.373  0.1756 -0.8020  0.8099
 6763TIP3    H141704   2.466   5.780  13.417 -0.6156 -1.3621 -0.6551
 6763TIP3    H241705   2.547   5.828  13.299 -1.5902 -0.0644 -0.8022
 6764TIP3   OH241706   0.563   6.963  13.971 -0.5493 -0.2348 -0.2346
 6764TIP3    H141707   0.639   7.020  13.962 -0.3041 -0.9295 -3.3508
 6764TIP3    H241708   0.487   7.021  13.959 -0.3571 -0.1773 -1.2634
 6765TIP3   OH241709   7.012   0.739  15.895 -0.1522 -0.0370  0.1921
 6765TIP3    H141710   6.950   0.674  15.930 -0.1162 -0.0810  0.1738
 6765TIP3    H241711   7.098   0.703  15.916 -0.1290 -0.1578 -0.1227
 6766TIP3   OH241712   0.267   0.383  14.213  0.0145 -0.3067  0.0321
 6766TIP3    H141713   0.228   0.429  14.139  0.5101 -1.7288 -1.1383
 6766TIP3    H241714   0.202   0.318  14.239 -1.0666  1.6285  2.2748
 6767TIP3   OH241715   4.063   2.496  14.619 -0.2491  0.3687 -0.3747
 6767TIP3    H141716   3.995   2.547  14.573  0.7947 -0.3262 -2.7515
 6767TIP3    H241717   4.019   2.415  14.643 -0.7784  0.6966 -0.2039
 6768TIP3   OH241718   3.512   1.890  11.256 -0.2483  0.3003 -0.2317
 6768TIP3    H141719   3.505   1.814  11.314 -0.5940  1.1661  0.8861
 6768TIP3    H241720   3.432   1.888  11.204 -0.2280 -0.1342 -0.2495
 6769TIP3   OH241721   0.853   1.063  13.507 -0.4698  0.3001  0.0076
 6769TIP3    H141722   0.780   1.110  13.466 -1.9155 -0.8415  1.1983
 6769TIP3    H241723   0.814   1.020  13.583  1.5420 -0.0337  0.8803
 6770TIP3   OH241724   4.509   2.981  14.468  0.1560 -0.1287  0.2354
 6770TIP3    H141725   4.447   2.929  14.417 -0.1274 -0.2085  0.6667
 6770TIP3    H241726   4.522   2.931  14.548  0.0942  0.3334  0.5302
 6771TIP3   OH241727   1.709   6.906  14.783  0.0532 -0.3151 -0.0744
 6771TIP3    H141728   1.663   6.989  14.766  0.2557 -0.2011 -0.0565
 6771TIP3    H241729   1.641   6.849  14.821  0.1710  0.1719  0.8657
 6772TIP3   OH241730   2.786   3.205   0.488 -0.4953 -0.0127  0.1946
 6772TIP3    H141731   2.716   3.194   0.552 -0.7004  1.8804  0.3382
 6772TIP3    H241732   2.838   3.278   0.521 -0.0983  0.4258 -1.3355
 6773TIP3   OH241733   2.608   0.617  15.899 -0.4601 -0.2328  0.2384
 6773TIP3    H141734   2.649   0.693  15.940 -0.7683 -0.0794  0.2643
 6773TIP3    H241735   2.675   0.548  15.903  0.4620  0.5254 -1.3236
 6774TIP3   OH241736   2.598   2.942   1.175  0.0121 -0.1292 -0.4679
 6774TIP3    H141737   2.590   2.954   1.270  0.2932 -1.9717 -0.1890
 6774TIP3    H241738   2.508   2.936   1.144 -0.2146  3.5829 -0.8039
 6775TIP3   OH241739   6.179   0.946  13.543  0.4348  0.0331 -0.1440
 6775TIP3    H141740   6.145   1.017  13.488  0.1130 -0.0732 -0.0804
 6775TIP3    H241741   6.243   0.901  13.487 -0.3755 -0.4864 -0.6628
 6776TIP3   OH241742   3.209   0.415  15.141 -0.2805  0.3372 -0.2080
 6776TIP3    H141743   3.187   0.331  15.181  2.0578  0.4993  1.5807
 6776TIP3    H241744   3.268   0.392  15.069  0.4775  0.4119  0.3733
 6777TIP3   OH241745   3.818   2.826   0.125 -0.4407 -0.3986 -0.2876
 6777TIP3    H141746   3.768   2.811   0.045 -2.4231 -2.4540  1.3076
 6777TIP3    H241747   3.805   2.748   0.178  1.6852  0.4801  1.6379
 6778TIP3   OH241748   2.687   2.130  14.485 -0.5929  0.0441  0.2225
 6778TIP3    H141749   2.637   2.134  14.404  0.5486  1.7325 -0.4249
 6778TIP3    H241750   2.634   2.076  14.544 -1.6327 -0.8239 -1.4933
 6779TIP3   OH241751   2.978   1.781  12.844  0.4287  0.7905  0.2702
 6779TIP3    H141752   2.895   1.734  12.850  1.1435 -0.2587  2.4792
 6779TIP3    H241753   2.967   1.856  12.903  0.0369  2.3417 -1.6835
 6780TIP3   OH241754   2.657   0.033  12.799 -0.5787  0.0591  0.3604
 6780TIP3    H141755   2.709  -0.006  12.729  0.3406  0.5941  0.7341
 6780TIP3    H241756   2.613  -0.042  12.841  3.5360 -1.0171  3.0171
 6781TIP3   OH241757   2.696   1.787  12.468 -0.4151  0.2931  0.2902
 6781TIP3    H141758   2.674   1.769  12.560 -0.8217  0.7413  0.2815
 6781TIP3    H241759   2.630   1.739  12.418  0.2722 -0.5842  0.2181
 6782TIP3   OH241760   1.764   1.020   0.458 -0.3616 -0.3468 -0.3468
 6782TIP3    H141761   1.717   0.966   0.395 -1.6796  1.6782 -1.1294
 6782TIP3    H241762   1.738   1.110   0.438 -0.2141  0.4171  2.5683
 6783TIP3   OH241763   0.667   3.935  15.080 -0.5623  0.3448  0.4564
 6783TIP3    H141764   0.747   3.938  15.133  0.0470 -1.2800 -0.3743
 6783TIP3    H241765   0.690   3.884  15.003 -2.1086  0.7602 -0.3030
 6784TIP3   OH241766   2.256   1.317  14.328 -0.2183 -0.3615 -0.3591
 6784TIP3    H141767   2.266   1.409  14.350 -1.1285  0.0609 -1.6534
 6784TIP3    H241768   2.238   1.274  14.412  0.4161  0.6055  0.2716
 6785TIP3   OH241769   2.511   5.983  14.577  0.4353  0.2104 -0.5194
 6785TIP3    H141770   2.558   6.040  14.516 -0.5300  0.5820 -0.9170
 6785TIP3    H241771   2.580   5.928  14.615  1.0307 -0.1406 -2.0592
 6786TIP3   OH241772   4.412   6.571  15.229  0.4734 -0.5056 -0.1120
 6786TIP3    H141773   4.391   6.613  15.312 -0.4978  0.7358 -0.9424
 6786TIP3    H241774   4.490   6.617  15.198 -0.1939  0.2687 -0.6984
 6787TIP3   OH241775   2.696   0.250  14.551  0.7613  0.8005 -0.4331
 6787TIP3    H141776   2.700   0.155  14.563  1.4432  0.6189 -2.0047
 6787TIP3    H241777   2.739   0.265  14.468 -2.2151  2.1876 -1.7947
 6788TIP3   OH241778   2.500   6.790  15.810 -0.0249  0.0664  0.1874
 6788TIP3    H141779   2.545   6.779  15.726 -0.5331  1.2038 -0.2383
 6788TIP3    H241780   2.481   6.883  15.815 -0.8929 -0.1557  1.1118
 6789TIP3   OH241781   0.337   1.707  13.930  0.0953  0.3401  0.3143
 6789TIP3    H141782   0.364   1.732  13.842  0.0090 -0.4235  0.0631
 6789TIP3    H241783   0.242   1.695  13.924  0.2181 -0.6420  0.2765
 6790TIP3   OH241784   2.417   6.121  15.042 -0.1785  0.9517 -0.0887
 6790TIP3    H141785   2.346   6.068  15.007 -0.7946  1.4844  0.3407
 6790TIP3    H241786   2.433   6.187  14.974 -0.8033  1.4683  0.2603
 6791TIP3   OH241787   4.385   7.101  13.364  0.1888  0.0538 -0.1366
 6791TIP3    H141788   4.342   7.037  13.308 -0.3483 -0.1774  0.5392
 6791TIP3    H241789   4.453   7.051  13.409 -0.2253 -0.0420  0.3866
 6792TIP3   OH241790   4.160   6.615  14.209  0.3333 -0.0696 -0.4714
 6792TIP3    H141791   4.148   6.681  14.140  2.3738 -0.3053 -1.0631
 6792TIP3    H241792   4.153   6.531  14.164 -1.6585 -0.2797  0.1856
 6793TIP3   OH241793   2.090   3.067  11.806 -0.4037  0.3653  0.9124
 6793TIP3    H141794   2.128   2.980  11.792 -2.5487 -0.3344 -0.9019
 6793TIP3    H241795   2.129   3.097  11.887  1.1451 -1.8823  1.0589
 6794TIP3   OH241796   0.501   0.595  14.105 -0.1347  0.5190  0.4204
 6794TIP3    H141797   0.532   0.565  14.020 -1.7372 -1.4168  0.5030
 6794TIP3    H241798   0.423   0.647  14.086 -1.2787 -1.0534  0.8124
 6795TIP3   OH241799   3.110   6.201  14.044  0.1618  0.8202  0.0569
 6795TIP3    H141800   3.169   6.133  14.012 -0.3974  0.2965  0.1070
 6795TIP3    H241801   3.029   6.187  13.993  0.0158  1.3914  0.1329
 6796TIP3   OH241802   2.701   0.296  13.208 -0.9244 -0.3706 -0.3366
 6796TIP3    H141803   2.626   0.327  13.260  0.4105  1.1933  0.7026
 6796TIP3    H241804   2.670   0.300  13.117 -1.9134  0.8090  0.0322
 6797TIP3   OH241805   3.117   2.583  14.815  0.2453  0.2598 -0.2643
 6797TIP3    H141806   3.058   2.594  14.740 -0.1127  0.3518  0.0236
 6797TIP3    H241807   3.109   2.666  14.863  1.0724  0.5026 -0.5452
 6798TIP3   OH241808   1.304   0.928  14.509 -0.3782 -0.3920  0.5979
 6798TIP3    H141809   1.261   0.846  14.535 -1.2684 -0.3462 -0.6822
 6798TIP3    H241810   1.231   0.989  14.497  0.0133 -0.3349 -1.6790
 6799TIP3   OH241811   3.344   1.281  14.781 -0.7430  0.1889  0.2480
 6799TIP3    H141812   3.401   1.355  14.763  0.5027 -0.8838 -0.2748
 6799TIP3    H241813   3.289   1.273  14.703 -1.0621  0.7088  0.4158
 6800TIP3   OH241814   2.028   1.253  12.841 -0.2908  0.0586  0.2120
 6800TIP3    H141815   1.960   1.231  12.776 -0.7428  0.3874  0.5701
 6800TIP3    H241816   2.031   1.349  12.840  0.6429  0.0303 -0.2825
 6801TIP3   OH241817   2.777   7.079   0.025 -0.4578 -0.3825  0.0457
 6801TIP3    H141818   2.846   7.141   0.003 -0.4398 -0.1037  0.9082
 6801TIP3    H241819   2.696   7.126   0.009 -0.4592 -0.7210 -1.0014
 6802TIP3   OH241820   2.765   0.934  13.492  0.2394 -0.0921 -0.0457
 6802TIP3    H141821   2.720   0.939  13.408  1.2317 -1.5303 -0.6869
 6802TIP3    H241822   2.858   0.932  13.469  0.5210 -0.4763  1.0974
 6803TIP3   OH241823   4.008   6.313  14.561  0.5208  0.0088  0.3709
 6803TIP3    H141824   4.043   6.394  14.526 -0.3433  0.9413  1.5922
 6803TIP3    H241825   3.917   6.311  14.532  1.2102 -1.8065 -1.7942
 6804TIP3   OH241826   4.033   0.905  13.611  0.3776  0.0738  0.3702
 6804TIP3    H141827   4.128   0.906  13.622  0.2802 -0.5141  1.3478
 6804TIP3    H241828   4.009   0.998  13.604  1.0209  0.2215  0.0734
 6805TIP3   OH241829   2.570   6.326  14.852  0.1229 -0.9050  0.3885
 6805TIP3    H141830   2.589   6.342  14.945  1.7223 -2.1606  0.3151
 6805TIP3    H241831   2.631   6.383  14.805 -2.3538  1.5307  0.0790
 6806TIP3   OH241832   4.117   1.602  14.191  0.2590 -0.3122 -0.2165
 6806TIP3    H141833   4.205   1.635  14.172  0.2542 -0.4819 -0.5439
 6806TIP3    H241834   4.058   1.667  14.151  0.2369 -0.2683 -0.1138
 6807TIP3   OH241835   4.490   0.853  14.982  0.2349  0.1033  0.1054
 6807TIP3    H141836   4.557   0.909  15.021  0.5661  0.5149 -1.0441
 6807TIP3    H241837   4.448   0.907  14.916  1.0078 -1.1990 -1.4838
 6808TIP3   OH241838   2.912   1.095  11.381  0.1475  0.1534 -0.0652
 6808TIP3    H141839   2.900   1.060  11.293 -0.2654 -0.5193  0.2515
 6808TIP3    H241840   2.981   1.040  11.419 -2.2966 -2.0798  1.3489
 6809TIP3   OH241841   0.772   1.314  12.587  0.2647  0.6627 -0.1464
 6809TIP3    H141842   0.687   1.349  12.615 -0.8969 -0.4295 -2.1755
 6809TIP3    H241843   0.801   1.374  12.518  0.7544  0.5554 -0.0369
 6810TIP3   OH241844   7.203   2.205  11.988  0.2239  0.3027 -0.1110
 6810TIP3    H141845   7.208   2.188  11.894  0.8423 -0.7757  0.1027
 6810TIP3    H241846   7.211   2.300  11.996 -1.5102  0.5523 -1.2377
 6811TIP3   OH241847   3.700   2.312   0.311  0.2452 -0.0350 -0.0705
 6811TIP3    H141848   3.677   2.256   0.237 -1.0490 -0.4906  0.6560
 6811TIP3    H241849   3.788   2.344   0.291 -0.0325 -0.2844 -1.7139
 6812TIP3   OH241850   5.461   0.944  14.857  0.1193  0.0520  0.0056
 6812TIP3    H141851   5.544   0.992  14.846 -0.5391  0.9852 -1.0119
 6812TIP3    H241852   5.475   0.889  14.934  1.3749  0.8897  0.3935
 6813TIP3   OH241853   5.373   0.007  15.786 -0.0608  0.0189 -0.0429
 6813TIP3    H141854   5.372  -0.079  15.743  0.3313  0.5337 -1.0977
 6813TIP3    H241855   5.458   0.044  15.763 -0.7131  1.1984 -0.6129
 6814TIP3   OH241856   2.886   0.305  15.279  0.7251  0.2375  0.0554
 6814TIP3    H141857   2.959   0.250  15.307  0.9208  0.2219 -0.4891
 6814TIP3    H241858   2.813   0.277  15.334  0.9766 -0.1534  0.1919
 6815TIP3   OH241859   5.928   0.003  13.387  0.5993  0.5744 -0.1509
 6815TIP3    H141860   5.933  -0.072  13.328  0.2102 -0.3504  0.9828
 6815TIP3    H241861   6.017   0.038  13.388  0.8243  0.0242 -0.5335
 6816TIP3   OH241862   4.905   1.094  14.156 -0.3659 -0.2938 -0.1698
 6816TIP3    H141863   4.846   1.020  14.138 -1.7695  1.2492 -2.1139
 6816TIP3    H241864   4.878   1.125  14.242 -1.1509 -0.7665 -0.2368
 6817TIP3   OH241865   1.627   2.257  15.358  0.2164  0.4992 -0.2267
 6817TIP3    H141866   1.648   2.269  15.265  1.4244 -1.1514 -0.1942
 6817TIP3    H241867   1.678   2.325  15.402  1.2741 -0.0209 -0.6183
 6818TIP3   OH241868   3.869   6.488  15.983 -0.0871  0.3128  0.6048
 6818TIP3    H141869   3.782   6.467  15.949  0.4100 -1.5343  0.4127
 6818TIP3    H241870   3.901   6.405  16.020  2.4186  0.4361 -1.1782
 6819TIP3   OH241871   4.640   2.308  15.310 -0.5252  0.4612  0.2590
 6819TIP3    H141872   4.588   2.326  15.388  1.5137 -0.6693  1.9204
 6819TIP3    H241873   4.646   2.212  15.306 -0.3235  0.5105 -1.0923
 6820TIP3   OH241874   5.518   2.388  14.820 -0.4480 -0.5284  0.0766
 6820TIP3    H141875   5.422   2.389  14.816 -0.3979  1.3051 -0.8031
 6820TIP3    H241876   5.544   2.323  14.755 -1.0654 -0.5414 -0.1602
 6821TIP3   OH241877   5.546   2.521  14.052 -0.7830 -0.1111  0.2763
 6821TIP3    H141878   5.538   2.599  13.997 -2.1340 -1.2127 -1.1240
 6821TIP3    H241879   5.640   2.503  14.052 -0.5605  0.9594 -0.1678
 6822TIP3   OH241880   4.068   0.207  13.557  0.1837 -0.0170  0.9857
 6822TIP3    H141881   4.106   0.124  13.528 -0.2873  0.8624 -2.3223
 6822TIP3    H241882   4.024   0.241  13.480 -3.8992  0.9619  3.6297
 6823TIP3   OH241883   6.058   7.284  15.698 -0.0774  0.0105 -0.1220
 6823TIP3    H141884   6.120   7.353  15.720  0.8073 -0.4394 -1.1858
 6823TIP3    H241885   6.111   7.214  15.662 -1.1202 -0.6956 -0.3260
 6824TIP3   OH241886   2.260   0.906  13.148  0.6009 -0.3867  0.1759
 6824TIP3    H141887   2.181   0.949  13.115 -0.7125 -1.7071  1.5300
 6824TIP3    H241888   2.233   0.868  13.232  2.4901 -1.4540  0.3174
 6825TIP3   OH241889   4.877   0.212  11.669 -0.4152  0.4518  0.7087
 6825TIP3    H141890   4.882   0.279  11.737  0.5074  1.7454 -0.6219
 6825TIP3    H241891   4.843   0.257  11.592 -0.4308 -0.7654 -0.0156
 6826TIP3   OH241892   3.932   0.707  15.310  0.4651  0.0037 -0.4229
 6826TIP3    H141893   3.939   0.708  15.405  0.0373 -0.4780 -0.3857
 6826TIP3    H241894   3.975   0.787  15.281 -0.3235  0.6574  0.2331
 6827TIP3   OH241895   5.076   1.852  13.760 -0.3406 -0.2329  0.4881
 6827TIP3    H141896   5.018   1.796  13.709 -0.1356 -1.4275  1.5365
 6827TIP3    H241897   5.164   1.816  13.744 -0.2371 -0.3979  1.3836
 6828TIP3   OH241898   1.157   1.515  14.594  0.1201 -0.0861 -0.0193
 6828TIP3    H141899   1.155   1.506  14.498 -0.3332 -1.8710  0.1444
 6828TIP3    H241900   1.106   1.595  14.611 -0.7501 -0.3659 -1.1920
 6829TIP3   OH241901   4.865   1.791  13.962  0.2043  0.1941 -0.8755
 6829TIP3    H141902   4.790   1.796  13.903 -1.0229  2.8618  0.8017
 6829TIP3    H241903   4.940   1.817  13.908 -0.7707  1.7416 -1.5291
 6830TIP3   OH241904   5.415   2.251  14.414  0.2860 -1.1840 -0.0215
 6830TIP3    H141905   5.442   2.258  14.322  0.0487 -0.8130 -0.0643
 6830TIP3    H241906   5.361   2.329  14.429 -0.1831 -1.5579  0.2616
 6831TIP3   OH241907   4.524   2.808  14.688  0.1154 -0.8636  0.3181
 6831TIP3    H141908   4.556   2.741  14.749 -0.5710 -0.1453  1.4995
 6831TIP3    H241909   4.466   2.761  14.628 -0.0047 -1.4200  0.8644
 6832TIP3   OH241910   5.207   1.521  14.592  0.2611 -0.3390 -1.0271
 6832TIP3    H141911   5.207   1.506  14.497 -1.9104  0.2690 -1.1637
 6832TIP3    H241912   5.234   1.612  14.602  0.6122 -0.4408 -1.0641
 6833TIP3   OH241913   4.794   1.244  14.769  0.3006  0.1977 -0.0330
 6833TIP3    H141914   4.715   1.294  14.750 -0.7502 -1.3916  0.0598
 6833TIP3    H241915   4.767   1.152  14.762  1.9962 -0.3720  0.5639
 6834TIP3   OH241916   4.293   1.695   1.920  0.2196 -0.0089  0.2578
 6834TIP3    H141917   4.253   1.634   1.982  0.4628 -0.3953  0.0439
 6834TIP3    H241918   4.275   1.656   1.834  1.1805 -0.2782  0.1658
 6835TIP3   OH241919   5.953   0.121  15.502 -0.2669  0.7593  0.0073
 6835TIP3    H141920   5.861   0.136  15.523 -0.2776 -0.6116  0.9476
 6835TIP3    H241921   5.981   0.050  15.559  1.8866  2.3725  1.0761
 6836TIP3   OH241922   5.085   6.449   0.010 -0.0040 -0.2114  0.1276
 6836TIP3    H141923   5.091   6.528   0.064  0.4539 -0.5468  0.5772
 6836TIP3    H241924   5.115   6.477  -0.076  2.3750 -0.4068  0.8482
 6837TIP3   OH241925   2.846   2.219  14.170 -0.0995  0.2160 -0.1089
 6837TIP3    H141926   2.882   2.153  14.228 -0.8466 -0.8853 -0.8937
 6837TIP3    H241927   2.917   2.284  14.161  0.6047 -0.4344  0.7044
 6838TIP3   OH241928   3.500   0.929  14.790  0.1756  0.2246 -0.3159
 6838TIP3    H141929   3.520   0.996  14.856 -1.6773  1.1428 -0.6357
 6838TIP3    H241930   3.507   0.846  14.838  1.0023  0.7462  0.4810
 6839TIP3   OH241931   3.716   0.407   0.851  0.3743 -0.1945  0.4738
 6839TIP3    H141932   3.738   0.499   0.867 -1.9047  0.5575 -0.5037
 6839TIP3    H241933   3.655   0.385   0.922 -0.5592 -0.3580 -0.3663
 6840TIP3   OH241934   4.371   1.363  15.738 -0.2617  0.4033  0.2649
 6840TIP3    H141935   4.423   1.371  15.818 -0.0032  1.0051  0.0391
 6840TIP3    H241936   4.337   1.274  15.740  0.1668  0.2500  0.7892
 6841TIP3   OH241937   2.396   0.291  14.151  0.1684 -0.7784  0.6935
 6841TIP3    H141938   2.429   0.228  14.216  1.2416 -0.4252  0.5072
 6841TIP3    H241939   2.451   0.277  14.074 -0.7562 -0.8255  0.0324
 6842TIP3   OH241940   4.812   7.150  14.857 -0.2105  0.4565  0.2598
 6842TIP3    H141941   4.782   7.233  14.819  0.9874  0.4381 -0.7447
 6842TIP3    H241942   4.793   7.160  14.951 -2.9472  0.5966 -0.2462
 6843TIP3   OH241943   2.056   5.819  15.543  0.2390 -0.4638 -0.1682
 6843TIP3    H141944   2.030   5.765  15.468  1.7454  0.1743 -1.1766
 6843TIP3    H241945   1.979   5.874  15.560 -1.6288 -3.4479  1.4104
 6844TIP3   OH241946   7.164   5.159  14.187  0.0063  0.5557  0.6340
 6844TIP3    H141947   7.137   5.136  14.098 -0.1896 -2.8932  1.5063
 6844TIP3    H241948   7.097   5.221  14.217 -1.6340 -0.5993 -0.5537
 6845TIP3   OH241949   1.022   2.145  13.861  0.3463 -0.3126 -0.2604
 6845TIP3    H141950   0.986   2.060  13.887 -0.5078  0.4353  1.0805
 6845TIP3    H241951   0.945   2.199  13.844  0.8029  1.0575  1.8161
 6846TIP3   OH241952   6.367   1.817  13.627  0.7226 -0.1958 -0.1980
 6846TIP3    H141953   6.310   1.755  13.582  2.1971 -0.8637 -1.1900
 6846TIP3    H241954   6.357   1.899  13.578  0.8544 -0.4045 -0.5819
 6847TIP3   OH241955   3.672   1.069  14.599 -0.5288 -0.0132  0.5037
 6847TIP3    H141956   3.741   1.128  14.631 -0.3231  0.4466 -0.7708
 6847TIP3    H241957   3.629   1.039  14.679  2.6352 -2.1643  1.5112
 6848TIP3   OH241958   3.657   1.274  12.990  0.2114  0.3668  0.3243
 6848TIP3    H141959   3.686   1.307  12.905  0.3441  3.2326  1.4169
 6848TIP3    H241960   3.736   1.235  13.028  0.5056  0.3374 -0.3044
 6849TIP3   OH241961   2.993   0.991   0.062 -0.1324  0.0712 -0.3377
 6849TIP3    H141962   2.941   1.016   0.138 -0.0477  1.8239 -0.8561
 6849TIP3    H241963   3.071   1.046   0.067  1.3918 -2.0628  0.0645
 6850TIP3   OH241964   4.606   3.194  14.139  0.3416 -0.6140  0.2781
 6850TIP3    H141965   4.625   3.100  14.141 -1.6122 -1.0563 -0.6082
 6850TIP3    H241966   4.579   3.211  14.049 -0.7957  0.4921  0.8163
 6851TIP3   OH241967   5.901   2.465  13.197 -0.3141 -0.2323  0.2113
 6851TIP3    H141968   5.888   2.544  13.146 -0.9979 -0.6355 -0.2438
 6851TIP3    H241969   5.882   2.490  13.287 -1.0638 -0.0214 -0.0113
 6852TIP3   OH241970   2.395   1.065  15.284  0.3072  0.1053 -0.6797
 6852TIP3    H141971   2.367   1.095  15.197 -0.5850 -4.4756 -2.1112
 6852TIP3    H241972   2.421   0.974  15.270  1.8345 -0.1790  3.5590
 6853TIP3   OH241973   4.898   1.947  14.260 -0.9634  0.1535  0.1845
 6853TIP3    H141974   4.811   1.960  14.223 -0.2842  0.4249 -1.3774
 6853TIP3    H241975   4.952   1.922  14.185  0.5367  1.1154  0.9182
 6854TIP3   OH241976   0.970   1.344  14.077  0.4978 -0.2765 -0.2017
 6854TIP3    H141977   0.959   1.367  14.170  1.9211  0.1487 -0.1228
 6854TIP3    H241978   1.058   1.307  14.072  0.4973 -0.1294 -1.4130
 6855TIP3   OH241979   3.384   3.048  14.852 -0.6600  0.2494 -0.4588
 6855TIP3    H141980   3.341   2.972  14.813  0.2377 -0.2087 -0.5819
 6855TIP3    H241981   3.475   3.042  14.821 -0.9833  2.3574 -1.9285
 6856TIP3   OH241982   4.871   1.249   0.840 -0.5004 -0.1127 -0.7462
 6856TIP3    H141983   4.804   1.250   0.908 -0.3679  0.8373 -0.6242
 6856TIP3    H241984   4.953   1.269   0.887  0.2011 -3.1985 -0.5576
 6857TIP3   OH241985   5.167   6.510  15.495  0.6824 -0.5351  0.4187
 6857TIP3    H141986   5.233   6.549  15.552  0.1699  0.3506  0.4200
 6857TIP3    H241987   5.113   6.584  15.467  0.8587 -0.9815 -1.1263
 6858TIP3   OH241988   1.792   5.773  12.870 -0.0482 -0.1290 -0.0162
 6858TIP3    H141989   1.802   5.689  12.914 -0.9442  0.7477  1.8888
 6858TIP3    H241990   1.872   5.783  12.818  0.0592 -2.1326 -0.2486
 6859TIP3   OH241991   5.092   5.815  13.411 -0.1639 -0.3490  0.5474
 6859TIP3    H141992   5.160   5.756  13.378  0.7674  0.9771  0.0313
 6859TIP3    H241993   5.089   5.885  13.346 -3.0352 -1.1182 -0.1780
 6860TIP3   OH241994   3.275   0.379  13.336 -0.9177  0.7164  0.4832
 6860TIP3    H141995   3.223   0.298  13.337  0.0271  0.1112  0.4624
 6860TIP3    H241996   3.365   0.350  13.325 -0.6888  1.8502 -0.6380
 6861TIP3   OH241997   6.033   1.422   2.418  0.0919  0.0332  0.6007
 6861TIP3    H141998   5.983   1.360   2.365 -0.5345  0.6941  0.4064
 6861TIP3    H241999   6.094   1.463   2.357  0.4171 -0.3010  0.7027
 6862TIP3   OH242000   5.574   0.070  13.113 -0.5649 -0.1564  0.6069
 6862TIP3    H142001   5.513   0.110  13.175  0.0923 -1.9936  2.4617
 6862TIP3    H242002   5.579  -0.021  13.139  2.6267 -0.1506  0.1808
 6863TIP3   OH242003   3.410   1.637  15.066 -0.4669 -0.1947  0.6063
 6863TIP3    H142004   3.333   1.672  15.110  0.1685  0.4753  1.1759
 6863TIP3    H242005   3.428   1.554  15.111 -0.3919  0.0247  0.9807
 6864TIP3   OH242006   4.516   1.147  15.508  0.4729 -0.2273 -0.1791
 6864TIP3    H142007   4.585   1.113  15.451  1.7833 -2.4011  2.5546
 6864TIP3    H242008   4.561   1.211  15.563 -0.6189  1.3663 -1.1391
 6865TIP3   OH242009   1.292   0.589  12.512  0.4505 -0.3774 -0.1592
 6865TIP3    H142010   1.240   0.508  12.507  0.2356 -0.2856  0.4368
 6865TIP3    H242011   1.369   0.564  12.562 -0.4743  0.2035  1.6020
 6866TIP3   OH242012   4.766   2.701   0.867 -0.2832  0.2552 -0.0256
 6866TIP3    H142013   4.676   2.719   0.840 -0.1988  2.0792  0.8253
 6866TIP3    H242014   4.772   2.606   0.868 -2.5606  0.0925  1.0482
 6867TIP3   OH242015   1.996   0.625   0.329  0.0670 -0.5946  0.7180
 6867TIP3    H142016   2.048   0.704   0.341  0.4503 -0.6406 -0.5852
 6867TIP3    H242017   1.912   0.656   0.294 -0.2361 -0.6606  1.3730
 6868TIP3   OH242018   2.275   0.650  14.834  0.2846  0.1616  0.1269
 6868TIP3    H142019   2.328   0.632  14.756  2.1438  0.1304  1.3625
 6868TIP3    H242020   2.339   0.678  14.900 -1.3910  1.3323  1.2959
 6869TIP3   OH242021   5.370   1.673  15.508 -0.4459  0.1001  0.0658
 6869TIP3    H142022   5.383   1.757  15.465  0.9640  0.6079  1.4225
 6869TIP3    H242023   5.285   1.642  15.477 -0.9486  2.0065 -0.4785
 6870TIP3   OH242024   5.768   0.732  13.581 -0.1241  0.4702 -0.3009
 6870TIP3    H142025   5.836   0.708  13.518  0.1334 -0.1211  0.1982
 6870TIP3    H242026   5.792   0.821  13.608  1.3109 -0.2883  0.9885
 6871TIP3   OH242027   3.594   6.828  12.038  0.0058  0.2058  0.5575
 6871TIP3    H142028   3.687   6.832  12.016  0.3880 -1.1734  1.8253
 6871TIP3    H242029   3.592   6.824  12.133 -1.2564 -1.6356  0.4882
 6872TIP3   OH242030   2.972   1.466  13.194  0.0055  0.2759  0.5264
 6872TIP3    H142031   3.026   1.499  13.122 -2.8206  3.4474 -0.2575
 6872TIP3    H242032   2.909   1.408  13.151 -1.6480  2.1267  0.3863
 6873TIP3   OH242033   3.848   0.216  15.269 -0.1547 -0.1416 -0.0404
 6873TIP3    H142034   3.774   0.272  15.290  0.2534  0.7726 -0.9721
 6873TIP3    H242035   3.917   0.277  15.241  1.0458 -0.9503  1.0895
 6874TIP3   OH242036   5.195   0.396  11.514  0.0188 -0.8919 -0.1136
 6874TIP3    H142037   5.181   0.458  11.443  0.3525 -1.6862 -0.8831
 6874TIP3    H242038   5.140   0.428  11.585  0.5471  0.5573 -0.3257
 6875TIP3   OH242039   3.672   1.977  13.101  0.0458 -0.0710  0.1661
 6875TIP3    H142040   3.734   2.021  13.160  2.0253 -1.8235 -0.5471
 6875TIP3    H242041   3.630   1.911  13.156  0.2509 -0.2025  0.1655
 6876TIP3   OH242042   4.694   1.338  12.202  0.5973 -0.1955  0.1596
 6876TIP3    H142043   4.709   1.428  12.173 -0.8036  0.2528  0.7570
 6876TIP3    H242044   4.698   1.343  12.298  0.1253 -0.6957  0.2074
 6877TIP3   OH242045   4.167   0.289  15.314  0.4009  0.8946 -0.3602
 6877TIP3    H142046   4.166   0.384  15.328  1.8296  0.8493  0.1522
 6877TIP3    H242047   4.166   0.279  15.219  0.1927  1.4323 -0.4171
 6878TIP3   OH242048   5.830   1.851  14.512 -0.0276  0.0464 -0.2310
 6878TIP3    H142049   5.837   1.756  14.507 -1.7845 -0.1321  0.1902
 6878TIP3    H242050   5.817   1.869  14.605 -1.0797  0.5762 -0.4759
 6879TIP3   OH242051   4.255   1.479  15.536 -0.3871 -0.5321 -0.0345
 6879TIP3    H142052   4.286   1.439  15.617 -0.7040  1.2946  1.0091
 6879TIP3    H242053   4.181   1.533  15.562 -0.4833  0.1032 -1.5524
 6880TIP3   OH242054   4.883   0.538  14.901  0.2869  0.7164 -0.5721
 6880TIP3    H142055   4.900   0.580  14.985 -0.7684 -1.5922  0.8562
 6880TIP3    H242056   4.788   0.540  14.891  0.2632 -0.7254 -0.7738
 6881TIP3   OH242057   2.779   0.251  15.007 -0.6521 -0.0122  0.1375
 6881TIP3    H142058   2.824   0.335  15.004  0.0243 -0.3908 -0.4593
 6881TIP3    H242059   2.775   0.229  15.100  2.0796 -0.8582  0.1028
 6882TIP3   OH242060   4.290   1.848  13.428  0.1821 -0.1158  0.4915
 6882TIP3    H142061   4.243   1.931  13.434  0.5754  0.2484 -1.2368
 6882TIP3    H242062   4.285   1.824  13.336 -0.7639 -2.5331  1.1427
 6883TIP3   OH242063   2.461   0.545  14.675  0.2289 -0.1095 -0.0993
 6883TIP3    H142064   2.507   0.474  14.720  1.4952  0.5364 -0.3492
 6883TIP3    H242065   2.473   0.526  14.582  0.1931  0.2013 -0.1662
 6884TIP3   OH242066   5.202   3.124  13.473 -0.1750  0.0298 -0.8031
 6884TIP3    H142067   5.276   3.065  13.483  0.1970  0.5456 -0.5065
 6884TIP3    H242068   5.212   3.161  13.385  1.4349  2.1609  0.2573
 6885TIP3   OH242069   2.721   6.773   0.672 -0.1186 -0.4413  0.1629
 6885TIP3    H142070   2.663   6.845   0.647  1.3239  0.2623 -1.2138
 6885TIP3    H242071   2.806   6.816   0.689  1.0984 -1.9626 -1.9282
 6886TIP3   OH242072   4.272   6.523  14.883  0.0108 -0.4591 -0.5429
 6886TIP3    H142073   4.338   6.501  14.818  0.1498  0.3254 -0.6757
 6886TIP3    H242074   4.233   6.605  14.852 -1.6164 -1.3418 -0.9088
 6887TIP3   OH242075   5.614   1.967  15.817 -0.0740 -0.0584 -0.9562
 6887TIP3    H142076   5.630   1.917  15.897 -1.0244 -1.9464 -1.9286
 6887TIP3    H242077   5.655   2.052  15.834 -0.2716 -0.4090  1.5504
 6888TIP3   OH242078   2.953   6.026  14.209 -0.0943  0.1430  0.3723
 6888TIP3    H142079   2.965   5.953  14.147  0.0521 -0.7702  1.4620
 6888TIP3    H242080   3.004   6.098  14.170 -0.2704 -0.3107 -0.7335
 6889TIP3   OH242081   4.161   0.692  13.970 -0.1705 -0.0138  0.1074
 6889TIP3    H142082   4.240   0.668  13.921 -1.5224 -3.2493 -0.5977
 6889TIP3    H242083   4.106   0.614  13.967 -2.4983  1.4514  2.4512
 6890TIP3   OH242084   5.612   7.050  15.398 -0.0037  0.6409 -0.1810
 6890TIP3    H142085   5.701   7.069  15.369  0.2484  0.9406  0.7742
 6890TIP3    H242086   5.609   6.955  15.406  1.3619  0.8257  3.2864
 6891TIP3   OH242087   7.199   0.752  13.296 -0.1080  0.2557  0.1101
 6891TIP3    H142088   7.159   0.825  13.343  0.5786  0.2744  0.6679
 6891TIP3    H242089   7.288   0.781  13.277 -0.2932  0.1378 -0.9663
 6892TIP3   OH242090   3.850   1.958   0.660 -0.3506 -0.5534  0.1717
 6892TIP3    H142091   3.944   1.949   0.673 -0.0124  0.5895 -1.3407
 6892TIP3    H242092   3.814   1.873   0.685  0.9923 -0.7748  1.4298
 6893TIP3   OH242093   3.317   3.592  13.080  0.6010  0.3256  0.5967
 6893TIP3    H142094   3.255   3.597  13.007  0.1389 -0.4924  0.9294
 6893TIP3    H242095   3.334   3.683  13.103  1.1189  0.6084 -0.8421
 6894TIP3   OH242096   5.518   6.531  12.287  0.0971 -0.3079 -0.0977
 6894TIP3    H142097   5.494   6.595  12.220  1.3816  0.4892  0.2046
 6894TIP3    H242098   5.612   6.520  12.278  0.0194 -1.5324  0.4249
 6895TIP3   OH242099   6.386   0.275   0.629  0.1024 -0.4141  0.1442
 6895TIP3    H142100   6.390   0.217   0.705 -1.4015  0.2215  0.7255
 6895TIP3    H242101   6.294   0.304   0.626  0.0154 -0.8388 -2.1996
 6896TIP3   OH242102   6.997   2.430  12.975  0.2059 -0.3329  0.1315
 6896TIP3    H142103   7.007   2.481  12.894  2.1818 -0.5660  0.2071
 6896TIP3    H242104   7.003   2.339  12.947 -1.2650 -0.4743  0.2680
 6897TIP3   OH242105   5.876   7.119  15.361 -0.3164  0.3233 -0.6425
 6897TIP3    H142106   5.930   7.104  15.284  0.5177  0.9545 -0.1916
 6897TIP3    H242107   5.828   7.199  15.341 -0.2335  0.3886 -0.5858
 6898TIP3   OH242108   3.884   0.629  11.613 -0.2834  0.3609  0.5040
 6898TIP3    H142109   3.870   0.665  11.526  0.3254  0.7832  0.5786
 6898TIP3    H242110   3.852   0.698  11.672  0.6597  0.6858  0.6425
 6899TIP3   OH242111   2.800   0.177  14.057 -0.5087 -0.5087 -0.1365
 6899TIP3    H142112   2.748   0.105  14.021 -0.0064 -0.4327 -1.0309
 6899TIP3    H242113   2.848   0.212  13.981 -1.5222  1.4295  0.0868
 6900TIP3   OH242114   4.005   1.694  13.695  0.5208  0.6277 -0.2857
 6900TIP3    H142115   4.097   1.717  13.706  0.4209  1.4998 -1.1959
 6900TIP3    H242116   3.967   1.702  13.783  1.4243 -0.2477  0.1840
 6901TIP3   OH242117   5.294   1.570  13.036  0.2761 -0.2322 -0.2840
 6901TIP3    H142118   5.272   1.496  12.981  0.0082 -1.2909  1.2216
 6901TIP3    H242119   5.373   1.543  13.083  1.5116  1.3151 -1.3868
 6902TIP3   OH242120   3.635   3.400  14.653  0.2602  0.2606 -0.2092
 6902TIP3    H142121   3.654   3.307  14.640 -0.5833  0.0631 -0.0131
 6902TIP3    H242122   3.641   3.437  14.565  2.9213  0.4694  0.0125
 6903TIP3   OH242123   5.363   2.965   0.245 -0.1791 -0.2641  0.4164
 6903TIP3    H142124   5.312   3.045   0.231 -0.6093 -0.4364  1.0107
 6903TIP3    H242125   5.299   2.894   0.237  0.2293 -0.5601 -0.2694
 6904TIP3   OH242126   6.331   2.452  11.345  0.1615  0.0927  0.0128
 6904TIP3    H142127   6.366   2.422  11.261  1.1652  0.2421  0.3724
 6904TIP3    H242128   6.265   2.517  11.321 -0.0714 -0.3891 -0.6830
 6905TIP3   OH242129   6.441   6.742  15.287  0.8372 -0.4129  0.3855
 6905TIP3    H142130   6.506   6.806  15.315  1.0027  0.3957 -1.7664
 6905TIP3    H242131   6.361   6.793  15.272  0.3838 -1.0298  0.6543
 6906TIP3   OH242132   3.931   2.159  13.676  0.2944 -0.5350 -0.0255
 6906TIP3    H142133   3.859   2.100  13.698  0.2040 -1.7211 -3.1651
 6906TIP3    H242134   3.969   2.121  13.596  1.3029  2.7221 -1.1797
 6907TIP3   OH242135   3.934   1.349   0.004  0.2613  0.3303 -0.2993
 6907TIP3    H142136   3.905   1.430   0.047  1.1654  0.6829 -0.3382
 6907TIP3    H242137   3.960   1.377  -0.084 -3.1297 -0.6483 -1.6859
 6908TIP3   OH242138   0.011   1.487  12.977 -0.4595  0.3332 -0.6243
 6908TIP3    H142139  -0.046   1.418  12.942 -2.0237  1.2985 -0.0197
 6908TIP3    H242140   0.100   1.457  12.957 -1.1487 -1.4667 -1.0764
 6909TIP3   OH242141   2.788   2.202  15.551 -0.1023 -0.7730 -0.2811
 6909TIP3    H142142   2.844   2.159  15.616  0.0968  1.9144  1.4197
 6909TIP3    H242143   2.709   2.225  15.599  0.3597  1.9391 -0.7369
 6910TIP3   OH242144   4.481   1.184  12.148  0.2201 -0.0072  0.4942
 6910TIP3    H142145   4.413   1.238  12.107  0.0233  0.7656  1.7907
 6910TIP3    H242146   4.554   1.244  12.161  0.5369 -0.4196  0.6215
 6911TIP3   OH242147   6.804   2.233  12.816 -0.2403  0.2474 -0.2017
 6911TIP3    H142148   6.833   2.320  12.788 -0.0304  0.4194  0.5220
 6911TIP3    H242149   6.708   2.237  12.813 -0.2548  0.7904  0.6443
 6912TIP3   OH242150   4.316   2.614  15.012 -0.7424  0.0235  0.0425
 6912TIP3    H142151   4.283   2.557  14.943  1.2450 -2.2264  0.8757
 6912TIP3    H242152   4.399   2.648  14.977 -1.9203  2.5085 -0.4657
 6913TIP3   OH242153   4.659   0.963  15.347 -0.6679 -0.3183  0.1916
 6913TIP3    H142154   4.665   0.972  15.252 -0.0246  1.2430  0.3681
 6913TIP3    H242155   4.742   0.924  15.373 -0.8092 -0.6661  0.1186
 6914TIP3   OH242156   5.197   6.119  14.801 -0.0395  0.3572 -0.5899
 6914TIP3    H142157   5.153   6.120  14.886  2.0914 -0.2369  0.5391
 6914TIP3    H242158   5.290   6.126  14.821  0.6137 -1.4025 -2.7766
 6915TIP3   OH242159   3.700   2.557  14.902  0.2313 -0.1800 -0.2543
 6915TIP3    H142160   3.739   2.579  14.987  1.4657  0.3368 -0.9371
 6915TIP3    H242161   3.665   2.641  14.871 -0.6612 -0.4685 -0.0414
 6916TIP3   OH242162   2.270   5.932  13.687  0.0595 -0.0288 -0.2296
 6916TIP3    H142163   2.289   6.009  13.740 -0.6289  1.0207 -1.4978
 6916TIP3    H242164   2.267   5.964  13.598 -2.5111 -1.1044 -0.5566
 6917TIP3   OH242165   6.075   6.929  14.962  0.1070 -0.5547  0.4385
 6917TIP3    H142166   6.053   6.915  14.870  0.1198 -2.4762  0.7078
 6917TIP3    H242167   6.169   6.909  14.967 -0.0904 -1.3689  1.0302
 6918TIP3   OH242168   3.174   7.135   1.221  0.4436 -0.5428 -0.1168
 6918TIP3    H142169   3.180   7.129   1.125  0.7610  1.0790 -0.2034
 6918TIP3    H242170   3.129   7.054   1.247  1.3112 -1.5084 -1.5400
 6919TIP3   OH242171   5.718   3.075  13.252  0.0356  0.0817 -0.1072
 6919TIP3    H142172   5.804   3.035  13.266 -0.0139  0.4332  1.2828
 6919TIP3    H242173   5.713   3.146  13.316 -1.6673 -0.5178  0.4613
 6920TIP3   OH242174   3.820   0.103  14.123 -0.0610  0.4162  0.2866
 6920TIP3    H142175   3.733   0.144  14.120 -0.4458 -0.3847  0.4271
 6920TIP3    H242176   3.807   0.016  14.087  0.5404  0.0309  0.9850
 6921TIP3   OH242177   4.617   0.408  15.056  0.1637  0.1213 -0.1211
 6921TIP3    H142178   4.579   0.418  15.144  0.4185  0.4685 -0.0512
 6921TIP3    H242179   4.686   0.343  15.068  0.9429  0.9888  0.1655
 6922TIP3   OH242180   2.808   0.268  14.311 -0.1638  0.5466 -0.3108
 6922TIP3    H142181   2.808   0.237  14.221  1.1152  0.1101 -0.1674
 6922TIP3    H242182   2.875   0.337  14.313  1.2462 -0.8131  0.7494
 6923TIP3   OH242183   3.054   1.201  13.980 -0.3116  0.2908 -0.6849
 6923TIP3    H142184   3.019   1.147  14.050  0.4547 -1.4361 -1.5820
 6923TIP3    H242185   2.978   1.229  13.929 -0.5569 -2.2357 -1.7887
 6924TIP3   OH242186   2.273   1.283  12.976  0.4387  0.7495 -0.3834
 6924TIP3    H142187   2.313   1.259  13.060 -0.3773  1.8876  0.3458
 6924TIP3    H242188   2.202   1.219  12.965  0.8728  0.2743 -0.4736
 6925TIP3   OH242189   5.116   3.372  14.283 -0.4026  0.1064 -0.4396
 6925TIP3    H142190   5.126   3.278  14.272  2.1622  0.4397 -1.2625
 6925TIP3    H242191   5.111   3.385  14.377 -1.7019 -0.9082 -0.3503
 6926TIP3   OH242192   3.062   6.167  14.962  0.0579  0.0744  0.2246
 6926TIP3    H142193   3.059   6.072  14.953 -1.5558  0.1032  0.2761
 6926TIP3    H242194   3.025   6.200  14.879 -1.5093  0.6008  1.1114
 6927TIP3   OH242195   6.483   0.941  15.405  0.3442 -0.2477 -0.6049
 6927TIP3    H142196   6.390   0.919  15.418  0.4207  0.4680  1.3543
 6927TIP3    H242197   6.510   0.889  15.329 -1.3331 -1.4102 -0.4290
 6928TIP3   OH242198   1.628   1.072  14.427  0.5413  0.3590  0.3786
 6928TIP3    H142199   1.720   1.056  14.408 -0.1440 -0.4867 -2.4116
 6928TIP3    H242200   1.604   1.145  14.370 -0.9636 -0.5532 -0.1785
 6929TIP3   OH242201   3.459   1.108  12.889  0.2840  0.2289 -0.2977
 6929TIP3    H142202   3.532   1.168  12.904  0.4085  0.3519 -1.3916
 6929TIP3    H242203   3.500   1.023  12.875  0.0918 -0.1983  1.6139
 6930TIP3   OH242204   6.370   1.789  14.919  0.0012 -0.1624  0.1206
 6930TIP3    H142205   6.325   1.855  14.868  1.8877  1.3458  0.3577
 6930TIP3    H242206   6.367   1.821  15.009  0.1284 -0.8596  0.3805
 6931TIP3   OH242207   5.470   2.431  15.318  0.1501 -0.7610  0.2719
 6931TIP3    H142208   5.528   2.416  15.244  1.1261 -1.7075  1.2128
 6931TIP3    H242209   5.525   2.419  15.395 -1.0839 -0.8093  1.1668
 6932TIP3   OH242210   6.205   0.507  12.940  0.6097 -0.6142 -0.5417
 6932TIP3    H142211   6.301   0.508  12.939  0.5969  0.5148 -2.1000
 6932TIP3    H242212   6.182   0.432  12.996  2.3882  0.0406  1.0963
 6933TIP3   OH242213   4.000   1.255  15.360  0.4386  0.1074 -0.7592
 6933TIP3    H142214   3.974   1.290  15.446  0.7332 -0.2150 -0.5411
 6933TIP3    H242215   4.095   1.253  15.362  0.5225  1.6992 -1.7202
 6934TIP3   OH242216   2.574   5.369  13.923 -0.0119  0.2178  0.2190
 6934TIP3    H142217   2.657   5.323  13.909  0.1006  0.7940 -1.1487
 6934TIP3    H242218   2.597   5.462  13.917 -0.8440  0.3736 -0.8051
 6935TIP3   OH242219   3.929   2.005   1.164  0.1139 -0.0555  0.7775
 6935TIP3    H142220   3.966   1.918   1.179  0.3943 -0.0113  0.3608
 6935TIP3    H242221   4.005   2.063   1.164  0.0571  0.0309 -0.1142
 6936TIP3   OH242222   3.545   3.215  15.098  0.0926  0.0863 -0.8735
 6936TIP3    H142223   3.578   3.276  15.033  1.3223  0.3259 -0.0557
 6936TIP3    H242224   3.481   3.266  15.149 -0.0329  0.2304 -1.1752
 6937TIP3   OH242225   5.400   1.476  15.699 -0.1303  0.4134 -0.1835
 6937TIP3    H142226   5.392   1.556  15.646 -1.7628  1.9133  2.2667
 6937TIP3    H242227   5.314   1.434  15.692  0.2366 -0.3558 -0.1801
 6938TIP3   OH242228   5.711   0.662  14.717 -0.1815 -0.0484  0.0631
 6938TIP3    H142229   5.801   0.678  14.747  0.2677  0.0425 -1.3286
 6938TIP3    H242230   5.671   0.749  14.716 -0.2172 -0.0576  0.4362
 6939TIP3   OH242231   3.610   4.815  12.660 -0.1899  0.1877  0.3669
 6939TIP3    H142232   3.645   4.848  12.577 -0.8079 -1.0863 -0.4223
 6939TIP3    H242233   3.515   4.829  12.653 -0.1886  0.5319  1.0622
 6940TIP3   OH242234   3.947   2.901   2.602  0.5299 -0.3015 -0.3790
 6940TIP3    H142235   4.030   2.902   2.554  1.8801  1.4699  1.8461
 6940TIP3    H242236   3.945   2.814   2.644  0.4531 -0.9701 -1.7548
 6941TIP3   OH242237   4.820   2.861  15.157 -0.1455  0.3776 -0.3219
 6941TIP3    H142238   4.904   2.864  15.110 -0.5483  0.1072 -1.0583
 6941TIP3    H242239   4.763   2.919  15.107 -0.5395  0.1912 -0.0879
 6942TIP3   OH242240   5.514   1.389   0.834  0.1154 -0.0065 -0.0397
 6942TIP3    H142241   5.473   1.431   0.910 -0.1983 -0.7997  0.2328
 6942TIP3    H242242   5.482   1.299   0.835  0.9975 -0.3405 -0.4568
 6943TIP3   OH242243   2.360   0.527  13.734 -0.2651 -0.4581  0.2301
 6943TIP3    H142244   2.453   0.517  13.711 -0.3336 -1.0479  0.2215
 6943TIP3    H242245   2.313   0.488  13.661 -0.5030 -1.1150  0.7306
 6944TIP3   OH242246   5.567   0.322   0.728  0.6831 -0.1335  0.2421
 6944TIP3    H142247   5.580   0.233   0.697 -0.8595 -0.5282  0.7039
 6944TIP3    H242248   5.578   0.317   0.823 -1.1759 -0.1804  0.4638
 6945TIP3   OH242249   2.488   0.935   0.331 -0.3279 -0.3143 -0.1395
 6945TIP3    H142250   2.532   1.020   0.324 -1.2504  0.0868 -1.1193
 6945TIP3    H242251   2.422   0.948   0.400 -0.6137 -0.1757 -0.4403
 6946TIP3   OH242252   4.297   1.277  13.998  0.5323  0.2148  0.1811
 6946TIP3    H142253   4.325   1.214  13.932  0.5432  1.1806 -0.7538
 6946TIP3    H242254   4.296   1.361  13.952  0.7181  0.9322  1.4600
 6947TIP3   OH242255   4.864   1.752  15.544  0.0262  0.4265 -0.0310
 6947TIP3    H142256   4.821   1.762  15.459  0.2900  0.8552 -0.1096
 6947TIP3    H242257   4.951   1.789  15.532  0.8953 -1.6275 -0.2466
 6948TIP3   OH242258   4.863   2.102  15.671 -0.2014  0.2361 -0.0819
 6948TIP3    H142259   4.947   2.059  15.656 -0.9808 -1.6220  0.7209
 6948TIP3    H242260   4.827   2.114  15.583  0.7831  0.8333 -0.4138
 6949TIP3   OH242261   4.070   2.209  14.114 -0.4039  0.3196  0.0601
 6949TIP3    H142262   4.164   2.219  14.098 -0.3307  1.1520  0.9620
 6949TIP3    H242263   4.039   2.154  14.042  0.7998 -0.0744 -0.1672
 6950TIP3   OH242264   4.561   6.516   0.532 -0.1095 -0.1111 -0.0470
 6950TIP3    H142265   4.479   6.469   0.543 -0.3165  0.2899  0.1201
 6950TIP3    H242266   4.583   6.505   0.439 -0.7420  0.4263 -0.2598
 6951TIP3   OH242267   4.089   0.934  15.226  0.9159  0.5330 -0.1468
 6951TIP3    H142268   4.077   1.029  15.218  0.5090  0.6854  2.0962
 6951TIP3    H242269   4.118   0.921  15.316  0.1222 -1.5635 -0.1764
 6952TIP3   OH242270   4.814   1.100  14.445 -0.4082  0.4133 -0.1737
 6952TIP3    H142271   4.850   1.065  14.527 -0.0060  0.6572 -0.2451
 6952TIP3    H242272   4.724   1.123  14.467  0.1522  1.9090  0.6294
 6953TIP3   OH242273   4.943   0.621   0.717 -0.1349 -0.0913 -0.0007
 6953TIP3    H142274   4.980   0.544   0.675  1.0294 -0.0859  0.9903
 6953TIP3    H242275   4.848   0.607   0.713  0.0746 -3.3558  3.3405
 6954TIP3   OH242276   6.789   7.005  15.761  0.9836 -0.6137  0.7196
 6954TIP3    H142277   6.779   7.100  15.768  1.8523 -0.6336  2.3534
 6954TIP3    H242278   6.833   6.992  15.677 -0.6149  0.2971 -0.2887
 6955TIP3   OH242279   5.498   6.779   1.042  0.6282  0.1553  0.0532
 6955TIP3    H142280   5.515   6.846   0.976  1.9843 -1.4927 -1.3280
 6955TIP3    H242281   5.582   6.769   1.088  0.2486 -0.1261  0.6962
 6956TIP3   OH242282   6.159   6.533   0.350  0.1747 -0.8376 -0.3290
 6956TIP3    H142283   6.208   6.454   0.328 -0.2928 -0.7368 -1.8269
 6956TIP3    H242284   6.210   6.604   0.310  0.1899 -0.4577  0.3522
 6957TIP3   OH242285   2.392   7.244  14.504 -0.7193  0.4056 -0.4111
 6957TIP3    H142286   2.464   7.260  14.565 -1.3093  2.3181 -0.1619
 6957TIP3    H242287   2.406   7.155  14.472 -0.1360 -0.4893  2.1811
 6958TIP3   OH242288   4.237   2.135  13.365  0.0223 -0.7342 -0.2625
 6958TIP3    H142289   4.325   2.134  13.329 -0.6539  0.1872 -1.9671
 6958TIP3    H242290   4.181   2.162  13.293 -1.7714 -2.0308  0.5908
 6959TIP3   OH242291   0.734   0.030  13.485  0.3305 -0.0179  0.4802
 6959TIP3    H142292   0.695   0.028  13.398 -1.2493  0.0071  1.1822
 6959TIP3    H242293   0.777   0.115  13.490 -0.9513  0.6437  0.3253
 6960TIP3   OH242294   6.818   2.639  13.031 -0.8407  0.2054  0.7386
 6960TIP3    H142295   6.778   2.636  13.118 -3.6152  0.1341 -0.4799
 6960TIP3    H242296   6.845   2.548  13.014 -1.4632 -0.0393  1.0311
 6961TIP3   OH242297   4.397   1.575  12.578 -0.1400 -0.2953 -0.0850
 6961TIP3    H142298   4.437   1.496  12.542  0.3416 -0.3781  0.6233
 6961TIP3    H242299   4.441   1.588  12.662 -0.1196  0.8017 -0.2558
 6962TIP3   OH242300   5.333   0.381  15.707 -0.6220  0.1414  0.6576
 6962TIP3    H142301   5.372   0.442  15.644  3.3945  0.8107  3.6278
 6962TIP3    H242302   5.253   0.425  15.737 -2.3923  0.0192 -3.4528
 6963TIP3   OH242303   5.487   7.132   1.225 -0.3828 -0.7988  0.0252
 6963TIP3    H142304   5.452   7.184   1.153  0.5603  0.2540  0.3152
 6963TIP3    H242305   5.410   7.102   1.274 -0.9665 -0.5241 -0.7279
 6964TIP3   OH242306   5.213   1.762   0.132  0.0247 -0.3708 -0.0251
 6964TIP3    H142307   5.144   1.723   0.078  0.9556  0.6706 -2.0510
 6964TIP3    H242308   5.291   1.709   0.115  1.2721  2.1717 -2.7335
 6965TIP3   OH242309   5.059   1.013  15.252  0.2260 -0.0305  0.4989
 6965TIP3    H142310   4.993   0.958  15.294  0.2607 -0.9484 -0.6275
 6965TIP3    H242311   5.113   0.952  15.203  0.5826  0.9565 -0.3510
 6966TIP3   OH242312   0.600   7.091  14.361 -0.0054 -0.3651 -0.2475
 6966TIP3    H142313   0.560   7.102  14.447  0.3316 -0.1004 -0.1214
 6966TIP3    H242314   0.538   7.038  14.312 -2.0356  2.6805 -1.1011
 6967TIP3   OH242315   4.317   1.673  12.876  0.1911  0.3016  0.2204
 6967TIP3    H142316   4.251   1.675  12.807  0.4146  0.9993  0.0189
 6967TIP3    H242317   4.395   1.711  12.835  0.1647  1.2280  1.0224
 6968TIP3   OH242318   6.150   1.587  15.103 -0.0535  0.4757  0.4610
 6968TIP3    H142319   6.150   1.510  15.160  2.3647 -0.8938 -1.2993
 6968TIP3    H242320   6.210   1.648  15.146 -1.3268  1.0941  1.4173
 6969TIP3   OH242321   6.327   0.202  14.224  0.0227  0.5031  0.1319
 6969TIP3    H142322   6.361   0.207  14.135 -2.6558  2.4406 -0.8684
 6969TIP3    H242323   6.235   0.177  14.213 -0.1219 -0.0619  2.4055
 6970TIP3   OH242324   4.700   0.734  15.807  0.0864 -0.1809  0.8176
 6970TIP3    H142325   4.789   0.743  15.774  0.9697 -0.9369  2.9508
 6970TIP3    H242326   4.647   0.715  15.729  1.7126  0.6363 -0.5088
 6971TIP3   OH242327   4.366   6.603  14.611 -0.3188 -0.1980 -0.1437
 6971TIP3    H142328   4.427   6.598  14.537 -0.6086 -0.5240 -0.3648
 6971TIP3    H242329   4.385   6.688  14.652 -1.1022  0.6339 -1.4376
 6972TIP3   OH242330   7.187   2.006  13.147  0.2466  0.0162 -0.4464
 6972TIP3    H142331   7.181   1.911  13.157  0.0993  0.0044 -0.6474
 6972TIP3    H242332   7.217   2.037  13.233 -1.1425 -0.0743  0.0867
 6973TIP3   OH242333   5.000   0.127  14.509  0.6672 -0.2513 -0.2326
 6973TIP3    H142334   5.042   0.163  14.431 -1.3774 -0.0864 -1.2934
 6973TIP3    H242335   4.950   0.201  14.545 -0.3902 -0.9817 -0.1895
 6974TIP3   OH242336   6.459   7.044  15.179  0.4110 -0.4596  0.1238
 6974TIP3    H142337   6.530   7.011  15.234  1.9808  1.2608 -0.8184
 6974TIP3    H242338   6.387   7.062  15.240  1.9605  1.0090  1.5861
 6975TIP3   OH242339   5.213   1.160  14.156  0.1566 -0.3602  0.6145
 6975TIP3    H142340   5.133   1.122  14.118 -0.1258 -0.2501  1.0962
 6975TIP3    H242341   5.185   1.244  14.191  0.8360  0.3990 -0.6471
 6976TIP3   OH242342   5.447   0.170  15.140  0.2778 -0.6108  0.0200
 6976TIP3    H142343   5.447   0.110  15.065  1.3180  1.2867 -1.5564
 6976TIP3    H242344   5.497   0.246  15.110  0.1659  0.4753  2.4388
 6977TIP3   OH242345   6.237   0.165  15.781 -0.5123  0.3459  0.2814
 6977TIP3    H142346   6.277   0.088  15.823 -0.7547 -0.6539 -1.2376
 6977TIP3    H242347   6.246   0.235  15.845  0.1272 -0.8441  1.5322
 6978TIP3   OH242348   3.430   5.943  13.516 -0.5577 -0.6482 -0.5148
 6978TIP3    H142349   3.431   5.848  13.500 -0.5655 -0.7637  0.1402
 6978TIP3    H242350   3.486   5.980  13.449  1.2905 -1.3361  0.6102
 6979TIP3   OH242351   6.702   2.355  13.983  0.5118  0.4658  0.1946
 6979TIP3    H142352   6.680   2.264  13.963 -1.0642  0.8001  0.3330
 6979TIP3    H242353   6.622   2.404  13.964  0.9928  1.6773  1.1751
 6980TIP3   OH242354   2.975   7.111  13.525  0.3629  0.2368 -0.0739
 6980TIP3    H142355   3.054   7.067  13.557  1.4336  1.9292 -0.3069
 6980TIP3    H242356   2.906   7.082  13.584  0.9256 -2.1338 -0.5383
 6981TIP3   OH242357   3.988   0.098   0.601 -0.4392 -0.0292 -0.4277
 6981TIP3    H142358   4.008   0.191   0.614 -1.3095  0.1364 -0.1643
 6981TIP3    H242359   3.951   0.070   0.685 -0.4139 -0.5458 -0.5877
 6982TIP3   OH242360   3.178   1.709  14.771 -0.2973  0.0648 -0.3062
 6982TIP3    H142361   3.251   1.762  14.803  0.8685 -3.1439  2.6143
 6982TIP3    H242362   3.102   1.739  14.821 -0.8826  2.7193 -2.6452
 6983TIP3   OH242363   5.084   7.232  14.022  0.4318  0.0667 -0.0283
 6983TIP3    H142364   5.070   7.289  13.946  1.3482 -1.5999 -1.4920
 6983TIP3    H242365   5.146   7.280  14.077  0.6967  0.7735 -0.9254
 6984TIP3   OH242366   4.341   6.543  12.686  0.4816 -0.1497  1.3388
 6984TIP3    H142367   4.372   6.625  12.647  1.2536 -0.7794  0.6015
 6984TIP3    H242368   4.328   6.485  12.611 -0.3521 -0.6080  1.8334
 6985TIP3   OH242369   5.132   1.013  13.180 -0.1681 -0.2859 -0.6943
 6985TIP3    H142370   5.096   1.037  13.095  0.5163  2.3940 -0.2662
 6985TIP3    H242371   5.227   1.011  13.166 -0.0321  0.4718  0.0549
 6986TIP3   OH242372   5.321   1.687  13.636 -0.0563 -0.6693 -0.1119
 6986TIP3    H142373   5.383   1.690  13.709 -0.0330  1.1174 -0.1804
 6986TIP3    H242374   5.351   1.615  13.581  1.2814 -0.5374  0.4328
 6987TIP3   OH242375   2.839   1.013  15.673 -1.1501  0.4552 -0.0217
 6987TIP3    H142376   2.803   1.014  15.762 -2.2286  0.0382 -0.4431
 6987TIP3    H242377   2.904   1.083  15.673 -2.4954  1.7353  0.5457
 6988TIP3   OH242378   5.362   1.352  14.797  0.4831  0.9539 -0.2813
 6988TIP3    H142379   5.322   1.425  14.750 -0.3086  1.0408  0.5071
 6988TIP3    H242380   5.317   1.351  14.882  2.2586  1.1662  0.7046
 6989TIP3   OH242381   5.261   0.529   0.421  0.1168 -0.2747 -0.2190
 6989TIP3    H142382   5.213   0.491   0.348  0.6404  0.4789 -0.9565
 6989TIP3    H242383   5.208   0.603   0.449 -0.1641 -0.6576  0.2785
 6990TIP3   OH242384   4.107   0.930  15.909  0.4212  0.6506  0.3750
 6990TIP3    H142385   4.035   0.921  15.846 -1.0004  0.9058  1.9244
 6990TIP3    H242386   4.164   0.855  15.891 -2.0841 -1.5833  1.4649
 6991TIP3   OH242387   5.477   1.826  14.800  0.0588 -0.1143  0.8867
 6991TIP3    H142388   5.538   1.765  14.758  1.0037 -0.5080  2.7797
 6991TIP3    H242389   5.521   1.912  14.793 -0.8047  0.2081 -0.8685
 6992TIP3   OH242390   6.108   0.304   0.745 -0.2989 -0.0693 -0.5467
 6992TIP3    H142391   6.023   0.286   0.704  0.3328  1.1527 -2.4838
 6992TIP3    H242392   6.091   0.299   0.839 -2.3687 -0.4552 -0.9134
 6993TIP3   OH242393   2.542   4.627  14.758  0.6740  0.3982 -1.0446
 6993TIP3    H142394   2.470   4.609  14.698 -1.0498  3.4069  0.0297
 6993TIP3    H242395   2.543   4.551  14.817 -0.9878 -0.0946 -1.6336
 6994TIP3   OH242396   3.795   1.623  15.147 -0.1337  0.5868 -0.0669
 6994TIP3    H142397   3.736   1.620  15.223  0.8956  0.8450  0.7540
 6994TIP3    H242398   3.781   1.540  15.102 -0.7020  0.4027  0.4410
 6995TIP3   OH242399   3.026   2.887  13.296 -0.3637  0.2049 -0.3580
 6995TIP3    H142400   2.986   2.964  13.336  1.3972  0.6738  0.6024
 6995TIP3    H242401   3.074   2.846  13.369 -2.5467 -2.6859 -0.4761
 6996TIP3   OH242402   5.469   2.696  14.239  0.4021  0.4170 -0.0578
 6996TIP3    H142403   5.488   2.661  14.152 -1.2315  1.0901 -0.6955
 6996TIP3    H242404   5.381   2.734  14.232 -0.2827 -0.6212  2.2094
 6997TIP3   OH242405   3.522   1.383   0.245  0.5145  0.2512  0.0192
 6997TIP3    H142406   3.504   1.289   0.246  0.5291  0.1765 -2.5586
 6997TIP3    H242407   3.517   1.410   0.337 -1.2683 -1.9261  0.6061
 6998TIP3   OH242408   2.903   6.818  15.991  0.7685  0.3687  0.4168
 6998TIP3    H142409   2.976   6.806  16.052 -1.8505 -1.0514  3.4043
 6998TIP3    H242410   2.842   6.876  16.037 -1.0109 -0.2643 -1.0783
 6999TIP3   OH242411   2.470   0.995  14.640 -0.0875 -0.1406 -0.3144
 6999TIP3    H142412   2.540   1.057  14.659  0.5766 -0.9754 -0.0049
 6999TIP3    H242413   2.502   0.911  14.674 -1.9113 -0.2044  1.3035
 7000TIP3   OH242414   4.123   2.761   0.106  0.1086  0.0462 -0.2950
 7000TIP3    H142415   4.036   2.800   0.120  0.6559  0.3578  2.4254
 7000TIP3    H242416   4.105   2.668   0.095 -0.5358  0.0570  0.6182
 7001TIP3   OH242417   4.635   0.167  15.753  0.2165 -0.3098 -0.0504
 7001TIP3    H142418   4.630   0.246  15.700 -0.6320 -0.0691  0.3799
 7001TIP3    H242419   4.582   0.103  15.705  1.9253 -1.0162 -1.0559
 7002TIP3   OH242420   2.725   1.549  13.492 -0.5049 -0.2100 -0.4643
 7002TIP3    H142421   2.680   1.554  13.408  0.8103 -0.0944 -1.1825
 7002TIP3    H242422   2.736   1.640  13.519  1.3829 -0.1006 -1.4640
 7003TIP3   OH242423   5.107   6.925  13.313 -0.2297 -0.0153  0.1614
 7003TIP3    H142424   5.099   7.008  13.266 -0.0527 -0.0038  0.1489
 7003TIP3    H242425   5.181   6.881  13.271 -0.6036 -0.3753 -0.1267
 7004TIP3   OH242426   3.673   0.895  12.817 -0.8349 -0.1444 -0.5800
 7004TIP3    H142427   3.765   0.911  12.835 -1.2632  1.6981  0.1668
 7004TIP3    H242428   3.648   0.825  12.876 -0.2814  0.4232  0.3477
 7005TIP3   OH242429   4.699   5.779  13.346  0.6260  0.0777  0.2083
 7005TIP3    H142430   4.666   5.760  13.258  1.3133 -0.6913  0.0994
 7005TIP3    H242431   4.751   5.701  13.368  0.2266  0.1502  1.4056
 7006TIP3   OH242432   4.262   1.758  13.176  0.2182  0.2406  0.2778
 7006TIP3    H142433   4.216   1.707  13.243 -3.2367  0.4787 -1.7936
 7006TIP3    H242434   4.293   1.692  13.114  0.3162  0.2923  0.2710
 7007TIP3   OH242435   4.779   0.870   1.775 -0.6625  0.0301 -0.7581
 7007TIP3    H142436   4.836   0.883   1.699  0.1016  0.8528 -0.0465
 7007TIP3    H242437   4.818   0.797   1.823 -1.3597 -0.7427 -1.3402
 7008TIP3   OH242438   4.282   6.439  13.822 -0.2357 -0.1397 -0.2300
 7008TIP3    H142439   4.209   6.404  13.770 -0.0469  0.5441 -0.9714
 7008TIP3    H242440   4.358   6.430  13.765 -0.2494  1.7937 -0.5898
 7009TIP3   OH242441   2.216   0.723  15.382  0.6437  0.0117  0.0029
 7009TIP3    H142442   2.157   0.666  15.432 -0.1052  0.7895  0.0142
 7009TIP3    H242443   2.167   0.745  15.303  1.2264  0.0393 -0.3574
 7010TIP3   OH242444   5.500   0.500  14.806 -0.6612  0.0773  0.5250
 7010TIP3    H142445   5.456   0.561  14.747 -0.1947  0.1471  0.2414
 7010TIP3    H242446   5.593   0.509  14.784 -0.6093 -0.8952  0.3244
 7011TIP3   OH242447   2.956   1.282  12.751 -0.2305  0.2318  0.3869
 7011TIP3    H142448   3.024   1.217  12.766 -0.0901  0.7700  2.2235
 7011TIP3    H242449   2.902   1.279  12.830 -1.2409  1.1189 -0.2522
 7012TIP3   OH242450   5.873   3.558  11.394 -0.3211 -0.3537  0.1062
 7012TIP3    H142451   5.950   3.603  11.429 -1.4466  1.3584  0.4410
 7012TIP3    H242452   5.800   3.592  11.445 -1.5599 -0.4901 -1.5247
 7013TIP3   OH242453   5.539   1.393  13.832  0.5377  0.7160  0.4404
 7013TIP3    H142454   5.612   1.406  13.892  0.9650 -2.0806  0.5980
 7013TIP3    H242455   5.461   1.391  13.888  0.5224  2.0094  0.4632
 7014TIP3   OH242456   0.018   6.729  15.857 -0.0653  0.7077  0.1673
 7014TIP3    H142457   0.088   6.791  15.876 -1.1376  2.4009 -1.3009
 7014TIP3    H242458  -0.049   6.746  15.923  0.7628 -0.7467  1.4198
 7015TIP3   OH242459   4.920   1.375   0.575  0.1995 -0.1532  1.2505
 7015TIP3    H142460   5.003   1.378   0.622  0.2731 -0.8911  1.1725
 7015TIP3    H242461   4.858   1.339   0.638  0.3708 -1.4707  0.7014
 7016TIP3   OH242462   3.136   4.065   0.154 -0.1651  0.1557 -0.2418
 7016TIP3    H142463   3.052   4.064   0.107 -1.2837  0.8837  1.6739
 7016TIP3    H242464   3.122   4.005   0.228  1.7378 -1.3648 -1.0783
 7017TIP3   OH242465   6.956   0.771   0.696  0.0021  0.3176  0.7238
 7017TIP3    H142466   6.912   0.838   0.643 -0.3492 -1.0627 -0.8014
 7017TIP3    H242467   7.008   0.721   0.633 -1.5022 -2.2372  1.4010
 7018TIP3   OH242468   6.731   5.264  15.701  0.5442 -0.6622 -0.2460
 7018TIP3    H142469   6.796   5.226  15.761  0.2005  1.3909  1.5258
 7018TIP3    H242470   6.781   5.329  15.651  0.6004 -1.6329 -1.4844
 7019TIP3   OH242471   6.064   7.094   0.785 -0.1864  0.5214  0.2889
 7019TIP3    H142472   5.970   7.076   0.798 -0.1137  0.2371  0.4261
 7019TIP3    H242473   6.097   7.014   0.743  0.2534  0.1118  1.4186
 7020TIP3   OH242474   6.847   7.270  13.362  0.2234  0.3383 -0.1159
 7020TIP3    H142475   6.761   7.250  13.400 -0.2774 -0.6189 -1.6824
 7020TIP3    H242476   6.855   7.365  13.371 -0.2510  0.2429  1.5675
 7021TIP3   OH242477   5.478   0.761  15.120 -0.1270  0.0062  0.5905
 7021TIP3    H142478   5.460   0.745  15.212  0.7379  1.0718  0.9509
 7021TIP3    H242479   5.527   0.684  15.091 -0.2242 -0.2324  1.0631
 7022TIP3   OH242480   0.410   1.746  15.482 -0.2637 -0.0079 -0.1900
 7022TIP3    H142481   0.412   1.832  15.523 -0.8461  1.1414 -2.4738
 7022TIP3    H242482   0.337   1.701  15.524 -1.5631  1.5604 -0.7041
 7023TIP3   OH242483   0.185   3.042  15.806 -0.3004 -0.3026  0.3506
 7023TIP3    H142484   0.101   3.002  15.830 -0.3576  0.6654  1.8274
 7023TIP3    H242485   0.244   3.018  15.878 -0.1657  1.7263  0.9339
 7024TIP3   OH242486   5.106   6.774  15.968 -0.1807 -0.3992  0.3138
 7024TIP3    H142487   5.198   6.793  15.987  0.1047 -0.5572 -0.8812
 7024TIP3    H242488   5.072   6.856  15.932 -0.0045 -0.9058 -1.0307
 7025TIP3   OH242489   4.128   7.050  14.260  0.2806  0.0923  0.0991
 7025TIP3    H142490   4.214   7.008  14.255 -0.1625 -0.7780 -0.3139
 7025TIP3    H242491   4.104   7.068  14.169  0.1883  0.6653  0.2341
 7026TIP3   OH242492   5.142   0.289   1.404  0.1394 -0.4796 -0.3018
 7026TIP3    H142493   5.145   0.292   1.309  0.7137  0.8656 -0.2473
 7026TIP3    H242494   5.232   0.274   1.431 -0.0431 -0.9915  0.0279
 7027TIP3   OH242495   3.554   1.808  13.304  0.0336 -0.3882 -0.0460
 7027TIP3    H142496   3.518   1.873  13.365 -0.7051 -1.4551  0.6680
 7027TIP3    H242497   3.632   1.774  13.347  1.1395  0.9026 -0.9748
 7028TIP3   OH242498   6.496   6.922  13.883 -0.0526  0.2297  0.0320
 7028TIP3    H142499   6.554   6.847  13.898 -1.8641 -0.8382  2.0953
 7028TIP3    H242500   6.508   6.977  13.961 -1.6197  0.1006  0.3827
 7029TIP3   OH242501   6.749   1.218  13.992  0.5359  0.3648  0.0971
 7029TIP3    H142502   6.727   1.127  13.971  0.1385 -0.0678  2.2529
 7029TIP3    H242503   6.670   1.267  13.971  1.1122  0.3827 -2.0839
 7030TIP3   OH242504   5.930   1.008  14.710  0.3195  0.3981  0.6769
 7030TIP3    H142505   5.962   1.096  14.695 -0.1898  0.4527 -0.0800
 7030TIP3    H242506   5.903   0.976  14.624 -2.7180  0.7642  1.4360
 7031TIP3   OH242507   6.114   2.106  14.380  0.1254 -0.6447  0.5947
 7031TIP3    H142508   6.095   2.152  14.299 -0.6913 -1.0479  0.5508
 7031TIP3    H242509   6.030   2.104  14.427  0.3871 -1.1900  1.0479
 7032TIP3   OH242510   4.008   6.362  14.869 -0.0275  0.0154  0.0016
 7032TIP3    H142511   4.050   6.335  14.788 -0.6619 -1.0124  0.0131
 7032TIP3    H242512   4.047   6.448  14.888  1.6896 -0.6833 -0.2524
 7033TIP3   OH242513   5.122   0.915  14.839  0.2456 -0.4855 -0.0310
 7033TIP3    H142514   5.161   0.979  14.779 -1.7514 -0.2628 -1.1525
 7033TIP3    H242515   5.146   0.830  14.803  0.9317 -0.3583  0.1257
 7034TIP3   OH242516   0.610   1.563  15.964  0.1223 -0.0920 -0.2018
 7034TIP3    H142517   0.657   1.494  16.010  0.3372  0.7185  0.8097
 7034TIP3    H242518   0.557   1.606  16.031 -1.2014 -0.2742 -1.1218
 7035TIP3   OH242519   7.178   2.872  14.544 -0.1325 -0.5829 -0.0911
 7035TIP3    H142520   7.248   2.904  14.600 -0.7127  0.6862 -0.0609
 7035TIP3    H242521   7.210   2.788  14.511  1.5228  0.1069 -0.3060
 7036TIP3   OH242522   0.794   6.107  14.492  0.0838 -0.0632 -0.5897
 7036TIP3    H142523   0.848   6.074  14.421  3.0098 -0.0153  1.5418
 7036TIP3    H242524   0.809   6.046  14.564  0.2331  2.0543  1.2266
 7037TIP3   OH242525   3.906   0.711  14.552 -0.2604  0.3853 -0.6873
 7037TIP3    H142526   3.812   0.727  14.555 -0.3600 -0.1530 -0.8654
 7037TIP3    H242527   3.916   0.638  14.490  0.1308 -0.6738  0.6096
 7038TIP3   OH242528   6.021   1.053  15.715  1.6437 -1.1215 -0.1692
 7038TIP3    H142529   6.065   1.109  15.778  0.5060 -1.2462  0.7436
 7038TIP3    H242530   5.964   1.112  15.666  1.6827 -1.2145 -0.3288
 7039TIP3   OH242531   5.792   0.988  13.683 -0.0210 -0.6028  0.0248
 7039TIP3    H142532   5.726   1.026  13.626 -1.8598 -1.6300  1.3946
 7039TIP3    H242533   5.783   1.037  13.765  1.1173 -0.5694  0.1350
 7040TIP3   OH242534   5.688   1.528  13.476  0.4400 -0.0890 -0.1046
 7040TIP3    H142535   5.735   1.458  13.431  1.1717 -0.2216  0.8641
 7040TIP3    H242536   5.602   1.490  13.495  0.7958 -0.6934  0.3274
 7041TIP3   OH242537   0.698   7.134  13.743  0.4153 -0.1988  0.7388
 7041TIP3    H142538   0.638   7.175  13.681  0.9441 -1.6673 -0.7801
 7041TIP3    H242539   0.738   7.207  13.790 -0.5049  0.8990 -0.1597
 7042TIP3   OH242540   0.172   6.749  15.189  0.1111  0.2335  0.2341
 7042TIP3    H142541   0.124   6.784  15.264  1.7425 -2.0346  2.4248
 7042TIP3    H242542   0.253   6.801  15.186  0.4470 -0.2644  0.6083
 7043TIP3   OH242543   6.579   1.842  14.263 -0.4642  0.0602 -0.1368
 7043TIP3    H142544   6.673   1.851  14.276 -0.4862  0.1867 -0.0479
 7043TIP3    H242545   6.543   1.841  14.352 -0.3067 -2.9698 -0.0592
 7044TIP3   OH242546   5.476   1.936   0.910  0.7553 -0.0331  0.6151
 7044TIP3    H142547   5.519   1.951   0.994 -0.9170  0.0957  1.4622
 7044TIP3    H242548   5.383   1.932   0.931  0.4315 -1.6825 -1.0008
 7045TIP3   OH242549   4.509   2.455  13.748 -0.3638 -0.2831  0.3341
 7045TIP3    H142550   4.468   2.383  13.796 -0.2676  0.5154  1.6477
 7045TIP3    H242551   4.436   2.513  13.725 -0.5904 -1.3116 -1.6857
 7046TIP3   OH242552   5.295   6.608  15.086 -0.3301 -0.3404 -0.3392
 7046TIP3    H142553   5.262   6.555  15.013 -0.3861 -1.4839  0.5068
 7046TIP3    H242554   5.254   6.571  15.164  0.8369 -0.0388  0.4362
 7047TIP3   OH242555   6.785   0.001  14.309 -0.0370  0.1990  0.3060
 7047TIP3    H142556   6.782   0.083  14.357 -0.7047  2.0133 -2.7053
 7047TIP3    H242557   6.697  -0.010  14.274 -0.5856 -2.9886  2.4542
 7048TIP3   OH242558   6.499   1.441  13.411  0.0345 -0.2489  0.2459
 7048TIP3    H142559   6.591   1.418  13.395 -0.4190 -1.2732 -1.0502
 7048TIP3    H242560   6.453   1.357  13.404 -0.9166  0.1625  1.5651
 7049TIP3   OH242561   0.480   1.312   0.643 -0.6818  0.1121 -0.5003
 7049TIP3    H142562   0.433   1.285   0.722 -0.3316  0.9076 -0.0192
 7049TIP3    H242563   0.432   1.388   0.611 -0.1416  0.4959 -0.4057
 7050TIP3   OH242564   4.355   1.740   0.591  0.1371  0.2870  0.0590
 7050TIP3    H142565   4.367   1.648   0.566  0.0628  0.4994 -0.7495
 7050TIP3    H242566   4.444   1.771   0.609  0.4940  0.9260 -2.7049
 7051TIP3   OH242567   5.767   2.682  13.096 -0.4646  0.1303 -0.0522
 7051TIP3    H142568   5.713   2.692  13.174 -1.4592 -1.5192 -0.4882
 7051TIP3    H242569   5.707   2.697  13.023 -0.1726 -0.9461 -0.5266
 7052TIP3   OH242570   7.116   0.030  15.731  0.2493 -0.2305 -0.4148
 7052TIP3    H142571   7.205  -0.007  15.735  0.4414  0.2912  0.3767
 7052TIP3    H242572   7.125   0.116  15.772 -1.2741 -1.4779  2.6784
 7053TIP3   OH242573   4.970   1.858  15.877 -0.4053  0.3709 -0.4026
 7053TIP3    H142574   4.877   1.864  15.895 -0.2396  0.3023  0.4683
 7053TIP3    H242575   4.995   1.770  15.903  0.1878  0.8597  0.7282
 7054TIP3   OH242576   6.685   0.191   0.343  0.3316 -0.2029  0.1218
 7054TIP3    H142577   6.641   0.240   0.274 -0.2393  0.7742  1.1486
 7054TIP3    H242578   6.626   0.117   0.361  0.1239 -0.0490  0.0708
 7055TIP3   OH242579   6.675   1.537  14.230 -0.1943 -0.4886  0.4859
 7055TIP3    H142580   6.668   1.479  14.155 -0.1434 -0.7619  0.6925
 7055TIP3    H242581   6.616   1.609  14.210  1.0009  0.2325 -0.5380
 7056TIP3   OH242582   6.150   3.158  14.178 -0.5235  0.0874  0.1481
 7056TIP3    H142583   6.117   3.235  14.224  1.3624 -1.0517  3.6320
 7056TIP3    H242584   6.107   3.084  14.222  1.3649 -1.0406  0.1544
 7057TIP3   OH242585   0.329   0.514  14.460 -0.0146 -0.0614 -0.1580
 7057TIP3    H142586   0.330   0.475  14.373  1.8012 -1.1083  0.2998
 7057TIP3    H242587   0.418   0.546  14.473 -0.3097  0.2161  1.2554
 7058TIP3   OH242588   6.567   3.593  14.896  0.6385 -0.0808  0.3969
 7058TIP3    H142589   6.648   3.542  14.889  1.6409  1.3032  1.6712
 7058TIP3    H242590   6.538   3.605  14.806  2.6455  0.6551 -0.1690
 7059TIP3   OH242591   5.766   0.512  13.310 -0.1668 -0.1355 -0.7251
 7059TIP3    H142592   5.839   0.574  13.299 -0.5608  0.2891 -0.9560
 7059TIP3    H242593   5.796   0.432  13.268  0.2343 -0.0127 -0.6784
 7060TIP3   OH242594   5.229   1.136  15.738  0.1135 -0.6984 -0.4716
 7060TIP3    H142595   5.162   1.083  15.782 -0.7748  0.8690  0.1113
 7060TIP3    H242596   5.180   1.210  15.703  1.5639  0.4687 -0.0431
 7061TIP3   OH242597   6.146   1.324  14.922  0.2449 -0.1874  0.0070
 7061TIP3    H142598   6.236   1.334  14.889  0.5203  1.0147  1.0711
 7061TIP3    H242599   6.151   1.249  14.982  0.8442  0.6930  1.0764
 7062TIP3   OH242600   6.022   2.087  14.834 -0.6968  0.1485 -0.5395
 7062TIP3    H142601   6.035   1.999  14.799 -1.5051 -0.4001  0.5022
 7062TIP3    H242602   5.930   2.106  14.818 -0.5187  0.8250 -0.7858
 7063TIP3   OH242603   1.050   1.489  11.767  0.2188  0.0826  0.5080
 7063TIP3    H142604   1.048   1.583  11.746  0.6128  0.2198  1.0747
 7063TIP3    H242605   0.958   1.464  11.774  0.0562 -0.0705 -1.8362
 7064TIP3   OH242606   4.739   1.112  12.635 -0.1289  0.2364 -0.1595
 7064TIP3    H142607   4.687   1.188  12.659 -0.5797  0.2512 -1.1515
 7064TIP3    H242608   4.678   1.038  12.641  0.8534 -0.4038  2.9813
 7065TIP3   OH242609   7.046   1.400  15.935  0.2374 -0.0606 -0.3209
 7065TIP3    H142610   7.011   1.373  15.850 -1.8460  3.8148 -0.7931
 7065TIP3    H242611   6.971   1.398  15.994  1.0818  0.0108  0.7822
 7066TIP3   OH242612   6.827   2.912  11.094  0.0086  0.1414  0.2641
 7066TIP3    H142613   6.811   2.953  11.179 -0.3804 -0.8236  0.6613
 7066TIP3    H242614   6.741   2.882  11.066 -0.2165  2.2315 -1.4129
 7067TIP3   OH242615   0.849   5.832  15.915  0.4352 -0.0540 -0.5008
 7067TIP3    H142616   0.881   5.907  15.966 -0.6041 -0.0665  0.1935
 7067TIP3    H242617   0.768   5.864  15.875 -0.4062 -1.0298  0.3941
 7068TIP3   OH242618   5.134   0.681   0.165  0.2137 -0.4413 -0.2940
 7068TIP3    H142619   5.228   0.696   0.160  0.2127 -0.5659 -0.6671
 7068TIP3    H242620   5.102   0.752   0.221  0.5818 -0.6393  0.1652
 7069TIP3   OH242621   6.995   5.115  15.522 -0.1399  0.0455 -0.7865
 7069TIP3    H142622   6.949   5.186  15.568  0.3699  1.9018 -3.0692
 7069TIP3    H242623   6.964   5.120  15.432  1.2824 -1.4968 -1.3963
 7070TIP3   OH242624   0.274   1.744  15.762 -0.8176  0.2201 -0.0471
 7070TIP3    H142625   0.198   1.705  15.718 -1.7461  0.5039  1.2739
 7070TIP3    H242626   0.253   1.838  15.767 -0.1716  0.3687 -0.0884
 7071TIP3   OH242627   0.542   1.970   0.989  0.0553 -0.0115 -0.2170
 7071TIP3    H142628   0.476   1.931   1.047  0.6824 -1.6106 -0.5488
 7071TIP3    H242629   0.605   1.899   0.973  1.3571  1.2130 -0.6540
 7072TIP3   OH242630   4.645   1.403  12.814 -0.0509 -0.0847 -0.2176
 7072TIP3    H142631   4.636   1.497  12.796  1.6333  0.1379  0.0246
 7072TIP3    H242632   4.644   1.397  12.910 -1.1026 -0.4121 -0.2498
 7073TIP3   OH242633   5.789   5.901  12.543  0.2982  0.1260  0.6577
 7073TIP3    H142634   5.733   5.826  12.562  0.0796  0.0908 -0.0864
 7073TIP3    H242635   5.753   5.939  12.463  0.4402  1.0000  0.9963
 7074TIP3   OH242636   6.235   6.747   0.206  0.2677  0.2703  0.8601
 7074TIP3    H142637   6.209   6.818   0.265 -0.3981  0.3633  0.4599
 7074TIP3    H242638   6.272   6.791   0.129  0.8472  0.1572  1.0709
 7075TIP3   OH242639   6.129   2.448  14.917  0.6329 -0.1931  0.3051
 7075TIP3    H142640   6.075   2.370  14.920  0.8427 -0.4477 -2.0420
 7075TIP3    H242641   6.081   2.513  14.969 -1.0406 -0.9545 -0.2714
 7076TIP3   OH242642   4.992   1.459  12.302  0.0520 -0.2660  0.0900
 7076TIP3    H142643   4.946   1.530  12.348  2.0314  0.9998  0.1659
 7076TIP3    H242644   4.999   1.389  12.367 -0.2013  0.2159  0.6443
 7077TIP3   OH242645   6.506   7.302  14.281 -0.2005 -0.3250 -0.6158
 7077TIP3    H142646   6.465   7.246  14.347  0.7822  1.5889  1.6644
 7077TIP3    H242647   6.444   7.373  14.267 -1.3545 -1.7832 -3.3700
 7078TIP3   OH242648   6.660   2.609   0.783  0.0961 -0.1552 -0.2918
 7078TIP3    H142649   6.673   2.696   0.745  0.1863  0.2469  0.6542
 7078TIP3    H242650   6.565   2.604   0.797  0.3217  0.6350  1.6348
 7079TIP3   OH242651   5.903   1.389  13.893 -0.0033  0.0269  0.7831
 7079TIP3    H142652   5.979   1.370  13.839 -0.6877 -0.4612 -0.0180
 7079TIP3    H242653   5.874   1.476  13.866 -0.7169 -0.4731 -0.0831
 7080TIP3   OH242654   5.284   5.785  14.006 -0.0603  0.1717 -0.0853
 7080TIP3    H142655   5.298   5.791  14.101  1.8140 -2.5650 -0.1390
 7080TIP3    H242656   5.213   5.722  13.997  0.4063 -0.2823 -0.5512
 7081TIP3   OH242657   3.992   1.108  14.602 -0.4200 -1.0032  0.3559
 7081TIP3    H142658   3.947   1.192  14.612  3.8860  1.2461  2.0463
 7081TIP3    H242659   4.028   1.110  14.514 -0.3441 -1.0716  0.3843
 7082TIP3   OH242660   3.791   0.162  12.372 -0.2902 -0.5021 -0.2875
 7082TIP3    H142661   3.809   0.156  12.278  0.4284 -3.6009 -0.0014
 7082TIP3    H242662   3.704   0.121  12.382  0.6107 -2.2557  0.6382
 7083TIP3   OH242663   6.771   1.652  14.951  0.2830 -0.0709 -0.5330
 7083TIP3    H142664   6.800   1.591  15.018  0.3012  0.8003  0.2734
 7083TIP3    H242665   6.850   1.673  14.901  0.7441  1.0446  0.6303
 7084TIP3   OH242666   3.961   2.087  14.609  0.0837  0.9935 -0.2667
 7084TIP3    H142667   3.934   2.156  14.670 -0.8125 -0.6318  1.2310
 7084TIP3    H242668   3.940   2.121  14.522 -1.7000  2.0163  0.5432
 7085TIP3   OH242669   6.894   1.816  12.040  0.4742  0.1706  0.1209
 7085TIP3    H142670   6.835   1.825  11.966  0.5758 -0.7356 -0.0798
 7085TIP3    H242671   6.926   1.905  12.057  2.1668  0.0965 -2.3409
 7086TIP3   OH242672   6.544   2.729  12.132 -0.1239 -0.3196  0.7098
 7086TIP3    H142673   6.476   2.744  12.197  1.0972  0.7725  1.7765
 7086TIP3    H242674   6.532   2.799  12.068 -0.5333 -0.6435  0.4284
 7087TIP3   OH242675   5.423   7.144  15.596  0.0283 -0.2766 -0.1720
 7087TIP3    H142676   5.414   7.213  15.531  0.6178  0.1680  0.2194
 7087TIP3    H242677   5.486   7.083  15.558  0.4264  0.0195  0.0165
 7088TIP3   OH242678   7.207   0.496  13.063  0.4022  0.1903 -0.5220
 7088TIP3    H142679   7.235   0.466  12.977  0.4062 -2.3371  0.2997
 7088TIP3    H242680   7.229   0.589  13.065  2.0191 -0.1081 -2.5929
 7089TIP3   OH242681   0.926   3.189  14.868 -0.1943 -0.0980 -0.5408
 7089TIP3    H142682   0.960   3.187  14.779  1.7876  1.3268  0.1355
 7089TIP3    H242683   0.875   3.109  14.876 -0.8877  0.0443 -3.1264
 7090TIP3   OH242684   4.852   0.318   0.317  0.1784  0.3443  0.3284
 7090TIP3    H142685   4.799   0.239   0.327 -1.1914  1.1723 -0.2435
 7090TIP3    H242686   4.835   0.346   0.227  2.8204 -0.2422 -0.3893
 7091TIP3   OH242687   7.022   1.692  14.830 -0.0760  0.6241  0.4714
 7091TIP3    H142688   7.093   1.658  14.885  0.8225  0.2605 -0.8785
 7091TIP3    H242689   7.065   1.716  14.748 -1.4461  0.8431 -0.1994
 7092TIP3   OH242690   0.743   1.120  14.868  0.1039 -0.7912 -0.3960
 7092TIP3    H142691   0.741   1.157  14.956  1.4258  0.2042 -0.7766
 7092TIP3    H242692   0.701   1.034  14.878 -1.6694  0.1861  0.7721
 7093TIP3   OH242693   7.152   6.100  13.993 -0.6898 -0.2401 -0.6983
 7093TIP3    H142694   7.121   6.137  13.910  0.7399 -0.2574 -1.2443
 7093TIP3    H242695   7.188   6.015  13.969 -1.4463 -0.8115  0.1459
 7094TIP3   OH242696   4.988   0.980  15.726 -0.5757  0.3648 -0.2950
 7094TIP3    H142697   4.963   0.998  15.635  2.8092  0.9131 -1.1831
 7094TIP3    H242698   4.968   0.887  15.738 -2.2248  0.5806 -1.1604
 7095TIP3   OH242699   0.442   1.295  15.887 -0.3249 -0.6639 -0.0727
 7095TIP3    H142700   0.488   1.212  15.878  2.6513  1.0015 -1.2449
 7095TIP3    H242701   0.410   1.296  15.978 -0.2046 -2.9455  0.0080
 7096TIP3   OH242702   6.104   1.348  13.187 -0.5083  0.1380 -0.3405
 7096TIP3    H142703   6.126   1.437  13.159 -0.0173  0.8858  2.3211
 7096TIP3    H242704   6.170   1.293  13.145  1.4365  1.4641  0.8943
 7097TIP3   OH242705   0.710   1.209   0.530  0.0372 -0.2980 -0.0861
 7097TIP3    H142706   0.621   1.232   0.558 -1.0469 -2.2515 -1.8536
 7097TIP3    H242707   0.714   1.234   0.438  1.4221 -0.0235  0.0313
 7098TIP3   OH242708   6.316   2.075  13.507  0.1206  0.2987  0.0412
 7098TIP3    H142709   6.240   2.133  13.516  1.5478  2.3272 -0.4869
 7098TIP3    H242710   6.310   2.042  13.417 -1.4805 -1.5724  0.7921
 7099TIP3   OH242711   1.197   3.907  15.892 -0.4018 -0.2306 -0.0612
 7099TIP3    H142712   1.136   3.919  15.819 -0.8903  0.0279  0.3855
 7099TIP3    H242713   1.167   3.827  15.936 -0.2553 -0.2519  0.0011
 7100TIP3   OH242714   0.962   1.716  12.431  0.7041  0.2127 -0.1847
 7100TIP3    H142715   0.913   1.709  12.513 -0.1543 -1.6853 -0.8416
 7100TIP3    H242716   1.053   1.708  12.457  0.4082 -0.9245  0.5364
 7101TIP3   OH242717   5.688   0.461  15.530  0.4904  0.1594  0.2006
 7101TIP3    H142718   5.745   0.523  15.485  1.3279  0.2617  1.3756
 7101TIP3    H242719   5.682   0.495  15.620  0.3616 -1.0653  0.6620
 7102TIP3   OH242720   0.226   3.086   0.304 -0.2031  0.0471  0.4830
 7102TIP3    H142721   0.281   3.119   0.233 -2.1438 -2.1736 -2.1688
 7102TIP3    H242722   0.287   3.059   0.372  1.8043  0.8238 -0.9750
 7103TIP3   OH242723   2.394   2.233   0.331  0.1848 -0.0413 -0.1061
 7103TIP3    H142724   2.363   2.238   0.241  1.8259 -0.6734 -0.7322
 7103TIP3    H242725   2.488   2.216   0.323  0.2468 -0.6896  1.7266
 7104TIP3   OH242726   6.312   1.470  15.899 -0.1083 -0.0028  0.0341
 7104TIP3    H142727   6.330   1.536  15.832  0.7601 -1.8153 -1.5520
 7104TIP3    H242728   6.342   1.510  15.980  1.4023  1.1281 -1.0553
 7105TIP3   OH242729   5.329   2.926  14.860  0.1801  0.5314  0.3551
 7105TIP3    H142730   5.337   2.841  14.904  0.7457  0.2051 -0.3685
 7105TIP3    H242731   5.396   2.980  14.902  0.2569  0.4285  0.3657
 7106TIP3   OH242732   5.582   2.751  13.267 -0.1075 -0.2277  0.3496
 7106TIP3    H142733   5.489   2.735  13.252 -0.0913 -0.3543  0.3891
 7106TIP3    H242734   5.587   2.846  13.280 -0.3640 -0.3420  1.3060
 7107TIP3   OH242735   4.642   1.287  13.388 -0.0734 -0.1689 -0.0912
 7107TIP3    H142736   4.728   1.290  13.429 -0.3443  2.2336  0.3562
 7107TIP3    H242737   4.660   1.280  13.294  0.6034 -0.0561  0.0281
 7108TIP3   OH242738   5.840   2.096  15.563  0.5757 -0.1170  0.0474
 7108TIP3    H142739   5.754   2.136  15.557  0.7151  0.0458 -1.0219
 7108TIP3    H242740   5.849   2.072  15.655 -2.1190 -3.4673 -0.4599
 7109TIP3   OH242741   5.280   3.160   1.261 -0.1600 -0.0802  0.4638
 7109TIP3    H142742   5.227   3.232   1.225 -0.1900 -0.0308  0.6074
 7109TIP3    H242743   5.325   3.199   1.336  2.0306  0.5829 -1.1475
 7110TIP3   OH242744   5.859   1.905   0.262  0.3678  0.2799 -0.2827
 7110TIP3    H142745   5.883   1.950   0.343 -0.0831  1.7005 -0.9365
 7110TIP3    H242746   5.872   1.812   0.282  3.9611  0.8100  0.2158
 7111TIP3   OH242747   5.652   1.879   0.081  0.7639 -0.5283 -0.1026
 7111TIP3    H142748   5.579   1.873   0.143  1.8492  1.1068  1.3741
 7111TIP3    H242749   5.730   1.883   0.136  2.0420 -2.7918 -1.6810
 7112TIP3   OH242750   5.561   1.963   1.165  0.4882  0.3434 -0.0936
 7112TIP3    H142751   5.642   2.013   1.173 -1.1451  2.7776  1.9027
 7112TIP3    H242752   5.551   1.920   1.249 -0.8604  0.9777  0.0822
 7113TIP3   OH242753   4.220   1.146   0.385  0.3209  0.1334  0.0266
 7113TIP3    H142754   4.296   1.203   0.398  0.0612  0.5258 -0.1940
 7113TIP3    H242755   4.218   1.131   0.290  0.9874 -1.0597  0.1838
 7114TIP3   OH242756   6.555   1.374  15.727 -0.0185 -0.0035 -0.0458
 7114TIP3    H142757   6.488   1.380  15.795 -0.6651 -0.8400 -0.6054
 7114TIP3    H242758   6.590   1.286  15.735  0.2782  0.0751 -0.4528
 7115TIP3   OH242759   5.269   3.408  12.153 -0.4557  0.6991 -0.4773
 7115TIP3    H142760   5.192   3.448  12.113 -0.7248  0.0425 -0.6256
 7115TIP3    H242761   5.323   3.380  12.079 -0.8972 -0.4061 -0.3913
 7116TIP3   OH242762   6.891   2.099  15.276  0.1058  0.2807  0.5817
 7116TIP3    H142763   6.864   2.189  15.258  1.7914  0.4719 -1.1443
 7116TIP3    H242764   6.811   2.048  15.269 -0.2922  1.1797 -1.8754
 7117TIP3   OH242765   5.924   2.048  13.848 -0.3701  0.5054 -0.2204
 7117TIP3    H142766   5.900   2.140  13.835 -1.3274 -0.0343 -2.6244
 7117TIP3    H242767   6.019   2.049  13.853 -0.3330  1.5634 -0.8509
 7118TIP3   OH242768   4.511   0.106  15.019 -0.4157 -0.0444  0.3780
 7118TIP3    H142769   4.460   0.175  15.062 -0.2372  0.1788  0.2277
 7118TIP3    H242770   4.559   0.151  14.950 -0.0026 -0.2547  0.5245
 7119TIP3   OH242771   0.704   1.681  13.204 -0.0129 -0.3221 -0.2682
 7119TIP3    H142772   0.734   1.672  13.294 -0.7765  0.3410  0.0640
 7119TIP3    H242773   0.704   1.592  13.169  1.1775 -0.4710  0.0878
 7120TIP3   OH242774   0.130   5.998  14.119 -0.4065 -0.2945 -0.1466
 7120TIP3    H142775   0.082   5.946  14.184  1.0152  1.8483  2.7210
 7120TIP3    H242776   0.217   5.959  14.116  0.6353  1.7152  1.9404
 7121TIP3   OH242777   6.643   3.545  13.519  0.6389 -0.2833 -0.0355
 7121TIP3    H142778   6.716   3.545  13.581 -0.6911 -2.1455  1.6234
 7121TIP3    H242779   6.630   3.452  13.498 -1.3130 -0.0077 -0.1659
 7122TIP3   OH242780   6.616   6.980  15.403  0.1487  0.4669 -0.1997
 7122TIP3    H142781   6.561   7.015  15.472  1.0458  1.2345  0.1316
 7122TIP3    H242782   6.697   7.031  15.408 -0.3455  1.5815 -2.7804
 7123TIP3   OH242783   0.129   0.699  15.264 -0.0906 -0.2393  0.2210
 7123TIP3    H142784   0.125   0.790  15.293 -1.8905  0.2134 -1.3271
 7123TIP3    H242785   0.069   0.652  15.322 -2.9381  0.4921 -1.9800
 7124TIP3   OH242786   6.731   0.548  10.445  0.6756  0.3688 -0.0592
 7124TIP3    H142787   6.655   0.580  10.396  0.7527 -1.6844 -1.6126
 7124TIP3    H242788   6.784   0.626  10.461 -2.6598  2.1952  2.7950
 7125TIP3   OH242789   0.983   1.427  15.463  0.1705 -0.0051  0.1859
 7125TIP3    H142790   0.953   1.518  15.471  1.4147  0.4064  0.1895
 7125TIP3    H242791   1.075   1.430  15.489  0.7343 -0.9452 -1.6991
 7126TIP3   OH242792   3.485   5.433  13.059 -0.2340 -0.6567 -0.2241
 7126TIP3    H142793   3.426   5.425  13.134 -1.6352  0.7630 -1.1460
 7126TIP3    H242794   3.429   5.463  12.988  1.3848 -0.4765 -1.4438
 7127TIP3   OH242795   5.504   1.482  13.180 -0.0194 -0.2498 -0.0728
 7127TIP3    H142796   5.546   1.396  13.171 -0.7855 -0.3172 -3.6693
 7127TIP3    H242797   5.565   1.533  13.234  0.7869 -2.8051  1.5090
 7128TIP3   OH242798   6.190   2.833  14.899 -0.0041  0.4858 -0.1715
 7128TIP3    H142799   6.211   2.793  14.983  1.6714 -1.4686 -1.4853
 7128TIP3    H242800   6.238   2.916  14.900  1.0223 -0.1072  0.2695
 7129TIP3   OH242801   4.505   0.656   0.299  0.5345  0.3260  0.7561
 7129TIP3    H142802   4.567   0.609   0.244 -0.2049 -0.1567  0.3143
 7129TIP3    H242803   4.453   0.708   0.238  1.0917  1.4247  1.2103
 7130TIP3   OH242804   5.476   1.064  15.681  0.2311  0.0176  0.5017
 7130TIP3    H142805   5.519   1.075  15.766 -0.9782  0.1706  1.1010
 7130TIP3    H242806   5.384   1.085  15.698 -0.1553 -0.6902 -0.6852
 7131TIP3   OH242807   0.617   4.506  12.167 -0.3264 -0.8975 -0.0771
 7131TIP3    H142808   0.669   4.426  12.159  0.6322 -0.3010  0.1171
 7131TIP3    H242809   0.642   4.543  12.252 -1.1549 -0.6655  0.0727
 7132TIP3   OH242810   3.573   1.191  14.198 -0.5681 -0.0792 -0.2657
 7132TIP3    H142811   3.516   1.268  14.198 -0.2896  0.1536 -1.5787
 7132TIP3    H242812   3.592   1.176  14.105 -0.8311 -1.8933 -0.0488
 7133TIP3   OH242813   6.867   7.003   0.807  0.3782  0.1796  0.8023
 7133TIP3    H142814   6.837   7.022   0.896 -2.6159  2.1062 -0.5549
 7133TIP3    H242815   6.901   7.086   0.775 -0.2781 -0.0428 -0.4902
 7134TIP3   OH242816   6.864   3.067  15.966  0.5127 -0.3515  0.1702
 7134TIP3    H142817   6.883   3.041  16.057  2.8895 -0.6121 -0.3526
 7134TIP3    H242818   6.936   3.029  15.916 -0.2067  0.7061 -1.6862
 7135TIP3   OH242819   3.677   7.001  15.942  0.3991  0.1909 -0.4257
 7135TIP3    H142820   3.766   6.982  15.972  0.5852 -0.9243 -1.6876
 7135TIP3    H242821   3.621   6.963  16.010  0.8436 -1.2440 -0.8456
 7136TIP3   OH242822   0.190   1.339  12.771 -0.3073  0.5065  0.1401
 7136TIP3    H142823   0.199   1.246  12.793  3.1146  0.7982  0.2960
 7136TIP3    H242824   0.198   1.341  12.676 -0.4105  0.6477  0.1350
 7137TIP3   OH242825   1.570   0.810  15.767 -0.0512  0.0257 -0.5270
 7137TIP3    H142826   1.559   0.721  15.735  1.9951 -2.1564  4.2606
 7137TIP3    H242827   1.489   0.828  15.815 -0.4559  0.7630 -1.4772
 7138TIP3   OH242828   5.892   1.551  12.017 -0.8002  0.0237 -0.0441
 7138TIP3    H142829   5.844   1.523  11.938 -1.5144  0.9734  0.0480
 7138TIP3    H242830   5.858   1.638  12.036  2.0249  1.3363 -0.8173
 7139TIP3   OH242831   4.992   0.916   0.021  0.3342  0.3448 -0.2156
 7139TIP3    H142832   5.080   0.900   0.057  0.4916  0.9829 -0.3270
 7139TIP3    H242833   5.005   0.922  -0.073  0.4123  2.0578 -0.1113
 7140TIP3   OH242834   4.914   0.531  12.293 -0.4355 -0.5703 -0.4992
 7140TIP3    H142835   4.962   0.581  12.359 -2.1039 -0.9584  1.0498
 7140TIP3    H242836   4.887   0.451  12.338 -0.0695 -1.6883 -2.1941
 7141TIP3   OH242837   6.144   6.945   0.398 -0.1596 -0.5647  0.5867
 7141TIP3    H142838   6.140   6.891   0.477 -2.1420  0.3197  1.1274
 7141TIP3    H242839   6.053   6.969   0.381  0.2734 -0.4880 -1.8092
 7142TIP3   OH242840   6.619   1.074  12.741 -0.0609  0.0170  0.2602
 7142TIP3    H142841   6.675   1.124  12.802  0.7489 -0.3806 -0.1554
 7142TIP3    H242842   6.584   1.003  12.794  0.8121 -0.4513  0.2209
 7143TIP3   OH242843   6.083   1.826  13.716 -0.5970  0.3714  0.3824
 7143TIP3    H142844   6.044   1.912  13.698  3.0063  2.1379  0.4745
 7143TIP3    H242845   6.105   1.791  13.629 -1.8896 -0.4179  0.3564
 7144TIP3   OH242846   6.351   1.152  15.614 -0.5475  0.2878 -0.4867
 7144TIP3    H142847   6.335   1.077  15.670 -0.1057  0.4637 -0.1250
 7144TIP3    H242848   6.443   1.172  15.626 -0.8549  1.4143  0.0731
 7145TIP3   OH242849   6.832   2.319   1.025 -0.2035  0.2001 -0.3746
 7145TIP3    H142850   6.909   2.323   1.083 -1.2320  0.5336  0.9920
 7145TIP3    H242851   6.811   2.226   1.021 -0.8691  0.2823  0.8159
 7146TIP3   OH242852   6.401   3.373   0.440  0.3845  0.6359  0.1586
 7146TIP3    H142853   6.305   3.366   0.441  0.2162  2.8439  1.2868
 7146TIP3    H242854   6.419   3.434   0.369  0.8861  1.3728  0.9252
 7147TIP3   OH242855   6.542   1.423  13.994  0.2830 -0.4383 -0.2003
 7147TIP3    H142856   6.450   1.449  13.996  0.5451  0.5093  0.7909
 7147TIP3    H242857   6.579   1.469  13.919  0.0688 -0.3659 -0.2591
 7148TIP3   OH242858   5.571   6.280   0.748 -0.4090  0.3552 -0.5563
 7148TIP3    H142859   5.489   6.247   0.712  1.2878 -1.7545 -2.5568
 7148TIP3    H242860   5.597   6.215   0.813  0.7139 -0.0707 -1.4097
 7149TIP3   OH242861   0.461   1.309  15.542 -0.6280 -0.0869 -0.3484
 7149TIP3    H142862   0.429   1.262  15.465 -0.9522 -1.4595  0.6165
 7149TIP3    H242863   0.493   1.241  15.601  1.5437  1.0825 -0.1068
 7150TIP3   OH242864   5.730   1.845  13.411 -0.2513  0.3030 -0.0290
 7150TIP3    H142865   5.703   1.859  13.320 -0.3896 -1.1352 -0.2344
 7150TIP3    H242866   5.686   1.763  13.436 -2.0861  1.8808  2.0977
 7151TIP3   OH242867   0.395   7.255  14.916  0.2282 -0.0842 -0.1979
 7151TIP3    H142868   0.464   7.193  14.893 -0.2663 -0.0539 -1.8204
 7151TIP3    H242869   0.333   7.203  14.967  0.1941 -0.7364 -0.8974
 7152TIP3   OH242870   1.234   7.259  15.856 -0.2397 -0.0646  0.1690
 7152TIP3    H142871   1.216   7.165  15.866 -0.9282 -0.0297 -0.6263
 7152TIP3    H242872   1.190   7.282  15.774  1.4618  0.5600 -0.5709
 7153TIP3   OH242873   4.096   5.725  15.161  0.2645  0.0101 -0.2288
 7153TIP3    H142874   4.034   5.771  15.217  0.3245  1.1384 -1.0580
 7153TIP3    H242875   4.171   5.784  15.154  1.4488 -1.3394  0.7671
 7154TIP3   OH242876   3.941   1.726  13.957 -0.0761 -0.0561  0.4070
 7154TIP3    H142877   3.988   1.800  13.995  1.1888 -0.8257  0.3625
 7154TIP3    H242878   3.876   1.702  14.023 -0.1794  0.8010  0.6154
 7155TIP3   OH242879   1.064   0.257  15.532 -0.0441  0.1982  0.3373
 7155TIP3    H142880   1.021   0.332  15.573 -0.4978  0.6836 -0.9939
 7155TIP3    H242881   1.104   0.293  15.453  3.4914 -0.0893  1.9139
 7156TIP3   OH242882   5.339   0.675   1.930  0.0667  0.0596 -0.6013
 7156TIP3    H142883   5.405   0.610   1.955 -1.6980 -1.4515  0.2703
 7156TIP3    H242884   5.347   0.743   1.997  2.2316  1.0276 -1.7751
 7157TIP3   OH242885   5.085   0.358   0.959 -0.0305  0.1803  0.2605
 7157TIP3    H142886   4.996   0.324   0.967 -0.3681  1.7615  4.4074
 7157TIP3    H242887   5.085   0.437   1.014  3.1410  1.8538 -2.0098
 7158TIP3   OH242888   5.945   0.071   0.388  0.1934  1.0909  0.2251
 7158TIP3    H142889   5.876   0.136   0.397 -0.0561  0.6003  2.2410
 7158TIP3    H242890   6.026   0.121   0.380 -0.1275  1.6593  0.5502
 7159TIP3   OH242891   4.351   6.627   1.150 -0.1801 -0.0234  0.1918
 7159TIP3    H142892   4.372   6.619   1.057 -0.7291 -0.3934  0.0926
 7159TIP3    H242893   4.302   6.709   1.156 -0.7824 -0.3667  0.0306
 7160TIP3   OH242894   0.131   6.746   1.002 -0.0415 -0.3323  0.4287
 7160TIP3    H142895   0.106   6.679   0.938 -1.9632  1.8798 -1.2404
 7160TIP3    H242896   0.136   6.700   1.085  1.3878 -3.0553 -1.1075
 7161TIP3   OH242897   3.280   6.899   1.452  0.6106 -0.2533 -0.6955
 7161TIP3    H142898   3.328   6.942   1.523 -1.1944  1.4422 -0.4554
 7161TIP3    H242899   3.188   6.916   1.471  0.0579 -0.2597 -3.1253
 7162TIP3   OH242900   0.050   1.572  12.257 -0.2578 -0.1695 -0.1642
 7162TIP3    H142901  -0.033   1.609  12.227  0.3187  0.6827 -0.7307
 7162TIP3    H242902   0.065   1.496  12.201  0.0418  0.5011 -0.9932
 7163TIP3   OH242903   6.530   0.637   1.300 -0.1532  0.0872 -0.0456
 7163TIP3    H142904   6.516   0.604   1.211  0.7487 -0.4739  0.0130
 7163TIP3    H242905   6.451   0.611   1.348  1.1150 -3.2659  0.3601
 7164TIP3   OH242906   4.548   2.348  12.554 -0.0417 -0.6997 -0.2900
 7164TIP3    H142907   4.464   2.385  12.580  0.6019 -0.1450  1.0989
 7164TIP3    H242908   4.529   2.256  12.534 -0.9529 -0.6251  0.1965
 7165TIP3   OH242909   6.503   2.353  15.520  0.3617 -0.0533 -0.2919
 7165TIP3    H142910   6.426   2.341  15.575 -0.9279  0.7499 -1.8944
 7165TIP3    H242911   6.520   2.447  15.522  0.8672 -0.1392 -0.5333
 7166TIP3   OH242912   6.602   2.429  12.493  0.5045 -0.0886 -0.1312
 7166TIP3    H142913   6.520   2.436  12.542  1.0518  0.3729  0.7370
 7166TIP3    H242914   6.595   2.346  12.446 -1.0563  0.6031 -1.1964
 7167TIP3   OH242915   6.147   2.655  15.645 -0.1013 -0.3478  0.2675
 7167TIP3    H142916   6.180   2.586  15.588  0.5688 -0.5444  0.8856
 7167TIP3    H242917   6.122   2.726  15.585  0.8624 -0.4468 -0.2590
 7168TIP3   OH242918   4.246   0.314   0.190  0.1571  0.5326 -0.3648
 7168TIP3    H142919   4.338   0.301   0.213  0.0610 -0.5144 -0.5419
 7168TIP3    H242920   4.202   0.330   0.274  0.1999 -0.8324 -0.0764
 7169TIP3   OH242921   5.751   1.158  13.926 -0.8105  0.3788  0.4947
 7169TIP3    H142922   5.760   1.144  14.021  0.1433  0.5773  0.4382
 7169TIP3    H242923   5.793   1.243  13.911  1.2409 -0.7963 -0.4748
 7170TIP3   OH242924   5.204   0.148  15.956 -0.4210  0.2440  0.0956
 7170TIP3    H142925   5.183   0.085  16.025  1.1091 -0.2689  0.1111
 7170TIP3    H242926   5.256   0.097  15.893  3.8298  2.2788  1.7774
 7171TIP3   OH242927   0.237   7.036  15.009  0.1771 -0.2079 -0.2353
 7171TIP3    H142928   0.171   7.025  14.941  1.0566  0.2618 -1.1786
 7171TIP3    H242929   0.310   6.982  14.981  1.2853  1.4475 -0.6562
 7172TIP3   OH242930   0.251   6.563  15.028 -0.2321  0.2102 -0.1002
 7172TIP3    H142931   0.247   6.482  15.080 -2.0259  0.3440  0.0186
 7172TIP3    H242932   0.222   6.631  15.088  3.1502  1.3085  0.3884
 7173TIP3   OH242933   5.393   7.161  15.078  0.1280 -0.6605  0.1157
 7173TIP3    H142934   5.447   7.183  15.002 -0.4447 -1.4357 -0.5217
 7173TIP3    H242935   5.313   7.124  15.041 -1.0459  0.9023  1.0346
 7174TIP3   OH242936   0.452   2.820  14.626  0.6213 -0.1259  0.5696
 7174TIP3    H142937   0.376   2.766  14.609 -1.4370  1.9994  2.6603
 7174TIP3    H242938   0.453   2.884  14.555  0.5246 -0.1902  0.5110
 7175TIP3   OH242939   5.802   1.585  13.715  0.2401 -0.6147  0.4203
 7175TIP3    H142940   5.823   1.677  13.695  1.6690 -1.0042  0.0345
 7175TIP3    H242941   5.761   1.552  13.636  1.1557 -0.7298 -0.0117
 7176TIP3   OH242942   4.945   1.332  10.924  0.0287  0.6741 -0.4740
 7176TIP3    H142943   4.953   1.424  10.897 -0.7239  0.7916 -0.2917
 7176TIP3    H242944   5.030   1.312  10.962  0.9247  0.6830 -2.3895
 7177TIP3   OH242945   6.123   6.499   0.016 -0.0262 -0.0843 -0.2982
 7177TIP3    H142946   6.187   6.565   0.042  0.1813  0.4044 -1.9684
 7177TIP3    H242947   6.128   6.497  -0.080  0.3001 -2.8429 -0.2835
 7178TIP3   OH242948   5.177   1.992  11.769 -0.1206 -0.2256 -0.1355
 7178TIP3    H142949   5.103   2.049  11.747  1.8687  1.8655 -1.6042
 7178TIP3    H242950   5.181   1.994  11.865  0.0975  2.3806 -0.1729
 7179TIP3   OH242951   5.061   6.250  15.701 -0.1782  0.1919 -0.2268
 7179TIP3    H142952   5.080   6.324  15.644  0.4331  0.6145  0.5121
 7179TIP3    H242953   5.111   6.177  15.664  0.6025  0.5839  0.0308
 7180TIP3   OH242954   4.903   1.790  15.246 -0.4686  0.8765  0.4176
 7180TIP3    H142955   4.934   1.876  15.217  0.4321  0.2097 -0.6379
 7180TIP3    H242956   4.982   1.747  15.280 -0.6804  0.0244 -0.1705
 7181TIP3   OH242957   1.057   3.043   0.355  0.0938 -0.2149  0.8008
 7181TIP3    H142958   1.100   3.110   0.303 -1.7077  0.1705 -0.2263
 7181TIP3    H242959   1.089   2.960   0.320  1.1944  0.0689  1.1042
 7182TIP3   OH242960   6.345   1.763  15.967  0.4403 -0.4820  0.6873
 7182TIP3    H142961   6.384   1.750  15.881  1.1793  0.9136  0.8018
 7182TIP3    H242962   6.267   1.815  15.950  1.9665  2.0140  1.1130
 7183TIP3   OH242963   5.317   2.016  14.521  0.1212  0.1955  0.1864
 7183TIP3    H142964   5.398   1.966  14.529 -0.5075 -1.1592 -1.5109
 7183TIP3    H242965   5.345   2.103  14.494  1.0353 -0.1373  0.0395
 7184TIP3   OH242966   5.760   3.158  14.662 -0.6687 -0.0609 -0.1919
 7184TIP3    H142967   5.812   3.105  14.601 -0.2458 -0.3717  0.4259
 7184TIP3    H242968   5.795   3.247  14.652  1.0222 -0.5204  1.2793
 7185TIP3   OH242969   6.301   4.235  13.213  0.1184  0.1413 -0.0346
 7185TIP3    H142970   6.292   4.320  13.170 -0.0782  1.5722  2.7307
 7185TIP3    H242971   6.390   4.237  13.250  0.1252 -0.8780  0.0065
 7186TIP3   OH242972   6.524   1.771  14.528 -0.2878  0.2883 -0.3333
 7186TIP3    H142973   6.591   1.704  14.540 -0.5192 -0.0336 -0.7937
 7186TIP3    H242974   6.443   1.721  14.514 -0.6299  0.6721  0.2656
 7187TIP3   OH242975   5.051   2.793   0.895  0.5911  0.5291  0.1206
 7187TIP3    H142976   4.961   2.776   0.867  0.3192  2.3885 -0.2029
 7187TIP3    H242977   5.104   2.741   0.835 -0.1939  0.5706 -0.6251
 7188TIP3   OH242978   6.277   0.189  14.776 -0.0264 -0.1719  0.1972
 7188TIP3    H142979   6.197   0.157  14.818 -1.3905  0.3567 -1.8870
 7188TIP3    H242980   6.287   0.279  14.810  0.2028 -0.5519  1.1529
 7189TIP3   OH242981   3.876   0.138  12.105 -0.5726  0.0508 -0.2368
 7189TIP3    H142982   3.963   0.172  12.128 -1.5846  2.0662  0.7747
 7189TIP3    H242983   3.890   0.086  12.026  1.4289  1.0390 -0.5540
 7190TIP3   OH242984   5.618   1.223  14.824 -0.1973 -0.1024  0.5245
 7190TIP3    H142985   5.615   1.193  14.733  0.9595  1.3383 -0.0140
 7190TIP3    H242986   5.530   1.256  14.842 -0.1076  0.7140 -0.4828
 7191TIP3   OH242987   4.752   3.589   0.324 -0.6760 -0.3899 -0.3439
 7191TIP3    H142988   4.813   3.526   0.285 -0.6861 -0.5907 -0.0426
 7191TIP3    H242989   4.715   3.542   0.400 -1.1226 -0.2344 -0.4629
 7192TIP3   OH242990   5.594   1.163  14.528  0.3571  0.0626  0.3794
 7192TIP3    H142991   5.500   1.145  14.534  0.3944 -0.2179  0.1210
 7192TIP3    H242992   5.635   1.077  14.520  0.4555  0.2801 -1.8866
 7193TIP3   OH242993   3.732   5.878  15.177 -0.2574  0.7386 -0.1109
 7193TIP3    H142994   3.817   5.920  15.164 -0.0181  0.0184 -0.8790
 7193TIP3    H242995   3.676   5.915  15.109 -1.0827  2.5766  1.5125
 7194TIP3   OH242996   4.927   1.634  12.894 -0.1059 -0.1733 -0.3842
 7194TIP3    H142997   4.979   1.714  12.884 -1.9683  0.7624 -3.0769
 7194TIP3    H242998   4.860   1.656  12.958  0.4663 -0.1866  0.2327
 7195TIP3   OH242999   7.216   0.058   1.587 -0.0740  0.2548 -0.1963
 7195TIP3    H143000   7.214   0.136   1.643 -1.2344 -1.0203  1.6138
 7195TIP3    H243001   7.275   0.081   1.515  0.6713  2.3046  1.0320
 7196TIP3   OH243002   4.048   5.795  14.117 -0.2724 -0.3659 -0.7607
 7196TIP3    H143003   4.030   5.879  14.161 -0.7088 -0.3165 -1.0313
 7196TIP3    H243004   4.090   5.742  14.184 -2.2614 -0.8029  0.1839
 7197TIP3   OH243005   6.207   5.708  14.880  0.7336 -0.3412  0.0544
 7197TIP3    H143006   6.173   5.721  14.969 -0.9072  0.5324 -0.6811
 7197TIP3    H243007   6.237   5.795  14.854 -0.2214 -0.2694 -0.8185
 7198TIP3   OH243008   0.030   3.454  12.290 -0.3669  0.1278 -0.3443
 7198TIP3    H143009   0.034   3.464  12.195  0.5198  1.6804 -0.1537
 7198TIP3    H243010  -0.038   3.515  12.318 -0.8935 -0.5995 -0.0018
 7199TIP3   OH243011   6.324   2.163  12.442  0.1156  0.3217 -0.4787
 7199TIP3    H143012   6.302   2.247  12.482  0.0380  0.1878 -0.2448
 7199TIP3    H243013   6.416   2.149  12.463 -0.0355  0.0501  0.0094
 7200TIP3   OH243014   4.277   6.846  13.477 -0.1567 -0.6898 -0.9539
 7200TIP3    H143015   4.371   6.836  13.464  0.5119 -0.8287  3.4567
 7200TIP3    H243016   4.241   6.759  13.459  0.6588 -0.8576 -1.8042
 7201TIP3   OH243017   5.485   0.840  12.760 -0.0816 -0.2028 -0.3878
 7201TIP3    H143018   5.529   0.796  12.687  0.3575  0.5407 -0.5710
 7201TIP3    H243019   5.515   0.930  12.756 -1.6596  0.3349 -0.5487
 7202TIP3   OH243020   6.152   6.188  13.166 -0.0360  0.4226 -0.7839
 7202TIP3    H143021   6.061   6.218  13.176 -0.0952 -0.3440  1.1196
 7202TIP3    H243022   6.145   6.105  13.119 -0.3412  0.1683 -0.2866
 7203TIP3   OH243023   5.190   0.342  15.279  0.0230 -0.2927 -0.1192
 7203TIP3    H143024   5.227   0.389  15.204 -1.9867  0.1251 -0.8709
 7203TIP3    H243025   5.125   0.402  15.316  0.3304 -0.8711  1.3988
 7204TIP3   OH243026   4.936   0.965   0.809 -0.0792  0.3281 -0.0275
 7204TIP3    H143027   5.032   0.960   0.816 -0.1305  0.6892  1.0005
 7204TIP3    H243028   4.918   1.059   0.807 -0.5467  0.3042  1.8820
 7205TIP3   OH243029   4.210   2.844  13.505  0.8989  0.6151  0.0136
 7205TIP3    H143030   4.286   2.833  13.449  0.9049  0.5609  0.0310
 7205TIP3    H243031   4.222   2.780  13.575  0.3126 -0.1278 -0.5584
 7206TIP3   OH243032   6.788   7.287   0.938  0.2081 -0.1779  0.2142
 7206TIP3    H143033   6.743   7.371   0.937  1.2584  0.4095  0.9395
 7206TIP3    H243034   6.851   7.293   0.865 -0.9377 -1.0323 -0.8630
 7207TIP3   OH243035   0.238   0.626   0.496 -0.3303 -0.4648 -0.4955
 7207TIP3    H143036   0.238   0.591   0.407  1.8142 -0.6870 -0.4552
 7207TIP3    H243037   0.236   0.548   0.552  1.3077 -0.4674 -0.3957
 7208TIP3   OH243038   7.074   2.702  14.176  0.4887 -0.7299 -0.1328
 7208TIP3    H143039   7.092   2.693  14.083  0.9935  1.2036 -0.2504
 7208TIP3    H243040   6.999   2.645  14.192  1.1451 -1.9887 -1.4629
 7209TIP3   OH243041   3.040   3.351   0.882 -0.2341  0.5416  0.3838
 7209TIP3    H143042   3.089   3.273   0.908  1.4725  1.5699  0.3333
 7209TIP3    H243043   3.028   3.341   0.787  1.3630  1.0501  0.0970
 7210TIP3   OH243044   1.107   2.982  15.335  0.3970  0.0713 -0.3133
 7210TIP3    H143045   1.165   2.907  15.349  1.6152  0.8224 -1.2385
 7210TIP3    H243046   1.034   2.947  15.283  2.3728  0.0890 -3.2238
 7211TIP3   OH243047   6.905   3.385  14.919  0.1157 -0.5329 -0.5274
 7211TIP3    H143048   6.860   3.405  14.837 -0.5786  0.0523 -0.0087
 7211TIP3    H243049   6.998   3.397  14.898  0.0398 -1.7041 -1.5900
 7212TIP3   OH243050   2.255   4.972  15.544 -0.1202 -0.0115 -0.2145
 7212TIP3    H143051   2.316   5.017  15.603  0.4402 -0.0708 -0.7422
 7212TIP3    H243052   2.303   4.964  15.462 -0.5748 -0.7080 -0.4174
 7213TIP3   OH243053   6.468   6.862  12.329  0.4483 -0.0622 -0.2581
 7213TIP3    H143054   6.492   6.896  12.243 -2.3277 -0.3380 -1.2034
 7213TIP3    H243055   6.489   6.933  12.390 -0.3461  1.3085 -1.5527
 7214TIP3   OH243056   1.527   3.297  13.386 -0.6881  0.3684 -0.2497
 7214TIP3    H143057   1.611   3.253  13.372 -0.5951  0.5507 -0.2640
 7214TIP3    H243058   1.498   3.324  13.299 -0.7134  0.3950 -0.2341
 7215TIP3   OH243059   4.356   6.094  13.353  0.0584 -0.2316 -0.1180
 7215TIP3    H143060   4.382   6.005  13.330 -2.5322 -0.8578 -0.8671
 7215TIP3    H243061   4.336   6.091  13.446  1.4590 -0.0325  0.1987
 7216TIP3   OH243062   0.853   1.606  13.970 -0.4195  0.2786  0.1514
 7216TIP3    H143063   0.779   1.641  14.021 -1.2997 -0.1560 -0.8053
 7216TIP3    H243064   0.894   1.542  14.029 -1.2509 -0.0139  0.4238
 7217TIP3   OH243065   2.196   4.388  14.292  0.2639  0.0636  0.1690
 7217TIP3    H143066   2.188   4.292  14.295 -0.8424  0.1492  0.4015
 7217TIP3    H243067   2.175   4.411  14.202  0.2280  0.1125  0.1908
 7218TIP3   OH243068   1.815   3.266   0.523 -0.0069 -1.0223  0.3189
 7218TIP3    H143069   1.749   3.241   0.457  2.0010 -0.2953 -2.0488
 7218TIP3    H243070   1.861   3.184   0.542  1.2976 -0.7271 -1.4069
 7219TIP3   OH243071   6.560   5.509  14.043 -0.0739 -0.2278  0.1257
 7219TIP3    H143072   6.565   5.428  14.093  2.1733  1.3754  2.5828
 7219TIP3    H243073   6.648   5.524  14.010 -0.6080  0.9015 -0.8618
 7220TIP3   OH243074   1.835   4.365  14.595  0.0812 -0.4256 -0.0342
 7220TIP3    H143075   1.742   4.388  14.595 -0.4860 -2.5703  0.7070
 7220TIP3    H243076   1.856   4.354  14.502 -1.0563 -2.3157 -0.0952
 7221TIP3   OH243077   0.536   3.885  12.721  0.5610  0.3184  0.3946
 7221TIP3    H143078   0.540   3.975  12.752  3.0190  0.3141  0.1967
 7221TIP3    H243079   0.570   3.889  12.631 -1.1673 -0.5283 -0.3367
 7222TIP3   OH243080   6.297   2.294  15.692  0.5716 -0.3510 -0.4899
 7222TIP3    H143081   6.326   2.367  15.747  1.7457 -1.1543 -0.0337
 7222TIP3    H243082   6.219   2.260  15.736  0.6841 -0.0975 -0.0966
 7223TIP3   OH243083   2.289   5.786  15.267  0.2333  0.0680 -0.0369
 7223TIP3    H143084   2.331   5.740  15.195  0.3918 -0.4334  0.3707
 7223TIP3    H243085   2.195   5.771  15.255  0.1154  1.6078 -1.2315
 7224TIP3   OH243086   0.342   2.039  15.847  0.4687 -0.1535  0.1914
 7224TIP3    H143087   0.402   2.080  15.909  0.4358 -1.1456  0.8860
 7224TIP3    H243088   0.256   2.076  15.868  0.7822  1.0600 -0.6209
 7225TIP3   OH243089   1.428   1.483  14.584  0.0081  0.2009  0.3099
 7225TIP3    H143090   1.333   1.497  14.594 -0.4007 -0.3378 -2.5748
 7225TIP3    H243091   1.446   1.406  14.639 -1.0661  0.7807  1.5131
 7226TIP3   OH243092   1.156   3.397  14.495  0.1425 -0.1787 -0.6910
 7226TIP3    H143093   1.220   3.326  14.498 -1.3037 -1.7085 -3.3098
 7226TIP3    H243094   1.159   3.428  14.405 -1.1830  1.2367 -0.2678
 7227TIP3   OH243095   2.589   1.391  12.907  0.3459 -0.4147  0.0247
 7227TIP3    H143096   2.521   1.445  12.948  0.4166 -0.6406  0.4469
 7227TIP3    H243097   2.566   1.390  12.814 -0.1505 -0.3749  0.1426
 7228TIP3   OH243098   1.209   1.376  13.028  0.1352  0.2819 -0.1419
 7228TIP3    H143099   1.214   1.282  13.045  2.5925  0.3464 -0.2937
 7228TIP3    H243100   1.272   1.415  13.089  1.5707  1.4844 -2.3256
 7229TIP3   OH243101   7.006   3.866  14.339 -0.0171 -0.3678 -0.4726
 7229TIP3    H143102   7.057   3.933  14.294  0.3350 -0.0889  0.3416
 7229TIP3    H243103   6.933   3.914  14.378  0.7282 -0.3115  0.8739
 7230TIP3   OH243104   5.559   4.227  13.792  0.1333  0.2919 -0.4337
 7230TIP3    H143105   5.464   4.232  13.805 -0.1020  0.8245 -2.2235
 7230TIP3    H243106   5.571   4.168  13.718  1.0951  1.4357 -1.2229
 7231TIP3   OH243107   1.687   2.314  15.094 -0.4927 -0.0115  0.1049
 7231TIP3    H143108   1.649   2.356  15.017 -0.7578  1.8673  1.2277
 7231TIP3    H243109   1.765   2.367  15.113  0.8469 -1.8313 -0.2100
 7232TIP3   OH243110   2.760   3.523  14.313  0.5816 -0.1063 -0.2025
 7232TIP3    H143111   2.672   3.556  14.294 -0.3895 -2.0223  0.8320
 7232TIP3    H243112   2.749   3.428  14.320  2.7245 -0.3601  0.0137
 7233TIP3   OH243113   0.286   1.215  13.917  0.2795  0.3069 -0.2697
 7233TIP3    H143114   0.283   1.222  14.012 -0.8519 -0.7486 -0.2016
 7233TIP3    H243115   0.194   1.215  13.890  0.6047  1.5792 -1.4497
 7234TIP3   OH243116   1.414   3.486  15.172 -0.1929 -0.4069 -0.4250
 7234TIP3    H143117   1.381   3.500  15.083 -0.3838  1.0389 -0.1416
 7234TIP3    H243118   1.348   3.525  15.229  0.1565 -0.9022  0.3264
 7235TIP3   OH243119   0.350   3.524  15.687 -1.1947  0.3246 -0.0126
 7235TIP3    H143120   0.294   3.446  15.691  0.3947 -0.8582 -0.4085
 7235TIP3    H243121   0.408   3.508  15.613 -0.8981  1.9407 -0.1584
 7236TIP3   OH243122   1.298   2.618   0.014  0.1208 -0.4685 -0.4465
 7236TIP3    H143123   1.342   2.568   0.082 -1.1460 -1.0570 -0.0415
 7236TIP3    H243124   1.345   2.596  -0.067  1.2020 -0.2793  0.1205
 7237TIP3   OH243125   2.114   2.217  12.952 -0.8435  0.7851  0.3326
 7237TIP3    H143126   2.154   2.159  13.017  1.2220  0.5995 -1.0303
 7237TIP3    H243127   2.187   2.271  12.922 -1.5167  0.0991 -2.6485
 7238TIP3   OH243128   1.639   2.666  15.913  0.2726  0.2412  0.1346
 7238TIP3    H143129   1.730   2.694  15.924  0.1890  0.4941  0.1730
 7238TIP3    H243130   1.599   2.681  15.999 -0.1114  1.2386 -0.2134
 7239TIP3   OH243131   3.579   4.305  14.356 -0.3897 -0.3006 -0.0288
 7239TIP3    H143132   3.647   4.349  14.407 -1.8723 -0.1667  1.8878
 7239TIP3    H243133   3.538   4.375  14.305  1.5778 -0.5472 -2.0257
 7240TIP3   OH243134   0.424   3.140  14.565 -0.0593  0.0082 -0.4718
 7240TIP3    H143135   0.339   3.179  14.545 -0.8132 -1.1243  0.4359
 7240TIP3    H243136   0.456   3.107  14.481 -1.1470 -0.7762 -0.5779
 7241TIP3   OH243137   3.069   4.142  12.978 -0.3749 -0.4300  0.6973
 7241TIP3    H143138   3.140   4.095  12.934  0.1696  1.7945 -0.8776
 7241TIP3    H243139   3.083   4.125  13.071  1.8236 -0.5835  0.3665
 7242TIP3   OH243140   5.839   1.562  14.522  0.2766 -0.0493  0.1707
 7242TIP3    H143141   5.878   1.512  14.594  0.9479  0.3361  0.0782
 7242TIP3    H243142   5.905   1.561  14.453 -0.8045 -1.3803 -0.8790
 7243TIP3   OH243143   3.039   3.719  14.053  0.0082 -0.4338  0.3933
 7243TIP3    H143144   3.054   3.805  14.091 -1.4165  0.1310 -0.2943
 7243TIP3    H243145   3.059   3.658  14.124 -1.7880  0.5689  1.7948
 7244TIP3   OH243146   1.144   4.326  15.655  0.3994  0.6012 -0.4424
 7244TIP3    H143147   1.113   4.351  15.743  1.9322 -0.4284  0.4179
 7244TIP3    H243148   1.204   4.253  15.671  2.0712  1.5478 -2.1949
 7245TIP3   OH243149   0.250   2.135  13.418  0.2063  0.2025  0.3263
 7245TIP3    H143150   0.265   2.100  13.330 -0.2209  2.9371 -0.8966
 7245TIP3    H243151   0.155   2.135  13.428  0.0118  3.3045 -0.7619
 7246TIP3   OH243152   0.073   2.687  13.678 -0.3530 -0.6394 -0.5780
 7246TIP3    H143153  -0.023   2.687  13.674 -0.3559  1.3392 -1.0870
 7246TIP3    H243154   0.098   2.596  13.661 -2.1646 -1.3838  0.5841
 7247TIP3   OH243155   3.036   2.551  13.324  0.6688 -0.3017  0.1222
 7247TIP3    H143156   3.001   2.474  13.280 -0.0945  0.2848 -0.3287
 7247TIP3    H243157   3.128   2.532  13.338  0.9647 -0.4494 -1.8616
 7248TIP3   OH243158   6.476   1.266   0.442  0.2250 -0.3117  0.1522
 7248TIP3    H143159   6.530   1.343   0.454 -0.3129 -0.1625  1.6629
 7248TIP3    H243160   6.539   1.194   0.431  0.7356 -0.1569  1.9875
 7249TIP3   OH243161   0.697   4.318  13.664 -0.1255 -0.2455 -0.0527
 7249TIP3    H143162   0.710   4.278  13.750 -2.6332  1.2070  1.0285
 7249TIP3    H243163   0.747   4.400  13.668 -0.7389  0.1163  0.2440
 7250TIP3   OH243164   0.675   5.023  15.474 -0.7041  0.2735  0.2853
 7250TIP3    H143165   0.718   5.108  15.476  2.1613 -1.1297  1.8579
 7250TIP3    H243166   0.606   5.030  15.540 -0.0618  1.1799  0.8749
 7251TIP3   OH243167   1.544   2.519  15.716 -0.1628  0.5427  0.1799
 7251TIP3    H143168   1.577   2.546  15.801 -0.2550  1.5827 -0.1070
 7251TIP3    H243169   1.613   2.545  15.654  0.8245 -2.0567  0.1454
 7252TIP3   OH243170   6.800   1.581  12.468  0.4155  0.2641  0.5067
 7252TIP3    H143171   6.817   1.588  12.374 -1.9573  0.2052  0.0437
 7252TIP3    H243172   6.705   1.594  12.476  0.4142 -0.9272  2.7563
 7253TIP3   OH243173   1.632   4.059  14.602 -0.4479 -0.1678  0.4900
 7253TIP3    H143174   1.566   4.026  14.542 -0.2631 -0.2849  0.3480
 7253TIP3    H243175   1.644   4.151  14.577  0.0756 -0.3820 -0.0645
 7254TIP3   OH243176   0.543   2.484  14.208  0.2610  0.2388  0.6013
 7254TIP3    H143177   0.551   2.546  14.280  0.1590 -0.2624  1.0439
 7254TIP3    H243178   0.451   2.459  14.206 -0.0066  1.2689 -0.5562
 7255TIP3   OH243179   7.126   1.701  12.985 -0.1762  1.0837  0.0916
 7255TIP3    H143180   7.098   1.707  12.894  0.2806  2.8942  0.0504
 7255TIP3    H243181   7.201   1.642  12.983 -1.2191 -0.2266 -0.4515
 7256TIP3   OH243182   4.683   4.960  14.787 -0.4029  0.0719 -0.6391
 7256TIP3    H143183   4.587   4.967  14.784 -0.5057 -0.8449  0.3625
 7256TIP3    H243184   4.701   4.866  14.789  0.5556  0.2236 -1.6079
 7257TIP3   OH243185   1.694   2.843  13.263 -0.1389 -0.2302  0.4054
 7257TIP3    H143186   1.675   2.833  13.356 -4.0085  0.6046 -0.2026
 7257TIP3    H243187   1.617   2.807  13.219  0.8631  0.9805 -2.4272
 7258TIP3   OH243188   1.540   5.316  13.901  0.0958  0.6239  0.7910
 7258TIP3    H143189   1.480   5.243  13.915 -1.1551  1.3175 -0.7742
 7258TIP3    H243190   1.624   5.275  13.878 -0.3073 -0.3207  1.0211
 7259TIP3   OH243191   1.122   4.381  15.944 -0.2275  0.2074  0.3846
 7259TIP3    H143192   1.063   4.322  15.990  0.0712  0.8286  1.6053
 7259TIP3    H243193   1.084   4.468  15.956 -0.7079  0.2796 -1.4705
 7260TIP3   OH243194   2.689   3.392  13.991  0.1817  0.7086 -1.0105
 7260TIP3    H143195   2.695   3.458  14.060  1.8594  0.9067 -1.3123
 7260TIP3    H243196   2.601   3.355  14.000  0.2684  0.9542  1.0215
 7261TIP3   OH243197   3.234   4.809  12.146  0.1728  1.0691 -0.2649
 7261TIP3    H143198   3.323   4.777  12.162  0.9977  3.4768  0.3016
 7261TIP3    H243199   3.236   4.841  12.056  0.0534  1.6098 -0.0790
 7262TIP3   OH243200   2.360   2.990   1.090  0.4546 -0.2939  0.2437
 7262TIP3    H143201   2.285   2.996   1.149  0.5812  0.3059  0.3530
 7262TIP3    H243202   2.367   3.078   1.052  1.8640  0.0185  1.1785
 7263TIP3   OH243203   1.700   0.320  13.319  0.0805  0.5405 -0.2338
 7263TIP3    H143204   1.632   0.357  13.263 -0.5358  2.0584  1.4716
 7263TIP3    H243205   1.734   0.245  13.270  1.2250  3.1867 -3.7323
 7264TIP3   OH243206   5.898   1.536   0.222 -0.5862 -0.1286  0.1399
 7264TIP3    H143207   5.821   1.559   0.169  1.5204  2.4169 -1.9564
 7264TIP3    H243208   5.940   1.465   0.174  0.1955  0.7764 -0.5291
 7265TIP3   OH243209   2.963   3.557   0.331 -0.1430  0.2152 -0.1712
 7265TIP3    H143210   2.983   3.617   0.259 -1.5421  0.7127 -0.1551
 7265TIP3    H243211   2.891   3.503   0.298  0.2088 -0.5531  0.3083
 7266TIP3   OH243212   6.518   2.560  14.770 -0.0647  0.1580 -0.1265
 7266TIP3    H143213   6.613   2.568  14.775 -0.0435 -0.6419  0.9033
 7266TIP3    H243214   6.499   2.473  14.806 -1.0879 -0.1846 -1.4255
 7267TIP3   OH243215   2.902   1.792  15.139  0.0735  0.0109 -0.4413
 7267TIP3    H143216   2.880   1.809  15.047  0.5727  1.8228 -0.2473
 7267TIP3    H243217   2.868   1.868  15.186  0.8499 -0.3538  0.7255
 7268TIP3   OH243218   0.293   2.119  14.213 -0.3378 -0.0870 -0.4984
 7268TIP3    H143219   0.270   2.183  14.281  0.1536 -0.0749 -0.3416
 7268TIP3    H243220   0.375   2.081  14.244 -1.0378 -1.3601 -0.2010
 7269TIP3   OH243221   7.060   2.704   2.315  0.6656 -0.6248 -0.4816
 7269TIP3    H143222   6.991   2.720   2.379  1.0863  0.7887 -0.3764
 7269TIP3    H243223   7.016   2.659   2.242 -0.8120  2.1629 -1.3586
 7270TIP3   OH243224   5.814   1.089  14.942  0.3542 -0.5169 -0.1273
 7270TIP3    H143225   5.878   1.071  14.873 -0.7036 -0.6777 -1.0751
 7270TIP3    H243226   5.740   1.130  14.897 -0.0034  0.1490  1.0353
 7271TIP3   OH243227   0.019   3.097   0.087 -0.1757 -0.0044 -0.0018
 7271TIP3    H143228  -0.023   3.012   0.072  0.0861 -0.0823 -0.2995
 7271TIP3    H243229   0.108   3.086   0.053  0.5528 -0.2923  1.9018
 7272TIP3   OH243230   0.344   0.994  15.275  0.0467  0.8151  0.4257
 7272TIP3    H143231   0.282   1.000  15.347 -0.4953  3.3588 -0.2251
 7272TIP3    H243232   0.425   0.963  15.316 -0.5200  1.3019  1.9443
 7273TIP3   OH243233   0.973   1.508  14.959  0.7190 -0.4563 -0.0444
 7273TIP3    H143234   1.061   1.481  14.932  1.5471  0.7919  1.3002
 7273TIP3    H243235   0.987   1.554  15.042 -1.1241  0.3726 -0.1709
 7274TIP3   OH243236   6.027   2.272   0.297 -0.0245  0.0876  0.4466
 7274TIP3    H143237   5.977   2.235   0.370  0.3193 -0.1304  0.5743
 7274TIP3    H243238   6.006   2.216   0.222 -0.4489  0.3665  0.3554
 7275TIP3   OH243239   2.574   1.170  13.677  0.1617  0.1606  0.3517
 7275TIP3    H143240   2.551   1.263  13.677  0.9897  0.3795 -0.2827
 7275TIP3    H243241   2.590   1.150  13.585 -2.3618 -1.2236  0.1633
 7276TIP3   OH243242   6.387   2.203   0.106 -0.0867 -0.4534 -0.1168
 7276TIP3    H143243   6.325   2.205   0.033 -2.1798  2.6076  1.6208
 7276TIP3    H243244   6.368   2.120   0.151 -1.6259 -0.4487 -0.7025
 7277TIP3   OH243245   1.351   1.977  14.741 -0.0229 -0.2558 -0.6588
 7277TIP3    H143246   1.398   1.965  14.824 -0.0187  0.5664 -0.5354
 7277TIP3    H243247   1.405   1.933  14.676 -0.2382 -1.2833 -0.1675
 7278TIP3   OH243248   2.018   3.629   0.366  0.1673  0.2089 -0.2824
 7278TIP3    H143249   2.062   3.677   0.296  1.0784 -1.1129 -0.6466
 7278TIP3    H243250   2.089   3.606   0.427  0.1977 -2.7173 -1.3284
 7279TIP3   OH243251   3.171   2.614  14.502 -0.1505  0.2743 -0.1571
 7279TIP3    H143252   3.242   2.637  14.562 -0.7166  1.4575  0.0702
 7279TIP3    H243253   3.093   2.652  14.542 -1.2573 -2.7046  0.6329
 7280TIP3   OH243254   5.446   2.305  15.913 -0.0717 -0.0215  0.0806
 7280TIP3    H143255   5.479   2.369  15.850 -2.1546  2.8507  1.7962
 7280TIP3    H243256   5.506   2.311  15.987  1.2086 -1.9660 -0.7425
 7281TIP3   OH243257   6.286   3.391  14.734  0.5602  0.1317 -0.0127
 7281TIP3    H143258   6.364   3.392  14.678  0.6003 -1.5098  0.0127
 7281TIP3    H243259   6.229   3.325  14.694 -0.3349  0.5218  0.6308
 7282TIP3   OH243260   3.128   1.757  14.475  0.3848  0.1423  0.3688
 7282TIP3    H143261   3.051   1.770  14.530 -0.7233  1.9360 -1.5668
 7282TIP3    H243262   3.103   1.687  14.414 -0.1901  1.5672 -1.0631
 7283TIP3   OH243263   2.026   3.287  15.820 -0.2351  0.7741 -0.0753
 7283TIP3    H143264   1.996   3.374  15.846 -0.2627  0.3696  1.2908
 7283TIP3    H243265   1.957   3.255  15.762 -0.1805  1.6872 -0.6583
 7284TIP3   OH243266   4.231   3.177  15.408  0.3802 -0.3221  0.1426
 7284TIP3    H143267   4.316   3.217  15.430 -0.1227  1.0219 -0.2864
 7284TIP3    H243268   4.214   3.206  15.319 -0.3475 -0.9265  0.0837
 7285TIP3   OH243269   0.055   1.544   0.651 -0.3437 -0.2162 -0.0181
 7285TIP3    H143270   0.074   1.453   0.675  3.0906  0.9116  1.9178
 7285TIP3    H243271   0.004   1.578   0.725 -2.1200 -0.6794 -1.0014
 7286TIP3   OH243272   0.703   2.706  15.035 -0.2488 -0.6957  0.6539
 7286TIP3    H143273   0.651   2.749  14.967 -0.0759  1.5146  1.9102
 7286TIP3    H243274   0.764   2.650  14.986  0.3195  1.3666 -1.0377
 7287TIP3   OH243275   0.723   1.914  13.719 -0.0635 -0.1631 -0.5682
 7287TIP3    H143276   0.647   1.944  13.769  2.3736 -0.3355  3.4027
 7287TIP3    H243277   0.757   1.994  13.678 -0.2169  0.5848  0.7309
 7288TIP3   OH243278   0.471   0.828  14.605 -0.4340  0.0311 -0.0771
 7288TIP3    H143279   0.438   0.913  14.574  0.5022  0.9071  1.2990
 7288TIP3    H243280   0.486   0.778  14.525 -0.2219  1.4518 -0.9494
 7289TIP3   OH243281   6.076   1.779  12.859  0.1112 -0.0217 -0.0584
 7289TIP3    H143282   6.154   1.759  12.911 -0.9640  0.0060  1.5754
 7289TIP3    H243283   6.019   1.703  12.872 -0.5142  0.3699 -0.5152
 7290TIP3   OH243284   2.763   4.097  14.003  0.1515 -0.2560  0.4068
 7290TIP3    H143285   2.677   4.073  13.971  1.0430 -0.0629 -2.2052
 7290TIP3    H243286   2.812   4.015  14.006  0.5646 -0.0380 -0.2862
 7291TIP3   OH243287   0.534   4.185  15.135 -0.4099 -0.3635  0.0248
 7291TIP3    H143288   0.536   4.182  15.231 -0.6294 -0.3906  0.0280
 7291TIP3    H243289   0.545   4.094  15.108 -0.0355 -0.3150  0.0183
 7292TIP3   OH243290   3.929   5.159  14.599  0.2840 -0.2049  0.2208
 7292TIP3    H143291   3.886   5.243  14.615 -0.0699 -0.3712  0.1452
 7292TIP3    H243292   4.023   5.179  14.603  0.2708 -0.5447  4.4097
 7293TIP3   OH243293   1.901   5.248  15.107  0.6426 -0.4157 -0.1610
 7293TIP3    H143294   1.917   5.211  15.194  0.1635 -1.2874 -0.4425
 7293TIP3    H243295   1.976   5.219  15.055  0.9401  0.1239 -0.0360
 7294TIP3   OH243296   6.780   4.097   0.764 -0.0809 -0.2457 -0.2412
 7294TIP3    H143297   6.778   4.121   0.856  0.8276  2.0857 -0.7814
 7294TIP3    H243298   6.870   4.068   0.749  0.7919  2.8279 -1.1758
 7295TIP3   OH243299   3.373   5.380  14.647 -0.3587 -0.0099 -1.0036
 7295TIP3    H143300   3.343   5.471  14.644  2.4618  1.0295  0.3829
 7295TIP3    H243301   3.344   5.347  14.732  1.3555  0.6326 -0.1494
 7296TIP3   OH243302   4.833   7.157  15.544  0.0497  0.5029  0.3873
 7296TIP3    H143303   4.860   7.218  15.613  0.7437  1.1756 -0.4625
 7296TIP3    H243304   4.810   7.213  15.470 -2.8465 -0.1055  0.7788
 7297TIP3   OH243305   1.692   4.684   0.546 -0.6078  0.3441  0.1016
 7297TIP3    H143306   1.769   4.740   0.533 -0.0817  0.0627  1.8615
 7297TIP3    H243307   1.633   4.737   0.600 -1.6105  0.5048 -1.1232
 7298TIP3   OH243308   2.111   4.181  15.611  0.1848 -0.5726 -0.3558
 7298TIP3    H143309   2.016   4.188  15.600  0.0664 -1.4834  0.0341
 7298TIP3    H243310   2.122   4.127  15.689  1.0232 -2.1758 -1.5556
 7299TIP3   OH243311   2.151   2.750  13.340  0.4827 -0.9632  0.1317
 7299TIP3    H143312   2.139   2.844  13.352  0.3203 -1.2470  2.3595
 7299TIP3    H243313   2.077   2.710  13.386 -0.2350 -2.1530 -1.9959
 7300TIP3   OH243314   2.190   3.071  15.817 -0.5362  0.1389 -0.2384
 7300TIP3    H143315   2.124   3.138  15.834  0.3499  1.0173 -0.2451
 7300TIP3    H243316   2.271   3.119  15.806  0.2133 -0.9820  0.3270
 7301TIP3   OH243317   1.708   4.164  13.516 -0.0073  0.1219  0.4018
 7301TIP3    H143318   1.702   4.184  13.609  0.4418 -1.5807  0.8050
 7301TIP3    H243319   1.644   4.095  13.501  1.1316 -0.8203 -0.2051
 7302TIP3   OH243320   0.654   4.338   1.757  0.1141 -0.5307  0.2422
 7302TIP3    H143321   0.590   4.349   1.828  0.5857 -0.4849  0.6613
 7302TIP3    H243322   0.680   4.246   1.761 -0.8573 -0.8586 -0.7312
 7303TIP3   OH243323   0.513   2.979  15.190 -0.3615  0.2459 -0.2654
 7303TIP3    H143324   0.518   2.960  15.096 -0.1446 -1.2597  0.0446
 7303TIP3    H243325   0.579   2.922  15.229 -0.6972  0.6153  0.8455
 7304TIP3   OH243326   6.274   2.853  13.769  0.2275 -0.4432 -0.3376
 7304TIP3    H143327   6.180   2.834  13.773  0.6847 -3.0056 -0.7414
 7304TIP3    H243328   6.288   2.919  13.837 -1.4430 -1.8945  1.4715
 7305TIP3   OH243329   1.890   2.436  15.958  0.4432  0.8358 -0.3588
 7305TIP3    H143330   1.814   2.383  15.933  0.0201  0.4035  1.6867
 7305TIP3    H243331   1.959   2.410  15.897  0.2444 -2.0951  0.5692
 7306TIP3   OH243332   5.594   3.788   0.440  0.7276 -0.9624  0.5128
 7306TIP3    H143333   5.678   3.760   0.404  0.5185 -1.4123  0.3631
 7306TIP3    H243334   5.576   3.726   0.511  0.7743 -0.5449  0.8873
 7307TIP3   OH243335   0.521   4.792   0.611 -0.0180 -0.1774  0.2660
 7307TIP3    H143336   0.587   4.725   0.593 -0.4292 -0.0752 -1.7246
 7307TIP3    H243337   0.437   4.747   0.600 -0.3025 -0.0607  1.8199
 7308TIP3   OH243338   1.123   1.736  13.715  0.5129  0.1761  0.0855
 7308TIP3    H143339   1.034   1.702  13.710  0.9663 -1.0916  0.4380
 7308TIP3    H243340   1.173   1.666  13.758  0.9720  2.2510  3.0706
 7309TIP3   OH243341   0.511   4.195  15.400 -0.0688 -0.0752 -0.2233
 7309TIP3    H143342   0.596   4.237  15.415 -0.8906  2.2380 -1.7407
 7309TIP3    H243343   0.467   4.199  15.485  0.4398  0.8211  0.0047
 7310TIP3   OH243344   5.136   4.494  15.121  0.5242 -0.0506  0.1896
 7310TIP3    H143345   5.175   4.411  15.092 -0.0175 -0.4825  0.6823
 7310TIP3    H243346   5.145   4.493  15.216 -1.1652 -0.4096  0.3644
 7311TIP3   OH243347   2.795   2.297  13.444 -0.4073 -0.1666 -0.2150
 7311TIP3    H143348   2.806   2.219  13.499 -0.7149  0.2887  0.5002
 7311TIP3    H243349   2.706   2.327  13.464  0.4522  1.5590  1.0687
 7312TIP3   OH243350   0.214   2.442  15.124  0.1873  0.0165 -0.1712
 7312TIP3    H143351   0.161   2.375  15.167 -0.7123 -0.2841 -1.6842
 7312TIP3    H243352   0.194   2.523  15.172 -1.3035 -0.1890 -0.4014
 7313TIP3   OH243353   7.094   2.193  14.773  0.0482  0.0377  0.4478
 7313TIP3    H143354   7.184   2.220  14.753  0.6828 -2.0512  0.3045
 7313TIP3    H243355   7.080   2.221  14.863  0.9370  0.1613  0.5559
 7314TIP3   OH243356   1.141   4.512   2.258  0.3791 -0.3800  0.6467
 7314TIP3    H143357   1.205   4.517   2.329  0.9704  2.5661 -0.0395
 7314TIP3    H243358   1.089   4.591   2.267  0.8998  0.3993 -2.5738
 7315TIP3   OH243359   6.700   1.002  12.002 -0.0302  0.2470  0.3432
 7315TIP3    H143360   6.711   0.951  11.922 -0.4025  1.8239 -0.7398
 7315TIP3    H243361   6.615   1.045  11.993  0.1538  0.8565  1.3306
 7316TIP3   OH243362   0.544   3.804  15.297  0.0186 -0.5989 -0.4819
 7316TIP3    H143363   0.460   3.836  15.329  0.9418  1.5573 -0.1176
 7316TIP3    H243364   0.557   3.850  15.213  1.8653  0.8876  0.5647
 7317TIP3   OH243365   4.949   4.079  14.483 -0.4301 -0.2648 -0.2151
 7317TIP3    H143366   5.007   4.046  14.414  1.5953 -1.7639  2.1040
 7317TIP3    H243367   4.878   4.014  14.488  1.2816 -2.0669  1.4364
 7318TIP3   OH243368   2.424   1.979   1.163  0.1574 -0.2644  0.2733
 7318TIP3    H143369   2.416   2.073   1.148 -0.7568 -0.3383  0.2915
 7318TIP3    H243370   2.423   1.970   1.258  4.2825  0.0520  0.4691
 7319TIP3   OH243371   0.272   3.178  13.736  0.1297 -0.1637  0.4149
 7319TIP3    H143372   0.238   3.097  13.697 -0.6025  0.0643  0.5579
 7319TIP3    H243373   0.352   3.197  13.688  0.5024 -1.1820  0.6296
 7320TIP3   OH243374   0.956   3.953  14.022 -0.5523  0.1771 -0.2185
 7320TIP3    H143375   0.942   4.041  14.057  0.6146  0.2871 -0.0087
 7320TIP3    H243376   0.923   3.895  14.091  2.1843  0.3807  1.3405
 7321TIP3   OH243377   0.902   1.455  14.316 -0.5615  0.0886 -0.2923
 7321TIP3    H143378   0.810   1.482  14.317 -0.5621  0.2348 -2.2797
 7321TIP3    H243379   0.909   1.391  14.387 -1.5422  2.1524  1.6924
 7322TIP3   OH243380   2.487   2.596  14.852 -0.5777  0.4472 -0.0997
 7322TIP3    H143381   2.490   2.562  14.941 -0.4631 -0.1870 -0.3417
 7322TIP3    H243382   2.563   2.557  14.809 -0.5617  0.8514 -0.4382
 7323TIP3   OH243383   1.776   3.208  15.715  0.4541 -0.3032  0.1764
 7323TIP3    H143384   1.799   3.115  15.723  1.0248 -0.1392  0.4840
 7323TIP3    H243385   1.699   3.219  15.770  1.7995 -0.0954  2.0730
 7324TIP3   OH243386   0.759   2.578  15.980 -0.0337 -0.0052  0.0072
 7324TIP3    H143387   0.681   2.618  15.941  1.1436  1.8221 -0.5099
 7324TIP3    H243388   0.753   2.486  15.955 -1.5447  0.2969 -0.8188
 7325TIP3   OH243389   2.434   3.959   0.207  0.5168 -0.0825 -0.5651
 7325TIP3    H143390   2.477   3.887   0.252  1.2533 -0.1833 -1.4473
 7325TIP3    H243391   2.493   4.034   0.219 -0.0109  0.2646 -0.0729
 7326TIP3   OH243392   1.401   4.084   1.638 -0.6658 -0.7355 -0.3354
 7326TIP3    H143393   1.407   4.090   1.733  1.9107  0.0395 -0.4971
 7326TIP3    H243394   1.352   4.162   1.611 -0.1454 -0.2010  0.2629
 7327TIP3   OH243395   6.991   4.144   1.105  0.0276  0.1834 -0.3993
 7327TIP3    H143396   7.023   4.078   1.043  0.1755  0.3456 -0.4955
 7327TIP3    H243397   6.933   4.095   1.163  1.0360 -0.2642  0.2446
 7328TIP3   OH243398   7.294   4.838  12.461  0.1486  0.1780 -0.3476
 7328TIP3    H143399   7.249   4.766  12.418 -0.4445  0.8117 -0.8000
 7328TIP3    H243400   7.228   4.877  12.518  0.3919  0.5194 -0.2992
 7329TIP3   OH243401   5.028   2.716  13.855 -0.3385 -0.7772 -0.1117
 7329TIP3    H143402   5.018   2.656  13.782  1.0318 -0.1868 -0.7959
 7329TIP3    H243403   5.052   2.800  13.815 -4.1436  0.7848  0.6604
 7330TIP3   OH243404   1.942   3.403  15.184  0.1096  0.4118  0.1272
 7330TIP3    H143405   2.010   3.432  15.246 -0.5305  0.4585  0.8170
 7330TIP3    H243406   1.958   3.309  15.174  0.6152  0.5232 -0.1401
 7331TIP3   OH243407   2.001   2.185  14.742  0.3224  0.0331  0.3648
 7331TIP3    H143408   2.049   2.260  14.707 -0.3996 -0.2853 -1.3776
 7331TIP3    H243409   1.929   2.172  14.680 -1.3169 -0.2252  2.3084
 7332TIP3   OH243410   7.099   1.836  15.463  0.1731 -0.4997  0.5565
 7332TIP3    H143411   7.091   1.893  15.386  0.9721 -0.7854  0.2684
 7332TIP3    H243412   7.190   1.843  15.489 -0.3331  0.4523  2.1363
 7333TIP3   OH243413   6.432   3.014  15.440 -0.1137  0.3232 -0.4374
 7333TIP3    H143414   6.429   3.097  15.488 -1.5281 -0.0168  0.0884
 7333TIP3    H243415   6.457   3.039  15.351  2.6770  0.9452  0.4501
 7334TIP3   OH243416   6.070   2.435  14.639 -0.4295  0.0194 -0.1691
 7334TIP3    H143417   6.119   2.485  14.573  0.7097 -1.7196 -0.6683
 7334TIP3    H243418   6.096   2.474  14.722 -0.6196  1.1588 -0.6219
 7335TIP3   OH243419   0.333   4.303  12.799  0.0454  0.4745 -0.4529
 7335TIP3    H143420   0.267   4.353  12.847 -0.1534 -0.0015 -0.2245
 7335TIP3    H243421   0.284   4.259  12.729  0.2209  0.6022 -0.6591
 7336TIP3   OH243422   1.109   4.514  15.449  0.6504 -0.3933  0.3728
 7336TIP3    H143423   1.114   4.445  15.382  2.0416 -0.1372  0.1954
 7336TIP3    H243424   1.128   4.468  15.531 -1.9015 -0.8697  0.7271
 7337TIP3   OH243425   0.887   3.671  12.536 -0.4282  0.1680  0.6600
 7337TIP3    H143426   0.937   3.714  12.467  1.8712 -0.6840  1.7579
 7337TIP3    H243427   0.795   3.687  12.512  0.3264  0.7357 -2.0191
 7338TIP3   OH243428   6.642   0.047   1.682  0.1284 -0.3411 -0.1331
 7338TIP3    H143429   6.724   0.096   1.696  1.0910 -2.4588  1.9142
 7338TIP3    H243430   6.598   0.051   1.766  0.7383 -3.8807  0.4049
 7339TIP3   OH243431   2.623   4.876  14.602 -0.0588 -0.0170  0.3782
 7339TIP3    H143432   2.706   4.864  14.649 -0.4569 -2.8162  0.4867
 7339TIP3    H243433   2.582   4.789  14.604 -1.2914  0.4037 -2.8914
 7340TIP3   OH243434   0.139   4.997  13.811  0.9777 -0.7803 -0.4838
 7340TIP3    H143435   0.132   4.906  13.784  2.6023 -1.1974  0.4794
 7340TIP3    H243436   0.227   5.023  13.786  0.7181  0.3620 -0.2368
 7341TIP3   OH243437   3.994   5.144  13.363  0.2378  0.0987  0.6754
 7341TIP3    H143438   4.082   5.133  13.327 -0.4749 -0.9500 -0.7898
 7341TIP3    H243439   3.993   5.087  13.440  0.4320 -0.9083 -0.0534
 7342TIP3   OH243440   5.118   3.279  13.034 -0.5231 -0.2271  0.2575
 7342TIP3    H143441   5.086   3.330  12.959  0.4080 -1.8448 -1.2719
 7342TIP3    H243442   5.040   3.236  13.068 -0.8405 -0.0658 -0.2497
 7343TIP3   OH243443   0.485   3.985   0.116  0.1537  0.0980 -0.2008
 7343TIP3    H143444   0.398   4.025   0.104  0.3838  0.9085  0.8029
 7343TIP3    H243445   0.467   3.891   0.123 -0.3906 -0.0223 -2.7167
 7344TIP3   OH243446   1.084   3.841  14.363 -0.5234 -0.1218 -0.6929
 7344TIP3    H143447   1.147   3.879  14.423  1.6047 -2.0370 -1.6283
 7344TIP3    H243448   1.040   3.773  14.414  1.3007 -1.7662 -1.2424
 7345TIP3   OH243449   3.309   3.285  14.741 -0.3353 -0.1135 -0.3867
 7345TIP3    H143450   3.321   3.244  14.655  0.3283 -0.7932  0.0265
 7345TIP3    H243451   3.338   3.218  14.803  0.1125  0.7437  0.3238
 7346TIP3   OH243452   6.954   2.769  15.124 -0.2831  0.2387 -0.2791
 7346TIP3    H143453   6.964   2.758  15.218  0.1720  0.9913 -0.2276
 7346TIP3    H243454   6.911   2.689  15.094 -0.6665  0.1100  0.6018
 7347TIP3   OH243455   6.312   2.545  14.577 -0.5815 -0.5725  0.5624
 7347TIP3    H143456   6.386   2.574  14.629  1.7431 -0.8246 -2.4788
 7347TIP3    H243457   6.333   2.454  14.555 -0.3461  0.2346 -2.7179
 7348TIP3   OH243458   2.610   3.424  13.352 -0.0738 -0.3990 -0.3625
 7348TIP3    H143459   2.698   3.411  13.387  0.7905  0.9453 -1.9572
 7348TIP3    H243460   2.591   3.517  13.370 -0.7200 -0.4040 -1.0091
 7349TIP3   OH243461   7.217   3.801  15.759  0.1471  0.2838  0.7125
 7349TIP3    H143462   7.300   3.758  15.738  0.3791  1.0953 -0.0250
 7349TIP3    H243463   7.226   3.890  15.725 -0.2543  0.9959  2.4262
 7350TIP3   OH243464   6.154   3.984  14.966  0.7326 -0.1937  0.4253
 7350TIP3    H143465   6.177   4.071  14.934  1.6518 -0.8938 -0.9106
 7350TIP3    H243466   6.236   3.934  14.960 -0.2521 -1.7030 -0.8097
 7351TIP3   OH243467   6.219   1.774  14.069  0.4915  0.6621  0.5788
 7351TIP3    H143468   6.249   1.833  14.000  0.6604 -1.2736 -1.0655
 7351TIP3    H243469   6.126   1.762  14.053  0.8140 -0.9402 -0.2544
 7352TIP3   OH243470   6.984   3.272  15.373 -0.8136 -0.6989  0.2758
 7352TIP3    H143471   6.949   3.345  15.322 -0.8913 -0.6484  0.4018
 7352TIP3    H243472   7.028   3.313  15.447  1.2723 -0.6607 -0.9607
 7353TIP3   OH243473   0.225   4.442  13.696  0.4974 -0.0541  0.0972
 7353TIP3    H143474   0.289   4.409  13.633  2.1910 -0.5135  2.0148
 7353TIP3    H243475   0.191   4.364  13.740  0.2931  0.3580  0.6780
 7354TIP3   OH243476   0.378   3.774  15.804  0.3353 -0.3097 -0.0923
 7354TIP3    H143477   0.372   3.685  15.768 -1.4432  0.0411 -0.7160
 7354TIP3    H243478   0.439   3.766  15.877  0.4135 -1.9969 -0.3248
 7355TIP3   OH243479   6.690   3.054  14.100  0.4083  0.0277  0.3729
 7355TIP3    H143480   6.703   2.970  14.055  1.2980 -0.3778  1.3715
 7355TIP3    H243481   6.595   3.060  14.111  0.3294 -0.8046  0.1873
 7356TIP3   OH243482   7.228   2.974  14.292 -0.0146  0.8097 -0.1021
 7356TIP3    H143483   7.186   2.952  14.375  0.9962 -0.2690  0.1419
 7356TIP3    H243484   7.157   3.011  14.238 -1.2696 -0.8441  0.3453
 7357TIP3   OH243485   0.960   4.131  15.600 -0.0498  0.5996 -0.1394
 7357TIP3    H143486   0.983   4.046  15.640 -0.6612  1.6162  2.5056
 7357TIP3    H243487   1.035   4.187  15.617 -0.1493  0.9368 -0.8007
 7358TIP3   OH243488   0.763   1.347  15.657 -0.4664  0.0192 -0.0066
 7358TIP3    H143489   0.803   1.410  15.716  0.7778 -1.8864  1.2451
 7358TIP3    H243490   0.835   1.289  15.631 -1.2825 -0.0211 -2.3044
 7359TIP3   OH243491   4.729   2.427   0.867  0.0525 -0.0479  0.2161
 7359TIP3    H143492   4.654   2.422   0.926  0.6742 -0.3051  0.9805
 7359TIP3    H243493   4.782   2.351   0.889  1.2542  0.9007  0.6392
 7360TIP3   OH243494   6.993   1.344  15.672 -0.1737 -0.1387  0.0247
 7360TIP3    H143495   6.959   1.258  15.698 -0.3477 -0.1700 -0.3004
 7360TIP3    H243496   6.952   1.361  15.587  0.5059 -0.1107 -0.3047
 7361TIP3   OH243497   0.370   1.710  15.210 -0.4849 -0.0441  0.1183
 7361TIP3    H143498   0.402   1.692  15.298  0.7473 -0.2445 -0.3579
 7361TIP3    H243499   0.276   1.722  15.221 -0.9370 -3.6953  0.9657
 7362TIP3   OH243500   2.595   5.145  15.287  0.2987 -0.8266  0.1591
 7362TIP3    H143501   2.617   5.238  15.283  2.4522 -1.3267  0.0466
 7362TIP3    H243502   2.503   5.143  15.314  0.1561  1.3360 -0.1356
 7363TIP3   OH243503   1.130   4.034  13.786  0.1934  0.3931  1.5917
 7363TIP3    H143504   1.131   4.129  13.792 -1.0478  0.3818  2.2163
 7363TIP3    H243505   1.093   4.005  13.870  0.2870 -0.6275  1.2923
 7364TIP3   OH243506   5.954   4.114  14.433  0.0918 -0.0999 -0.1858
 7364TIP3    H143507   6.002   4.185  14.475 -1.6246 -0.0037  1.7324
 7364TIP3    H243508   5.978   4.119  14.341  0.7948  2.3117  0.0955
 7365TIP3   OH243509   4.347   3.976  14.795  0.2259  0.2992  0.0764
 7365TIP3    H143510   4.302   3.896  14.769 -1.6791  1.3821 -0.0304
 7365TIP3    H243511   4.421   3.946  14.847 -0.3760 -1.5376 -0.1014
 7366TIP3   OH243512   2.548   2.639  15.614 -0.1341  0.4809 -0.0196
 7366TIP3    H143513   2.534   2.681  15.529  2.9069  0.3666 -0.6326
 7366TIP3    H243514   2.558   2.546  15.593 -2.9439 -0.0818  0.9065
 7367TIP3   OH243515   0.196   2.900  14.365  0.6973  0.4293 -0.2809
 7367TIP3    H143516   0.177   2.883  14.458  2.4449  0.8662  0.1757
 7367TIP3    H243517   0.113   2.933  14.330 -0.1645 -0.3408  0.9735
 7368TIP3   OH243518   1.932   4.372   3.359 -0.2163 -0.0366 -0.7791
 7368TIP3    H143519   1.933   4.435   3.287  0.0713 -1.6329 -2.2249
 7368TIP3    H243520   2.013   4.323   3.349  0.0776  0.0516  0.9680
 7369TIP3   OH243521   6.373   3.490  13.210 -0.4849 -0.4392  0.5090
 7369TIP3    H143522   6.371   3.537  13.293  0.9954  1.5866 -0.5720
 7369TIP3    H243523   6.432   3.416  13.225 -0.4390 -0.2354  1.3301
 7370TIP3   OH243524   3.170   3.760  13.626 -0.1525 -0.0435  0.4664
 7370TIP3    H143525   3.220   3.835  13.659 -0.5192  0.3147  0.2207
 7370TIP3    H243526   3.221   3.728  13.551  0.0103 -0.0463  0.5780
 7371TIP3   OH243527   3.390   4.149  15.228  0.3552 -0.1229  0.1372
 7371TIP3    H143528   3.324   4.164  15.160  0.2485 -0.6401  0.1223
 7371TIP3    H243529   3.474   4.152  15.181  0.4283  1.6087  0.3295
 7372TIP3   OH243530   1.602   3.609   2.048 -0.6647 -0.1906 -0.8746
 7372TIP3    H143531   1.656   3.657   1.985 -0.8033  1.3348  0.1630
 7372TIP3    H243532   1.520   3.593   2.001 -0.5246  0.3513 -1.3129
 7373TIP3   OH243533   1.690   3.063  13.736  0.1564 -0.0307 -0.1901
 7373TIP3    H143534   1.745   3.026  13.805 -0.5221  0.0344  0.3934
 7373TIP3    H243535   1.661   3.147  13.771 -0.1827  0.0077 -0.5640
 7374TIP3   OH243536   0.631   2.230  14.223  0.4838  0.6452 -0.2141
 7374TIP3    H143537   0.577   2.309  14.226  0.6945  0.8152 -0.6877
 7374TIP3    H243538   0.721   2.264  14.215  0.6731  0.3693  0.7696
 7375TIP3   OH243539   0.922   4.272   0.082 -0.0935  0.2160  0.4120
 7375TIP3    H143540   0.875   4.188   0.089  1.6814 -0.8119  0.1509
 7375TIP3    H243541   0.856   4.338   0.104 -1.3994 -1.2784  1.0594
 7376TIP3   OH243542   0.185   3.771  14.985  0.1244  0.7275  0.7568
 7376TIP3    H143543   0.190   3.845  14.924 -0.0196 -0.0772 -0.2522
 7376TIP3    H243544   0.136   3.804  15.060  0.6260  1.8460  0.5940
 7377TIP3   OH243545   1.583   3.959   1.329  0.1851 -0.2981  0.0896
 7377TIP3    H143546   1.638   3.895   1.283  1.2266 -0.5606  1.6706
 7377TIP3    H243547   1.645   4.020   1.368 -0.8219  2.0438 -1.8792
 7378TIP3   OH243548   1.346   3.472  15.898 -0.2850 -0.3318  0.2654
 7378TIP3    H143549   1.290   3.548  15.885  1.1313  0.8004  0.7018
 7378TIP3    H243550   1.355   3.464  15.993  0.3470 -0.4807  0.1936
 7379TIP3   OH243551   6.856   1.747  14.245 -0.0399  0.1191  0.4115
 7379TIP3    H143552   6.887   1.755  14.155  0.5207 -1.3462  0.4631
 7379TIP3    H243553   6.846   1.653  14.259 -0.0703  0.3284  1.8894
 7380TIP3   OH243554   0.952   3.111  15.554  0.3910 -0.2389 -0.2476
 7380TIP3    H143555   1.011   3.051  15.508 -0.2792  0.0856 -1.5405
 7380TIP3    H243556   0.867   3.067  15.552 -0.2162  0.9657 -1.6470
 7381TIP3   OH243557   1.540   5.250  14.247  0.1845  0.1070 -0.0281
 7381TIP3    H143558   1.573   5.320  14.303 -0.4373 -0.5960  1.2305
 7381TIP3    H243559   1.480   5.294  14.187  1.2094  0.9384 -0.4645
 7382TIP3   OH243560   1.381   4.409  13.770 -0.2091 -0.0925  0.4259
 7382TIP3    H143561   1.328   4.332  13.792 -1.0582  0.4097  0.1451
 7382TIP3    H243562   1.408   4.394  13.679  2.0955 -1.4671  1.2775
 7383TIP3   OH243563   5.579   1.962  15.261  0.2429  0.3528  0.0232
 7383TIP3    H143564   5.584   1.872  15.292  0.6561  0.3708  0.0055
 7383TIP3    H243565   5.665   1.980  15.224  0.5283  1.1302  1.0534
 7384TIP3   OH243566   6.925   2.406  13.748 -0.2344 -0.2686 -0.0200
 7384TIP3    H143567   6.892   2.383  13.835  0.6542  0.7621  0.6017
 7384TIP3    H243568   6.853   2.457  13.708  0.0336  0.7542  0.7865
 7385TIP3   OH243569   5.707   4.028  15.839  0.3836  0.6604  0.0867
 7385TIP3    H143570   5.789   4.075  15.825  1.6074 -1.4791 -0.1843
 7385TIP3    H243571   5.734   3.943  15.875 -1.7809  0.3110  0.9959
 7386TIP3   OH243572   0.085   1.266  14.500 -0.2768 -0.1684 -0.7177
 7386TIP3    H143573   0.010   1.212  14.475  0.2084 -0.4882 -1.4934
 7386TIP3    H243574   0.094   1.329  14.429  0.6474 -0.6045 -0.9918
 7387TIP3   OH243575   0.774   2.157  13.623 -0.1769  0.5233  0.4151
 7387TIP3    H143576   0.849   2.216  13.610  0.0048 -0.1580 -1.7508
 7387TIP3    H243577   0.751   2.168  13.716  1.4706  2.0752  0.6673
 7388TIP3   OH243578   2.453   0.813  15.536 -0.3801 -0.3291  0.2472
 7388TIP3    H143579   2.360   0.813  15.510 -0.3366 -1.1065  0.0716
 7388TIP3    H243580   2.456   0.756  15.613  0.0055 -0.6137  0.0285
 7389TIP3   OH243581   0.146   3.077  15.318  0.4649 -0.3591 -0.5790
 7389TIP3    H143582   0.052   3.073  15.299  0.4696 -0.3737 -0.5991
 7389TIP3    H243583   0.181   3.134  15.249  0.2147  0.9683  0.3793
 7390TIP3   OH243584   0.693   2.215  13.371 -0.6913  0.6488  0.6728
 7390TIP3    H143585   0.694   2.178  13.459  0.4170 -1.7148 -0.3090
 7390TIP3    H243586   0.605   2.252  13.362 -1.5883 -1.1008  1.9678
 7391TIP3   OH243587   1.790   3.857  15.006 -0.2859 -0.4912  0.2829
 7391TIP3    H143588   1.718   3.911  14.972  0.1465  0.0370  0.2070
 7391TIP3    H243589   1.867   3.886  14.957 -0.0175 -1.0518  0.3752
 7392TIP3   OH243590   1.223   1.752  15.387 -0.6031 -0.0965 -0.3137
 7392TIP3    H143591   1.295   1.799  15.430 -0.4884 -0.9586  0.4583
 7392TIP3    H243592   1.148   1.811  15.394 -0.2236  0.3810 -0.2165
 7393TIP3   OH243593   0.150   2.803   1.321  0.1300  0.0413 -0.2413
 7393TIP3    H143594   0.141   2.891   1.284 -0.5282  0.6920  1.4365
 7393TIP3    H243595   0.243   2.784   1.316 -0.0669 -0.3576 -3.2830
 7394TIP3   OH243596   2.869   1.899  14.909 -0.0172  0.1847  0.7848
 7394TIP3    H143597   2.814   1.863  14.839  1.1965 -1.0648  0.4688
 7394TIP3    H243598   2.867   1.994  14.893 -3.1821  0.3263  1.6086
 7395TIP3   OH243599   1.490   5.831   0.972  0.3416  0.6716  0.2091
 7395TIP3    H143600   1.442   5.914   0.972 -0.9504 -0.0118  3.1028
 7395TIP3    H243601   1.572   5.851   1.015 -0.5441  0.1821  2.1748
 7396TIP3   OH243602   2.190   4.176   1.284 -0.1268  0.7248  0.1024
 7396TIP3    H143603   2.180   4.216   1.371  0.2706  0.0841  0.4417
 7396TIP3    H243604   2.266   4.118   1.292 -2.2797 -2.1565  0.3656
 7397TIP3   OH243605   6.774   3.743   0.292  0.2079  0.4406  0.1222
 7397TIP3    H143606   6.847   3.794   0.328  1.1361 -0.3988 -0.5170
 7397TIP3    H243607   6.809   3.707   0.210  0.0136 -2.2690  1.1679
 7398TIP3   OH243608   5.855   4.184  14.895 -0.4803  0.9146 -0.5391
 7398TIP3    H143609   5.882   4.206  14.806 -0.2104  0.2845 -0.6135
 7398TIP3    H243610   5.865   4.089  14.900 -0.4290  0.9595  0.1890
 7399TIP3   OH243611   0.820   4.383   0.461  0.0945  0.2650  0.1029
 7399TIP3    H143612   0.785   4.462   0.503  1.6207  1.0426 -0.0789
 7399TIP3    H243613   0.848   4.328   0.534  0.0531  0.3710  0.1996
 7400TIP3   OH243614   2.061   5.013  14.369  0.0830  0.0096  0.3751
 7400TIP3    H143615   2.006   5.091  14.380  0.0840  0.1942 -0.8775
 7400TIP3    H243616   2.148   5.041  14.396 -0.0656  0.2284  0.6309
 7401TIP3   OH243617   2.510   3.650  14.333  0.1501  0.2211  0.1402
 7401TIP3    H143618   2.544   3.680  14.417  1.5624  1.0546 -0.7062
 7401TIP3    H243619   2.479   3.730  14.290  1.2743  0.0947 -0.9356
 7402TIP3   OH243620   1.827   6.055  14.291 -0.0585  0.4905 -0.0232
 7402TIP3    H143621   1.803   6.110  14.365 -1.2438 -0.2777  0.1601
 7402TIP3    H243622   1.855   5.972  14.330 -1.4087 -0.1835 -0.4561
 7403TIP3   OH243623   0.063   3.355  14.305  0.3228 -0.3060  0.2127
 7403TIP3    H143624   0.129   3.421  14.329  1.0955 -1.1833  0.5208
 7403TIP3    H243625   0.097   3.273  14.341 -1.7114 -0.4945  1.7404
 7404TIP3   OH243626   0.509   2.871  14.901 -0.0484 -0.3814  0.8760
 7404TIP3    H143627   0.419   2.880  14.932  0.2586  3.8620  0.8371
 7404TIP3    H243628   0.504   2.895  14.808  1.0692 -0.2720  0.8423
 7405TIP3   OH243629   6.359   5.075  14.350 -0.6535 -0.3386  0.1478
 7405TIP3    H143630   6.410   5.078  14.269 -3.0990  0.4154 -1.3966
 7405TIP3    H243631   6.413   5.023  14.410  1.7217  0.0732 -1.5683
 7406TIP3   OH243632   0.111   3.756   0.028  1.0038 -0.4970 -0.0322
 7406TIP3    H143633   0.192   3.762   0.079  0.5789  2.0839  0.3764
 7406TIP3    H243634   0.072   3.673   0.056  1.7037 -0.0296  2.4735
 7407TIP3   OH243635   2.655   2.494  12.530  0.2754  0.4020  0.0711
 7407TIP3    H143636   2.702   2.420  12.568 -0.2351 -0.4862 -0.9960
 7407TIP3    H243637   2.570   2.495  12.574 -0.9634 -1.6615 -2.1806
 7408TIP3   OH243638   3.614   2.863  14.785 -0.2786  0.2883  0.6153
 7408TIP3    H143639   3.638   2.885  14.875 -0.7448 -0.2977  0.8804
 7408TIP3    H243640   3.670   2.920  14.731  0.9389 -0.2927  1.2475
 7409TIP3   OH243641   1.992   1.606  14.364 -0.3459 -0.1132 -0.3077
 7409TIP3    H143642   1.934   1.533  14.343 -0.7104 -0.0434  0.4273
 7409TIP3    H243643   1.938   1.664  14.418 -0.1331  0.8117 -1.0750
 7410TIP3   OH243644   2.065   3.383  11.529  0.2734  0.3842 -0.4889
 7410TIP3    H143645   2.066   3.399  11.435 -2.2486  2.9373 -0.1652
 7410TIP3    H243646   2.097   3.465  11.567  0.6503 -0.3939  0.8919
 7411TIP3   OH243647   1.327   3.182  14.519  0.1957 -0.8244 -0.5132
 7411TIP3    H143648   1.298   3.092  14.536  1.9739 -1.1903  0.7510
 7411TIP3    H243649   1.423   3.177  14.524  0.3311  1.0274 -1.0332
 7412TIP3   OH243650   0.952   2.465   1.339 -0.1602 -0.0621  0.1242
 7412TIP3    H143651   0.892   2.497   1.272  0.9014  1.0297 -0.3092
 7412TIP3    H243652   0.910   2.385   1.372 -1.3753  0.1627 -0.8396
 7413TIP3   OH243653   1.251   1.521  13.816  0.3674  0.3462  0.0429
 7413TIP3    H143654   1.211   1.440  13.786 -1.1608  0.6445  1.2389
 7413TIP3    H243655   1.325   1.535  13.756  1.0217 -2.2328  0.2021
 7414TIP3   OH243656   5.991   6.037  13.919 -0.0407  0.2497  0.1038
 7414TIP3    H143657   6.061   5.994  13.968 -0.8167  0.3669  1.3069
 7414TIP3    H243658   6.036   6.108  13.871  1.2207 -1.7837 -1.8096
 7415TIP3   OH243659   5.928   1.762  14.996 -0.2855 -0.7894 -0.0931
 7415TIP3    H143660   6.020   1.756  14.971  0.3767  0.6779  1.8420
 7415TIP3    H243661   5.907   1.677  15.036  0.0400 -1.3510 -1.1201
 7416TIP3   OH243662   1.625   2.648  13.830 -0.0746  0.6386 -0.6528
 7416TIP3    H143663   1.551   2.590  13.846  0.1535  0.0862 -1.6108
 7416TIP3    H243664   1.585   2.734  13.814 -0.3996  0.7982  0.9554
 7417TIP3   OH243665   1.698   5.037  13.581  0.3672 -0.2788  0.5562
 7417TIP3    H143666   1.793   5.032  13.583  0.3968 -0.2317 -0.6076
 7417TIP3    H243667   1.678   5.092  13.505 -0.5300  1.3788  1.9569
 7418TIP3   OH243668   6.762   3.713  12.631  0.8411  0.3867 -0.1359
 7418TIP3    H143669   6.698   3.698  12.701  1.6870  1.4242  0.8716
 7418TIP3    H243670   6.846   3.720  12.677  1.5958 -0.2967 -1.3892
 7419TIP3   OH243671   0.851   7.226  15.592 -0.4941  0.5058 -0.5281
 7419TIP3    H143672   0.931   7.277  15.579 -0.5346  0.4329 -1.0438
 7419TIP3    H243673   0.881   7.144  15.631 -0.6297  1.8218  2.5519
 7420TIP3   OH243674   5.061   0.875   1.084  0.1261  0.1277 -0.3593
 7420TIP3    H143675   5.146   0.919   1.088 -0.2778  0.8109  1.2974
 7420TIP3    H243676   5.073   0.805   1.020  1.6111  0.9116 -0.9563
 7421TIP3   OH243677   6.368   2.607   0.718  0.2555 -0.2143 -0.8343
 7421TIP3    H143678   6.301   2.564   0.771  1.7109 -2.1365 -0.5092
 7421TIP3    H243679   6.322   2.633   0.638 -1.1606 -0.3850 -0.0883
 7422TIP3   OH243680   1.423   4.169   1.174 -0.0281  0.1836 -0.5919
 7422TIP3    H143681   1.481   4.121   1.233 -0.6232  1.4434  1.0440
 7422TIP3    H243682   1.335   4.150   1.206 -0.4157  0.1648 -1.6378
 7423TIP3   OH243683   2.665   1.844  15.450 -0.2846 -0.1733 -0.7105
 7423TIP3    H143684   2.631   1.894  15.525 -0.7037 -0.5279 -0.6650
 7423TIP3    H243685   2.702   1.910  15.393 -0.0860  0.1169 -0.2501
 7424TIP3   OH243686   4.659   3.483  14.146  0.0357 -0.2485  0.0279
 7424TIP3    H143687   4.627   3.395  14.127  1.9528 -1.2848  1.3165
 7424TIP3    H243688   4.754   3.476  14.137  0.3169  1.3589  1.3641
 7425TIP3   OH243689   5.727   4.246  13.265 -0.0558  0.4889 -1.0106
 7425TIP3    H143690   5.777   4.178  13.221  2.8630  3.0854 -1.9289
 7425TIP3    H243691   5.770   4.255  13.350 -1.1413  0.4108 -0.4516
 7426TIP3   OH243692   1.926   0.270   0.629 -0.6590 -0.1102  0.3383
 7426TIP3    H143693   1.990   0.267   0.699  0.9535 -1.7488 -1.1487
 7426TIP3    H243694   1.948   0.349   0.579  0.0567 -0.5274 -0.0142
 7427TIP3   OH243695   3.034   1.268  14.305  0.5053 -1.0708  0.2259
 7427TIP3    H143696   2.971   1.223  14.361  0.7753 -0.1483  1.2774
 7427TIP3    H243697   3.076   1.197  14.256 -1.2854 -1.6944 -0.4569
 7428TIP3   OH243698   3.170   4.571  13.446  0.2226 -0.0875  0.2100
 7428TIP3    H143699   3.176   4.629  13.521 -2.4019  1.1206 -0.4258
 7428TIP3    H243700   3.221   4.615  13.377  0.0966  0.3523  0.3931
 7429TIP3   OH243701   5.556   2.709  14.854 -0.1577 -0.1374 -0.6768
 7429TIP3    H143702   5.552   2.629  14.801 -1.8576  0.4866 -1.5387
 7429TIP3    H243703   5.575   2.679  14.943 -0.8099 -1.5063 -0.9895
 7430TIP3   OH243704   2.127   4.216  14.895  0.4125 -0.0885 -0.4536
 7430TIP3    H143705   2.152   4.307  14.880 -0.6437  0.3201  0.2120
 7430TIP3    H243706   2.082   4.189  14.815 -2.3485  1.0795  0.6356
 7431TIP3   OH243707   5.091   2.073  11.086 -0.0532  0.1172 -0.0407
 7431TIP3    H143708   5.129   2.012  11.149 -1.6390  1.0848  1.9224
 7431TIP3    H243709   5.163   2.132  11.063  0.3443  0.2707  1.5566
 7432TIP3   OH243710   4.326   0.902  13.748  0.2355 -0.3016  0.0220
 7432TIP3    H143711   4.413   0.862  13.748  0.2621 -0.2545  1.2497
 7432TIP3    H243712   4.293   0.887  13.836 -0.7745  0.1842 -0.2727
 7433TIP3   OH243713   0.788   0.658  14.198 -0.5572 -0.0969 -0.4113
 7433TIP3    H143714   0.725   0.594  14.165  1.1362 -1.7927 -0.4083
 7433TIP3    H243715   0.795   0.723  14.128 -0.1240 -1.4478 -1.6445
 7434TIP3   OH243716   5.804   3.673  13.618  0.3930  0.5541  0.0199
 7434TIP3    H143717   5.761   3.725  13.685  1.4830 -0.7799  1.7937
 7434TIP3    H243718   5.883   3.723  13.596  1.1218 -0.0177  1.2777
 7435TIP3   OH243719   2.994   2.730  11.924 -0.3342  0.0658  0.2497
 7435TIP3    H143720   2.978   2.636  11.917 -0.5044  0.0309  1.0849
 7435TIP3    H243721   3.039   2.740  12.007 -1.3975  0.8566  0.7411
 7436TIP3   OH243722   2.576   3.917  13.822 -0.0933  0.0908 -0.3464
 7436TIP3    H143723   2.597   3.988  13.762  0.0771 -0.9031 -1.5017
 7436TIP3    H243724   2.646   3.853  13.809 -0.7778 -0.7335 -0.0848
 7437TIP3   OH243725   1.705   1.679  15.441 -0.0430  0.1990  0.2602
 7437TIP3    H143726   1.720   1.677  15.536  1.7894 -0.1453 -0.0141
 7437TIP3    H243727   1.677   1.769  15.423  0.9978  0.6794  0.9512
 7438TIP3   OH243728   1.596   4.773  13.276  0.5143  0.5057  0.1625
 7438TIP3    H143729   1.596   4.775  13.372  2.3509 -3.1588  0.3256
 7438TIP3    H243730   1.508   4.742  13.253  0.0250  1.5100  0.6553
 7439TIP3   OH243731   5.827   3.013   0.899  0.3106 -0.0999  0.0182
 7439TIP3    H143732   5.774   2.946   0.855  0.1869  0.3611 -0.5428
 7439TIP3    H243733   5.906   3.019   0.845  0.4729 -0.0402  0.2657
 7440TIP3   OH243734   4.378   4.502  15.278  0.0877  0.2827 -0.2160
 7440TIP3    H143735   4.312   4.452  15.327  0.1535  2.1235  1.8354
 7440TIP3    H243736   4.330   4.542  15.206 -0.4713 -0.6601 -0.3703
 7441TIP3   OH243737   3.752   4.081  15.212  0.2263 -0.5074 -0.5469
 7441TIP3    H143738   3.699   4.089  15.292  0.1254  1.1394 -0.7419
 7441TIP3    H243739   3.720   4.002  15.169 -0.0110 -1.1714  0.8325
 7442TIP3   OH243740   4.593   4.158  15.164 -0.8850 -0.7844 -0.3902
 7442TIP3    H143741   4.603   4.225  15.231 -0.7486  1.2907 -2.4299
 7442TIP3    H243742   4.637   4.081  15.200  1.1691  0.9609  0.9446
 7443TIP3   OH243743   3.591   1.866   0.374 -0.4197  0.1035 -0.1760
 7443TIP3    H143744   3.537   1.889   0.298 -1.9019 -0.3143  0.7163
 7443TIP3    H243745   3.602   1.949   0.421 -1.1980  0.0022  0.1959
 7444TIP3   OH243746   4.297   5.004  13.928 -0.7521 -0.0379  0.3376
 7444TIP3    H143747   4.253   4.921  13.907 -1.1361 -0.5044  2.8127
 7444TIP3    H243748   4.232   5.071  13.907 -1.7771 -0.5819  1.7223
 7445TIP3   OH243749   6.528   3.062  15.172 -0.0999 -0.4970  0.0688
 7445TIP3    H143750   6.612   3.016  15.171  1.4574  2.2323  0.3870
 7445TIP3    H243751   6.507   3.075  15.080 -0.7320 -2.1174 -0.0315
 7446TIP3   OH243752   2.827   0.675  12.385 -0.0121 -0.0123  0.1960
 7446TIP3    H143753   2.821   0.693  12.291  0.5553  1.3324  0.4033
 7446TIP3    H243754   2.738   0.653  12.412 -0.3713  0.6857 -0.4362
 7447TIP3   OH243755   4.710   3.589   0.008  0.7695  0.1880  0.2984
 7447TIP3    H143756   4.616   3.605   0.013  0.8077  1.4152 -2.2510
 7447TIP3    H243757   4.717   3.497  -0.017  0.2869 -0.1478  1.3526
 7448TIP3   OH243758   3.005   3.465   0.013  0.3020  0.2407  0.1380
 7448TIP3    H143759   3.049   3.406  -0.047 -0.0092  0.5324 -0.3868
 7448TIP3    H243760   2.963   3.408   0.077  1.4598 -0.0292  0.6508
 7449TIP3   OH243761   2.713   3.753  14.504 -0.1420  0.0879  0.0266
 7449TIP3    H143762   2.720   3.716  14.592 -1.0990  0.4403  0.2505
 7449TIP3    H243763   2.734   3.679  14.446 -1.0661 -0.5535  0.4940
 7450TIP3   OH243764   3.130   3.793  14.508  0.3819  0.6637  0.5863
 7450TIP3    H143765   3.095   3.843  14.581 -0.8442 -0.1107  0.5354
 7450TIP3    H243766   3.223   3.814  14.507  0.0541  2.2117  1.1416
 7451TIP3   OH243767   6.133   2.742  13.507  0.2264  0.1341 -0.3161
 7451TIP3    H143768   6.046   2.783  13.513  0.5115  0.7448 -0.2806
 7451TIP3    H243769   6.186   2.790  13.570 -0.0278 -1.8580  1.4421
 7452TIP3   OH243770   0.407   1.931  13.595  0.1335  0.0120 -0.2845
 7452TIP3    H143771   0.399   2.016  13.552 -2.7448 -2.0678 -4.1167
 7452TIP3    H243772   0.445   1.873  13.528 -1.2859 -2.5493  1.0484
 7453TIP3   OH243773   3.996   2.928  14.752  0.2247  0.6366  0.0750
 7453TIP3    H143774   4.020   2.956  14.664 -0.4640 -0.5776 -0.5235
 7453TIP3    H243775   3.940   2.852  14.738  0.5991  0.0609  1.5793
 7454TIP3   OH243776   2.837   2.088   0.780 -0.0734 -0.1662  0.1535
 7454TIP3    H143777   2.742   2.088   0.774  0.0386  0.0177 -2.0184
 7454TIP3    H243778   2.864   2.005   0.740  0.7565  0.7807 -1.3098
 7455TIP3   OH243779   3.094   3.644  15.221 -0.1853 -0.1641 -0.2979
 7455TIP3    H143780   3.100   3.597  15.137  0.6181  0.7580 -0.7757
 7455TIP3    H243781   3.030   3.713  15.205  0.3785  0.3605 -0.3392
 7456TIP3   OH243782   1.537   7.250  12.776 -0.0457 -0.7882 -0.2599
 7456TIP3    H143783   1.506   7.215  12.859  0.7547  0.0798  0.4145
 7456TIP3    H243784   1.487   7.331  12.764 -0.7669 -1.3411 -1.0473
 7457TIP3   OH243785   3.670   1.905   1.617 -0.1078  0.4013  0.2600
 7457TIP3    H143786   3.612   1.829   1.625 -0.2845  0.5784  0.7026
 7457TIP3    H243787   3.626   1.973   1.668 -0.0208  0.8419 -0.2514
 7458TIP3   OH243788   3.977   4.187  14.064 -0.1613 -0.1369 -0.6264
 7458TIP3    H143789   4.071   4.206  14.068  0.0780 -1.4808  0.5669
 7458TIP3    H243790   3.949   4.222  13.979  1.6996 -0.9746 -1.6012
 7459TIP3   OH243791   4.959   2.845  13.352 -0.0639 -0.2640 -0.3603
 7459TIP3    H143792   4.987   2.875  13.438 -0.6600 -0.0749 -0.2284
 7459TIP3    H243793   4.906   2.767  13.370 -0.5118 -0.0006 -0.5208
 7460TIP3   OH243794   2.952   4.152  13.574  0.5397 -0.7024 -0.0060
 7460TIP3    H143795   2.936   4.072  13.523  0.3073 -1.6986  1.6103
 7460TIP3    H243796   2.865   4.181  13.602  0.8355 -1.4996  1.8114
 7461TIP3   OH243797   3.973   4.176   0.218  0.0521 -0.7031 -0.3599
 7461TIP3    H143798   4.019   4.222   0.148  0.4880  0.9916  1.0146
 7461TIP3    H243799   3.934   4.245   0.271 -0.5240 -1.9770  0.9140
 7462TIP3   OH243800   5.096   5.251  12.391  0.0558  0.7390  0.3481
 7462TIP3    H143801   5.166   5.294  12.441  0.5271 -0.3453  0.6499
 7462TIP3    H243802   5.137   5.171  12.357 -1.4474 -0.7140  1.8217
 7463TIP3   OH243803   3.339   2.654  13.822 -0.5936  0.0152 -0.1135
 7463TIP3    H143804   3.318   2.705  13.901 -0.2362 -2.1133  1.3901
 7463TIP3    H243805   3.323   2.563  13.847  3.5622 -1.1070 -1.0999
 7464TIP3   OH243806   0.177   3.089   0.678 -0.0793  0.2523 -0.3758
 7464TIP3    H143807   0.213   3.145   0.747  1.1147  0.2655 -0.9919
 7464TIP3    H243808   0.252   3.069   0.622 -0.9475 -0.1027 -1.4338
 7465TIP3   OH243809   1.997   1.026  13.026  0.0107 -0.1819  0.3412
 7465TIP3    H143810   1.998   1.100  12.965 -0.2496  0.0863  0.6591
 7465TIP3    H243811   1.904   1.009  13.041  0.0710 -0.5860  0.2519
 7466TIP3   OH243812   2.861   2.074   0.258  0.4004  0.3385  0.4156
 7466TIP3    H143813   2.785   2.120   0.296  1.0024  1.3353  0.4433
 7466TIP3    H243814   2.927   2.076   0.328 -0.6451 -3.4727  1.6339
 7467TIP3   OH243815   2.654   6.548  13.053 -0.0190  0.1271 -0.7980
 7467TIP3    H143816   2.592   6.482  13.022  0.7813 -0.0739 -2.0254
 7467TIP3    H243817   2.689   6.587  12.973  1.0861  0.5525 -0.1191
 7468TIP3   OH243818   0.653   3.767  14.823  0.5944  0.5219 -0.4604
 7468TIP3    H143819   0.605   3.704  14.876  1.1774  1.1014  0.7751
 7468TIP3    H243820   0.731   3.721  14.795  1.1586  0.7811  0.6795
 7469TIP3   OH243821   5.991   2.977  14.601  0.0028  0.1882 -0.4702
 7469TIP3    H143822   6.064   2.915  14.606  0.2535  0.4905 -0.3456
 7469TIP3    H243823   6.026   3.052  14.553 -1.0488 -0.8138 -2.8675
 7470TIP3   OH243824   6.953   2.512  14.404 -0.1707 -0.3812  0.3379
 7470TIP3    H143825   6.904   2.441  14.362  2.4855 -1.2334 -1.4888
 7470TIP3    H243826   6.960   2.487  14.496 -1.5785 -1.1192  0.2522
 7471TIP3   OH243827   1.094   6.841  14.921  0.3977  0.4000  0.3674
 7471TIP3    H143828   1.175   6.806  14.882 -0.6605 -0.2181 -1.3319
 7471TIP3    H243829   1.101   6.936  14.910  1.7278  0.5116  1.9247
 7472TIP3   OH243830   2.765   3.928  13.396 -0.0917  0.5653 -0.2324
 7472TIP3    H143831   2.709   3.975  13.334 -0.0722  1.5000  0.4451
 7472TIP3    H243832   2.835   3.891  13.343 -1.6432 -1.0773 -1.1732
 7473TIP3   OH243833   3.824   2.496  13.653 -0.2550  0.1092 -0.5009
 7473TIP3    H143834   3.794   2.423  13.707 -2.0849  0.2444 -1.2795
 7473TIP3    H243835   3.868   2.455  13.579  2.0032 -0.0839  0.9161
 7474TIP3   OH243836   1.711   5.068  14.071 -0.0205  0.0576  0.2322
 7474TIP3    H143837   1.683   5.149  14.114  1.9514  1.0972 -0.3275
 7474TIP3    H243838   1.685   4.998  14.130 -2.1137  1.0638  0.5442
 7475TIP3   OH243839   3.279   3.778  15.009 -0.1114 -0.0821 -0.1254
 7475TIP3    H143840   3.330   3.698  14.996 -1.7129 -1.1245 -0.1098
 7475TIP3    H243841   3.300   3.833  14.934  2.1619  0.1339  0.6202
 7476TIP3   OH243842   3.054   1.257   0.915  0.0774 -0.1451 -0.4651
 7476TIP3    H143843   3.064   1.327   0.980  1.3065 -1.5028  0.8614
 7476TIP3    H243844   3.113   1.281   0.844  0.5573  0.1262  0.0237
 7477TIP3   OH243845   0.111   4.000  14.861  0.8368 -0.3264 -0.6080
 7477TIP3    H143846   0.019   4.012  14.884  0.7357  0.2304 -1.2969
 7477TIP3    H243847   0.158   4.050  14.928  0.6411 -0.5415 -0.3053
 7478TIP3   OH243848   2.298   5.645  14.900 -0.1625 -0.4342 -0.2678
 7478TIP3    H143849   2.220   5.690  14.868  0.3209 -0.0704 -0.9560
 7478TIP3    H243850   2.302   5.565  14.847 -0.4847 -0.8245  0.2909
 7479TIP3   OH243851   3.042   2.684  14.028 -0.1171 -0.0064  0.0631
 7479TIP3    H143852   3.088   2.768  14.037 -1.5169  0.7353  0.4572
 7479TIP3    H243853   3.002   2.687  13.941  1.9993 -1.3845 -0.9791
 7480TIP3   OH243854   1.145   1.089  14.976 -0.5914 -0.2292 -0.4275
 7480TIP3    H143855   1.129   1.145  14.900  1.3057  1.4318  0.3630
 7480TIP3    H243856   1.070   1.028  14.977 -1.4888  0.7884 -2.6351
 7481TIP3   OH243857   2.038   0.553  15.503  0.5246  0.2913  0.5930
 7481TIP3    H143858   1.944   0.561  15.521  0.3177 -0.8115  0.0208
 7481TIP3    H243859   2.056   0.459  15.509  1.2235  0.2900 -1.1285
 7482TIP3   OH243860   2.397   2.353  14.405 -0.8697  0.4172 -0.1137
 7482TIP3    H143861   2.451   2.280  14.375  1.0509  1.3065  1.0780
 7482TIP3    H243862   2.307   2.326  14.387 -0.1590 -2.0397 -0.0855
 7483TIP3   OH243863   1.925   3.336  14.153  0.3958 -0.2226 -0.5197
 7483TIP3    H143864   1.932   3.339  14.058 -0.2219  0.1197 -0.5621
 7483TIP3    H243865   1.941   3.427  14.181 -0.8442 -0.0179 -0.4172
 7484TIP3   OH243866   4.765   3.732  12.698 -0.0096 -0.3832 -0.0726
 7484TIP3    H143867   4.827   3.801  12.719 -0.0036  0.2274 -2.0614
 7484TIP3    H243868   4.788   3.660  12.757  1.1903  0.6189  0.6905
 7485TIP3   OH243869   1.919   1.544   0.139 -0.2842 -0.1775 -0.4642
 7485TIP3    H143870   1.847   1.570   0.197  0.5139 -0.8118  0.8052
 7485TIP3    H243871   1.985   1.612   0.151 -0.0219 -0.4319 -0.4649
 7486TIP3   OH243872   3.562   1.539  14.825 -0.3736 -0.0357  0.3744
 7486TIP3    H143873   3.493   1.564  14.887 -0.3886 -1.4880  0.9622
 7486TIP3    H243874   3.632   1.503  14.880  0.1446 -0.1461 -0.3557
 7487TIP3   OH243875   3.389   1.617  12.750  0.7314  0.3585 -0.0851
 7487TIP3    H143876   3.366   1.698  12.796 -0.9993  0.2895 -0.7754
 7487TIP3    H243877   3.306   1.571  12.739  1.6595 -1.3947  0.0394
 7488TIP3   OH243878   5.644   3.952  15.166  0.2989  0.0480 -0.2471
 7488TIP3    H143879   5.617   4.040  15.141 -0.7447 -0.6922 -1.7442
 7488TIP3    H243880   5.714   3.929  15.105 -0.0394 -0.5096 -0.4298
 7489TIP3   OH243881   2.150   2.449  14.309  0.2360 -0.1492  0.2399
 7489TIP3    H143882   2.066   2.473  14.349 -0.5434 -1.0788 -0.8097
 7489TIP3    H243883   2.142   2.478  14.218  0.3121 -1.9864 -0.3613
 7490TIP3   OH243884   5.346   2.745  14.609  0.1624  0.2174  0.1272
 7490TIP3    H143885   5.426   2.694  14.600  0.5300  0.9145 -0.6430
 7490TIP3    H243886   5.365   2.806  14.681  0.5971  0.8715 -0.5326
 7491TIP3   OH243887   2.748   6.578  12.824  0.3687 -0.6688 -0.8370
 7491TIP3    H143888   2.791   6.546  12.744 -1.9303 -1.4541 -1.7866
 7491TIP3    H243889   2.665   6.614  12.794  0.5054  1.2135  0.9377
 7492TIP3   OH243890   1.498   3.533   0.679  0.0954 -0.2108 -0.2725
 7492TIP3    H143891   1.582   3.555   0.639 -0.6469 -1.0212 -2.3758
 7492TIP3    H243892   1.458   3.471   0.618 -1.1333 -1.4535  1.7292
 7493TIP3   OH243893   0.804   3.261  15.741  0.2257  0.3241 -0.9579
 7493TIP3    H143894   0.879   3.216  15.702  0.0506  1.2240 -2.3840
 7493TIP3    H243895   0.807   3.349  15.703 -0.8385  0.7563 -0.0721
 7494TIP3   OH243896   4.603   4.032  13.088 -0.4060  0.4836 -0.0083
 7494TIP3    H143897   4.577   4.101  13.149  1.4631  0.8442  0.4059
 7494TIP3    H243898   4.674   3.986  13.133  1.2046  0.9433 -2.0238
 7495TIP3   OH243899   5.102   3.929   0.373  0.3243  0.1378  0.1985
 7495TIP3    H143900   5.072   3.971   0.453  2.8178  2.2974  0.0616
 7495TIP3    H243901   5.086   3.995   0.305 -0.8403 -1.2845 -0.9345
 7496TIP3   OH243902   6.738   2.344  15.321  0.0688 -0.0865 -0.5307
 7496TIP3    H143903   6.677   2.336  15.394  0.4515  0.9295 -0.0975
 7496TIP3    H243904   6.682   2.363  15.245 -0.3526 -1.4059 -0.5675
 7497TIP3   OH243905   2.452   2.458  15.112 -0.2611  0.3803 -0.3498
 7497TIP3    H143906   2.479   2.366  15.101 -0.1591  0.5613 -1.7032
 7497TIP3    H243907   2.356   2.456  15.103 -0.3722  0.2303  0.8855
 7498TIP3   OH243908   2.525   3.613  12.908 -0.0391 -0.1997  0.2282
 7498TIP3    H143909   2.518   3.612  12.812 -1.5833 -2.4396  0.3332
 7498TIP3    H243910   2.456   3.674  12.936 -0.8258 -0.9820 -0.0033
 7499TIP3   OH243911   2.517   1.625  12.322 -0.2804  0.0092  0.3231
 7499TIP3    H143912   2.487   1.573  12.248 -1.6876 -0.9646  1.5268
 7499TIP3    H243913   2.442   1.628  12.381  0.8938  0.4913  1.8406
 7500TIP3   OH243914   3.494   2.685   1.240 -0.7425  0.1533 -0.0396
 7500TIP3    H143915   3.464   2.666   1.329 -1.0993 -0.4724 -0.2906
 7500TIP3    H243916   3.420   2.661   1.184  0.4462 -2.0679 -0.7230
 7501TIP3   OH243917   3.161   2.377  15.823 -0.0752  0.1003 -0.5976
 7501TIP3    H143918   3.190   2.327  15.746  1.2717 -0.9595  0.5777
 7501TIP3    H243919   3.140   2.310  15.888  1.4405  1.0516  0.8980
 7502TIP3   OH243920   5.108   3.087  14.930  0.1321 -0.2198  0.4155
 7502TIP3    H143921   5.038   3.026  14.906  0.1005 -0.0105 -0.0361
 7502TIP3    H243922   5.188   3.035  14.925  0.1348 -0.1524 -0.2430
 7503TIP3   OH243923   3.869   2.643  13.205  0.0544  0.1721  0.7839
 7503TIP3    H143924   3.814   2.717  13.231  0.7367  0.5381  1.2238
 7503TIP3    H243925   3.958   2.679  13.206  0.6227 -1.2293  3.1703
 7504TIP3   OH243926   0.716   2.268  15.949  0.0594 -0.1191 -0.1628
 7504TIP3    H143927   0.811   2.261  15.949  0.0255 -0.5996  0.2508
 7504TIP3    H243928   0.695   2.310  15.866  0.4688 -2.2706 -1.3881
 7505TIP3   OH243929   1.860   5.158  13.858  0.5509  0.4767 -0.0188
 7505TIP3    H143930   1.936   5.209  13.829 -0.0280  1.3237 -0.0998
 7505TIP3    H243931   1.856   5.171  13.952 -0.2392  1.5107 -0.1806
 7506TIP3   OH243932   2.801   1.222  11.883 -0.5438 -0.6249 -0.5029
 7506TIP3    H143933   2.788   1.195  11.974 -1.8029 -0.7807 -0.7307
 7506TIP3    H243934   2.880   1.175  11.856 -1.0698 -1.8216  0.0110
 7507TIP3   OH243935   2.538   3.957  13.199 -0.6096  0.3443  0.1424
 7507TIP3    H143936   2.487   3.887  13.158  0.4613 -0.2200 -0.2499
 7507TIP3    H243937   2.552   4.021  13.129 -0.3762  0.2709  0.1204
 7508TIP3   OH243938   2.705   1.353  15.958 -0.1443 -0.5564 -0.3293
 7508TIP3    H143939   2.660   1.426  15.918 -0.8061 -0.7939 -0.0272
 7508TIP3    H243940   2.753   1.391  16.032  1.2195 -0.0891 -1.4202
 7509TIP3   OH243941   3.857   1.873  14.437 -0.0010  0.8779  0.4055
 7509TIP3    H143942   3.830   1.938  14.501  0.2617 -0.2842  1.7195
 7509TIP3    H243943   3.792   1.803  14.445  0.4555  0.3925 -0.0664
 7510TIP3   OH243944   2.205   3.017  13.725  0.0634  0.1037 -0.0861
 7510TIP3    H143945   2.155   3.070  13.663 -0.2653  0.7364  0.7185
 7510TIP3    H243946   2.289   3.001  13.681 -0.5760 -0.4029 -1.1633
 7511TIP3   OH243947   3.808   4.035  13.231 -0.0700 -0.0360  0.0857
 7511TIP3    H143948   3.766   4.070  13.309 -0.1200  2.1275 -0.8692
 7511TIP3    H243949   3.888   4.087  13.220  0.2310 -0.6895 -0.9881
 7512TIP3   OH243950   7.240   2.944  15.836 -0.3277  0.1597 -0.7211
 7512TIP3    H143951   7.184   2.965  15.762  0.3796  2.4079 -0.6632
 7512TIP3    H243952   7.180   2.909  15.902 -1.2219 -0.1558 -1.6898
 7513TIP3   OH243953   3.092   2.205  14.694  0.6043 -0.0756  0.4186
 7513TIP3    H143954   3.133   2.158  14.621  0.1277  0.4417 -0.1939
 7513TIP3    H243955   3.038   2.272  14.651 -3.0286 -2.4273  1.0965
 7514TIP3   OH243956   2.826   4.638  14.863 -0.1937  0.1200 -0.0493
 7514TIP3    H143957   2.744   4.590  14.869 -0.0113  0.0487  2.3300
 7514TIP3    H243958   2.894   4.570  14.865 -0.0318  0.2469 -0.9030
 7515TIP3   OH243959   4.676   2.659  12.717 -0.2632 -0.7595 -0.7943
 7515TIP3    H143960   4.736   2.719  12.761  1.0443  0.3471 -3.9719
 7515TIP3    H243961   4.706   2.572  12.744  0.7726 -0.1281  0.1575
 7516TIP3   OH243962   5.099   5.345  14.197 -0.1763  0.1096 -0.4213
 7516TIP3    H143963   5.048   5.287  14.141 -2.4957 -0.0144  1.7141
 7516TIP3    H243964   5.047   5.353  14.277  2.7291  0.7351  1.4949
 7517TIP3   OH243965   5.881   3.491  12.440 -0.1338 -0.2563  0.2460
 7517TIP3    H143966   5.852   3.533  12.359  0.9914 -0.8442 -0.4794
 7517TIP3    H243967   5.801   3.477  12.490 -0.6744  1.4819 -0.0973
 7518TIP3   OH243968   3.317   3.219  14.470  0.5267 -0.4837  0.1054
 7518TIP3    H143969   3.295   3.313  14.471  1.6754 -0.2071 -0.5703
 7518TIP3    H243970   3.403   3.215  14.429  0.3165 -1.8805 -0.1947
 7519TIP3   OH243971   1.969   2.767  15.767 -0.6549 -0.6322  0.0248
 7519TIP3    H143972   1.995   2.677  15.787  1.7681  0.2413  0.9462
 7519TIP3    H243973   1.931   2.799  15.849 -1.0630 -0.6312 -0.1604
 7520TIP3   OH243974   2.076   5.449  14.382 -0.1743  0.4159 -0.1677
 7520TIP3    H143975   2.092   5.378  14.444 -0.8455 -0.7936 -1.3697
 7520TIP3    H243976   2.023   5.511  14.431 -0.7336 -0.5461  0.4657
 7521TIP3   OH243977   3.069   2.379  14.127 -0.0378 -0.2607  0.0673
 7521TIP3    H143978   3.141   2.377  14.190 -0.5622 -1.0157  0.6423
 7521TIP3    H243979   3.057   2.472  14.108  0.2226 -0.0385  0.9680
 7522TIP3   OH243980   4.029   6.085  15.734  0.3998  0.5514  0.3704
 7522TIP3    H143981   4.123   6.086  15.748  0.6397  0.5574 -1.1881
 7522TIP3    H243982   4.000   6.174  15.756  0.6515  0.3859  1.4168
 7523TIP3   OH243983   1.608   5.777  14.933  0.2765  0.0699  0.3688
 7523TIP3    H143984   1.516   5.802  14.927  0.5958  0.8152 -2.0033
 7523TIP3    H243985   1.632   5.750  14.844  2.3696 -0.0598  0.9342
 7524TIP3   OH243986   2.207   3.134  13.974 -0.2096  0.1096  0.4325
 7524TIP3    H143987   2.301   3.144  13.983 -0.1679 -1.7027  2.2287
 7524TIP3    H243988   2.196   3.073  13.901  0.0067 -0.1048  0.5830
 7525TIP3   OH243989   4.528   3.838  14.967 -0.8981  0.0687  0.0736
 7525TIP3    H143990   4.470   3.842  15.043 -0.2401 -1.3231  0.6664
 7525TIP3    H243991   4.579   3.758  14.980  1.2578  1.3424 -0.3755
 7526TIP3   OH243992   1.499   4.017  13.562 -0.1988  0.3611  0.1060
 7526TIP3    H143993   1.471   3.930  13.531  1.2023 -0.3472  0.7819
 7526TIP3    H243994   1.421   4.055  13.601 -1.1363 -0.1004 -1.2741
 7527TIP3   OH243995   3.289   3.051  12.450  0.1652 -0.5332  0.3507
 7527TIP3    H143996   3.228   3.111  12.409  0.8835 -1.1808 -1.6938
 7527TIP3    H243997   3.313   2.989  12.381  2.0863 -1.0908  1.4793
 7528TIP3   OH243998   1.539   3.864  15.235 -0.4568  0.6802 -0.7303
 7528TIP3    H143999   1.554   3.778  15.275 -0.6054  1.3016  0.6882
 7528TIP3    H244000   1.622   3.885  15.192 -0.2370  0.0821 -0.6126
 7529TIP3   OH244001   4.044   2.275  12.793 -0.0439 -0.0925 -0.0868
 7529TIP3    H144002   4.030   2.232  12.877 -1.0591 -1.3839 -0.8851
 7529TIP3    H244003   3.998   2.358  12.800 -0.5983 -0.4430  0.4459
 7530TIP3   OH244004   0.913   2.532  14.961 -0.2246  0.2779 -0.0162
 7530TIP3    H144005   0.946   2.511  14.874  0.4023 -0.1063  0.3088
 7530TIP3    H244006   0.951   2.465  15.018 -1.9043 -0.4193  0.3095
 7531TIP3   OH244007   0.462   5.043  13.983 -0.3265  0.1904  0.5983
 7531TIP3    H144008   0.456   4.967  14.040  0.4444 -1.7135 -1.7547
 7531TIP3    H244009   0.372   5.075  13.975 -1.0375 -1.9957 -0.3427
 7532TIP3   OH244010   2.197   4.463  14.840 -0.4215 -0.1739  0.0101
 7532TIP3    H144011   2.242   4.486  14.759  2.1168 -0.1313  1.3912
 7532TIP3    H244012   2.175   4.547  14.880  0.0147 -0.1851  0.2746
 7533TIP3   OH244013   0.763   2.710  12.914 -0.3029  0.0087  0.0429
 7533TIP3    H144014   0.841   2.708  12.859 -0.6768  0.4061 -0.5065
 7533TIP3    H244015   0.749   2.803  12.932 -0.7195 -0.0516  0.0340
 7534TIP3   OH244016   3.105   0.615  15.805 -0.4588  0.1553 -0.0034
 7534TIP3    H144017   3.164   0.679  15.846 -0.8337 -0.1461  1.0400
 7534TIP3    H244018   3.091   0.648  15.717 -1.6516  2.2307  0.9119
 7535TIP3   OH244019   1.389   1.544  13.563  0.1166 -0.3055 -0.2210
 7535TIP3    H144020   1.300   1.546  13.530  0.2270  0.9088 -0.4864
 7535TIP3    H244021   1.440   1.592  13.497  0.8776 -0.5787  0.1596
 7536TIP3   OH244022   3.397   4.682  13.855  0.1600  0.5848  0.1124
 7536TIP3    H144023   3.491   4.670  13.837  0.4347  0.5325  1.5124
 7536TIP3    H244024   3.360   4.708  13.771  1.4753  0.8104 -0.4153
 7537TIP3   OH244025   3.149   2.443  15.200  0.9327  0.3892  0.0063
 7537TIP3    H144026   3.230   2.480  15.166  0.4668  0.0936 -1.4953
 7537TIP3    H244027   3.080   2.501  15.167  0.5831  1.1364  1.9883
 7538TIP3   OH244028   3.002   1.514  14.687 -0.5363 -0.0125  1.1511
 7538TIP3    H144029   3.074   1.576  14.699 -1.9460  1.5035  1.8261
 7538TIP3    H244030   2.995   1.470  14.772  0.3390 -0.9971  0.7296
 7539TIP3   OH244031   4.955   4.007  14.922 -0.3584 -0.4690  0.4584
 7539TIP3    H144032   4.926   4.096  14.941  1.5594  0.8349 -2.3528
 7539TIP3    H244033   4.976   3.970  15.008  0.1541  2.2704  1.5716
 7540TIP3   OH244034   0.877   6.755  14.758  0.0775  0.6406 -0.1142
 7540TIP3    H144035   0.844   6.829  14.708  0.0230 -0.7510 -2.1701
 7540TIP3    H244036   0.924   6.795  14.832 -0.8474  2.6841 -0.6138
 7541TIP3   OH244037   3.232   1.333  15.031 -0.2231 -0.3470 -0.3489
 7541TIP3    H144038   3.321   1.316  15.063  0.0544 -0.4664 -1.1907
 7541TIP3    H244039   3.233   1.306  14.940 -1.2505 -0.7589 -0.2465
 7542TIP3   OH244040   4.623   2.624  13.193  0.3543 -0.1782 -0.3842
 7542TIP3    H144041   4.583   2.662  13.115 -0.1841  2.4890  1.1133
 7542TIP3    H244042   4.717   2.636  13.181  0.1602  2.2308  0.3208
 7543TIP3   OH244043   7.171   1.760  14.625  0.2772  0.4342  0.3184
 7543TIP3    H144044   7.108   1.794  14.561  0.4392  0.4565  0.1667
 7543TIP3    H244045   7.254   1.759  14.577  0.5793  1.3089  0.8167
 7544TIP3   OH244046   3.055   5.129  12.008  0.0487  0.5216  0.2191
 7544TIP3    H144047   3.100   5.049  11.982  0.5765  1.0940 -0.6867
 7544TIP3    H244048   2.972   5.126  11.960  1.4948  2.1189 -2.5339
 7545TIP3   OH244049   3.627   1.982  14.611 -0.7165  0.3993 -0.2173
 7545TIP3    H144050   3.641   2.042  14.684 -0.3776 -0.6358  0.5842
 7545TIP3    H244051   3.561   1.920  14.642 -0.2977 -0.2795 -0.6337
 7546TIP3   OH244052   3.838   0.094  15.557  0.0083  0.0890  0.5185
 7546TIP3    H144053   3.848   0.085  15.462  0.0957 -0.3095  0.5608
 7546TIP3    H244054   3.926   0.114  15.588  0.1773 -0.7909  0.6201
 7547TIP3   OH244055   3.473   3.240  13.794  0.2709 -0.1830 -0.6275
 7547TIP3    H144056   3.493   3.326  13.831  1.2276  0.9541 -3.6473
 7547TIP3    H244057   3.378   3.233  13.798  0.1652  1.1544 -0.6296
 7548TIP3   OH244058   1.519   4.410  11.819  0.3253  0.0937 -0.1476
 7548TIP3    H144059   1.455   4.448  11.759 -0.7744 -0.6925  0.5004
 7548TIP3    H244060   1.584   4.369  11.762 -0.2513  0.0868 -0.8077
 7549TIP3   OH244061   6.790   4.434  15.418 -0.0371  0.3312 -0.2213
 7549TIP3    H144062   6.797   4.488  15.339 -0.5175  1.9208  0.7916
 7549TIP3    H244063   6.814   4.493  15.489  0.3922 -1.0898  0.8219
 7550TIP3   OH244064   2.746   1.567   0.162  0.0186  0.2132 -0.4962
 7550TIP3    H144065   2.651   1.556   0.157  0.1762 -1.9898  0.7116
 7550TIP3    H244066   2.767   1.548   0.253  1.7220 -0.0211 -0.9307
 7551TIP3   OH244067   6.674   2.159   0.094  0.1898  0.1011 -0.1679
 7551TIP3    H144068   6.649   2.186   0.006  1.5823 -0.7836 -0.8438
 7551TIP3    H244069   6.590   2.154   0.141 -0.5372  0.8532 -1.3432
 7552TIP3   OH244070   2.574   3.897  15.666 -0.1512 -0.5626 -0.0060
 7552TIP3    H144071   2.603   3.846  15.590 -0.0627  1.2621 -1.2375
 7552TIP3    H244072   2.511   3.959  15.630 -0.1583  0.2878  1.4423
 7553TIP3   OH244073   3.713   4.378  12.625 -0.3807 -0.2973 -0.8154
 7553TIP3    H144074   3.734   4.392  12.533  1.0332 -0.1703 -0.4860
 7553TIP3    H244075   3.740   4.288  12.643 -0.5442 -0.2871 -0.5060
 7554TIP3   OH244076   1.875   4.672   2.446  0.2936 -0.0118  0.0613
 7554TIP3    H144077   1.899   4.602   2.386 -0.0458 -0.2644  0.2216
 7554TIP3    H244078   1.941   4.667   2.516  0.8396  0.4454 -0.4161
 7555TIP3   OH244079   2.460   4.255  14.790  0.0262  1.1125  0.6154
 7555TIP3    H144080   2.501   4.175  14.758 -1.2087  0.3422  0.9493
 7555TIP3    H244081   2.410   4.289  14.716  0.9925  1.8913  0.3020
 7556TIP3   OH244082   1.486   3.235  15.239  0.2563  0.1686  0.6112
 7556TIP3    H144083   1.484   3.328  15.217  0.6881  0.1317  0.4147
 7556TIP3    H244084   1.410   3.222  15.295 -0.0081  0.5679  0.3444
 7557TIP3   OH244085   4.471   3.270  12.000  0.2039 -0.2817 -0.5106
 7557TIP3    H144086   4.445   3.179  12.010 -0.2315  0.0565  1.5790
 7557TIP3    H244087   4.562   3.265  11.968  0.4228 -1.4334  0.2634
 7558TIP3   OH244088   4.116   3.307  15.628  0.4838 -0.3527  0.7726
 7558TIP3    H144089   4.023   3.326  15.633  1.0230  2.1883  2.1929
 7558TIP3    H244090   4.126   3.254  15.549 -2.0373  0.1055  0.1202
 7559TIP3   OH244091   5.700   2.186   0.636  0.6019 -0.0170 -0.7680
 7559TIP3    H144092   5.634   2.184   0.705  1.4894 -0.9842  0.0808
 7559TIP3    H244093   5.668   2.124   0.571  0.4292 -0.1321 -0.5741
 7560TIP3   OH244094   3.188   2.761  13.531  0.5949  0.1271 -0.3847
 7560TIP3    H144095   3.272   2.800  13.553  0.5236 -0.6867  1.4104
 7560TIP3    H244096   3.210   2.685  13.478  1.1203 -1.1810  1.6696
 7561TIP3   OH244097   2.826   4.832  15.148  0.5604  0.0624 -0.4590
 7561TIP3    H144098   2.815   4.754  15.202 -0.3980 -0.1497 -0.9525
 7561TIP3    H244099   2.760   4.824  15.079  0.9877  0.9096 -0.9844
 7562TIP3   OH244100   1.704   0.878  11.719 -0.8966 -0.3706 -0.3254
 7562TIP3    H144101   1.682   0.932  11.795  1.7083 -0.7752  0.7921
 7562TIP3    H244102   1.669   0.926  11.644 -0.4385  1.8461  0.8270
 7563TIP3   OH244103   4.125   2.668   1.755  0.0797 -0.2333  0.3284
 7563TIP3    H144104   4.059   2.716   1.705  1.1890  0.9369 -0.0341
 7563TIP3    H244105   4.144   2.725   1.829  0.7057 -0.5490  0.4085
 7564TIP3   OH244106   2.293   0.738  12.824  0.2239 -0.0495 -0.3033
 7564TIP3    H144107   2.202   0.763  12.813  0.5838  1.0670 -0.8659
 7564TIP3    H244108   2.307   0.738  12.919 -0.3502 -0.1742 -0.2195
 7565TIP3   OH244109   2.607   3.000  14.271  0.4664  0.2468  0.0091
 7565TIP3    H144110   2.551   2.936  14.314 -0.7254  0.5938 -0.9969
 7565TIP3    H244111   2.598   2.982  14.177  0.7232  1.3825 -0.2507
 7566TIP3   OH244112   2.608   3.110  15.522 -0.2785 -0.8596 -0.0394
 7566TIP3    H144113   2.682   3.104  15.583  0.6782 -0.3347 -1.1208
 7566TIP3    H244114   2.598   3.204  15.505 -1.0663 -0.9430 -0.0594
 7567TIP3   OH244115   2.514   1.435  13.712 -0.0000  0.3492 -0.2010
 7567TIP3    H144116   2.558   1.484  13.642 -1.5980 -0.0886 -1.5559
 7567TIP3    H244117   2.513   1.495  13.786  1.1862  1.0605 -0.7475
 7568TIP3   OH244118   0.440   4.595   0.932 -0.2669  0.5614 -0.2970
 7568TIP3    H144119   0.522   4.644   0.929  1.7355 -2.4165  2.2018
 7568TIP3    H244120   0.394   4.628   1.009  0.3576 -0.3390  0.4758
 7569TIP3   OH244121   1.185   2.650  14.624 -0.1008  0.3264  0.2259
 7569TIP3    H144122   1.132   2.686  14.695 -1.6623  0.5828 -1.0303
 7569TIP3    H244123   1.127   2.587  14.581  1.0034 -0.2100 -0.5022
 7570TIP3   OH244124   2.279   4.433  15.627  0.1169 -0.2905  0.0758
 7570TIP3    H144125   2.225   4.361  15.595  0.6157 -0.5457 -0.1859
 7570TIP3    H244126   2.222   4.510  15.620 -0.6334 -0.7447  0.9350
 7571TIP3   OH244127   4.160   2.467  13.030 -0.2903  0.4083  0.3753
 7571TIP3    H144128   4.239   2.494  12.983  0.6588  0.2177  1.8503
 7571TIP3    H244129   4.089   2.510  12.983  0.6793  0.6305 -0.9369
 7572TIP3   OH244130   7.131   1.628  15.178  0.2233 -0.3868  0.0225
 7572TIP3    H144131   7.148   1.571  15.102  0.7390 -1.9638  1.2991
 7572TIP3    H244132   7.036   1.623  15.191  0.1268 -0.0712 -0.5502
 7573TIP3   OH244133   3.602   3.852  14.381 -0.4818  0.0215  0.1678
 7573TIP3    H144134   3.634   3.931  14.338  2.1333  0.6868  3.1111
 7573TIP3    H244135   3.525   3.881  14.431 -0.3941  0.3711  0.0989
 7574TIP3   OH244136   2.388   1.741   0.244 -0.2317 -0.1716 -0.6114
 7574TIP3    H144137   2.412   1.676   0.177  1.5903 -1.1975  0.9956
 7574TIP3    H244138   2.409   1.698   0.327 -0.3314  1.9596  0.5391
 7575TIP3   OH244139   7.114   3.406   1.157 -0.3192 -0.6054  0.0291
 7575TIP3    H144140   7.042   3.449   1.203 -0.0988 -1.2663  1.0084
 7575TIP3    H244141   7.117   3.449   1.071 -1.4550 -0.1303  0.2187
 7576TIP3   OH244142   6.716   3.564  13.985  0.1614 -0.1232 -0.4935
 7576TIP3    H144143   6.785   3.595  14.044  1.3048 -0.4822 -1.6131
 7576TIP3    H244144   6.763   3.514  13.918 -0.9571  1.3818 -2.4468
 7577TIP3   OH244145   2.934   2.087  15.993 -0.0584 -0.0563 -0.3561
 7577TIP3    H144146   2.903   2.051  16.076  0.2243 -0.9849 -0.6504
 7577TIP3    H244147   2.981   2.166  16.019  1.1731 -1.0450  0.5067
 7578TIP3   OH244148   7.214   3.436  14.886 -0.2462 -0.2969  0.5532
 7578TIP3    H144149   7.276   3.366  14.869 -0.2666  0.4725 -3.2589
 7578TIP3    H244150   7.266   3.505  14.927  1.2293 -0.1686 -1.4131
 7579TIP3   OH244151   3.698   4.652  14.540 -0.2052 -0.7185  0.2817
 7579TIP3    H144152   3.705   4.741  14.507  0.0855 -1.4403 -1.6618
 7579TIP3    H244153   3.617   4.618  14.501 -0.3202 -1.3112  1.0221
 7580TIP3   OH244154   1.602   4.864  14.246 -0.2960 -0.2700  0.7665
 7580TIP3    H144155   1.511   4.844  14.264  0.0998 -2.2063  0.7543
 7580TIP3    H244156   1.642   4.779  14.227  1.6619  0.4551  1.4677
 7581TIP3   OH244157   7.256   4.304   0.271 -0.1662 -0.3832 -0.1888
 7581TIP3    H144158   7.166   4.336   0.263 -0.5791 -0.8810  2.1059
 7581TIP3    H244159   7.252   4.214   0.240 -0.3254 -0.2245 -0.6378
 7582TIP3   OH244160   5.222   5.252  13.621 -0.6003  0.3372 -0.2920
 7582TIP3    H144161   5.196   5.340  13.648  0.5598  0.6844 -0.2882
 7582TIP3    H244162   5.272   5.265  13.541  1.2824 -0.1294  0.7826
 7583TIP3   OH244163   3.839   1.857  15.315 -0.0927 -0.1697 -0.1161
 7583TIP3    H144164   3.918   1.815  15.349 -1.2525 -0.6040  2.1024
 7583TIP3    H244165   3.798   1.791  15.259  0.1615 -0.6024  0.2070
 7584TIP3   OH244166   3.236   2.786   1.461 -0.1536 -0.6667 -0.1763
 7584TIP3    H144167   3.178   2.808   1.534  0.6756 -0.5783  0.4686
 7584TIP3    H244168   3.237   2.865   1.406  0.2647 -0.2463  0.4259
 7585TIP3   OH244169   4.133   1.226  13.215 -0.2041 -0.4816 -0.1056
 7585TIP3    H144170   4.124   1.303  13.271  0.5570 -1.2581  1.0947
 7585TIP3    H244171   4.046   1.215  13.176 -0.9677 -0.4133  1.5402
 7586TIP3   OH244172   5.730   2.712  13.830 -0.7185  0.7598 -0.2296
 7586TIP3    H144173   5.750   2.759  13.911  1.2076 -0.3353 -0.0395
 7586TIP3    H244174   5.636   2.697  13.834 -0.9129  2.1663  1.0119
 7587TIP3   OH244175   3.063   3.598  14.301  0.4880  0.4843 -0.2148
 7587TIP3    H144176   3.057   3.679  14.353  1.2021  0.2659  0.2162
 7587TIP3    H244177   2.980   3.553  14.317  1.4618 -0.5046  2.2838
 7588TIP3   OH244178   6.889   1.705  15.324 -0.2407 -0.5277 -0.1145
 7588TIP3    H144179   6.821   1.772  15.328 -0.7968 -1.1769  1.3611
 7588TIP3    H244180   6.964   1.743  15.370 -0.5080 -0.8454  0.5948
 7589TIP3   OH244181   3.270   3.420  15.798 -0.4224  0.4184  0.5693
 7589TIP3    H144182   3.250   3.508  15.832  1.4478  0.8539  0.6175
 7589TIP3    H244183   3.362   3.425  15.774  0.1538 -2.0448  2.1443
 7590TIP3   OH244184   3.623   2.339  11.315 -0.1870  0.1046  0.2954
 7590TIP3    H144185   3.596   2.404  11.250  1.5616  0.6259  0.0784
 7590TIP3    H244186   3.636   2.259  11.264 -2.3126 -0.4515  0.5584
 7591TIP3   OH244187   3.385   2.822  11.387  0.1518  0.1265  0.0381
 7591TIP3    H144188   3.405   2.911  11.358  0.6615 -0.3178 -0.9801
 7591TIP3    H244189   3.298   2.829  11.428 -0.0141  1.0032 -0.4533
 7592TIP3   OH244190   2.395   2.562  14.172 -0.1852  0.6603 -0.0977
 7592TIP3    H144191   2.357   2.488  14.219 -1.0583  1.0306 -0.2011
 7592TIP3    H244192   2.481   2.531  14.143  0.7321  0.6951  2.4397
 7593TIP3   OH244193   2.235   1.026  14.792  0.9076 -0.7347  0.0845
 7593TIP3    H144194   2.164   0.962  14.787  0.3023  0.0149 -1.2127
 7593TIP3    H244195   2.308   0.984  14.747  0.7115 -0.7702 -0.2019
 7594TIP3   OH244196   3.136   4.124   2.466 -0.4298 -0.0431 -0.3607
 7594TIP3    H144197   3.161   4.048   2.413 -0.7186 -0.6732  0.3996
 7594TIP3    H244198   3.099   4.186   2.403 -0.2790 -0.5751 -0.9736
 7595TIP3   OH244199   2.513   1.656  13.870 -0.2333 -0.3025 -0.2449
 7595TIP3    H144200   2.550   1.677  13.956  1.4995 -0.3320 -0.9691
 7595TIP3    H244201   2.450   1.726  13.854 -1.0275 -0.6413  1.3189
 7596TIP3   OH244202   6.681   3.228  15.820  0.3303  0.6184  0.3689
 7596TIP3    H144203   6.697   3.212  15.727 -0.3241 -0.0571  0.3677
 7596TIP3    H244204   6.725   3.155  15.865  0.7867  1.0320  0.6059
 7597TIP3   OH244205   1.658   0.792  13.760  0.2498 -0.2505  0.3938
 7597TIP3    H144206   1.636   0.885  13.759 -0.2847 -0.3742  0.3704
 7597TIP3    H244207   1.690   0.776  13.849 -0.2015 -0.1698  0.5681
 7598TIP3   OH244208   2.693   3.319  14.632  0.3143 -0.0310 -0.1319
 7598TIP3    H144209   2.766   3.367  14.594  0.8144  0.6552  1.6215
 7598TIP3    H244210   2.621   3.331  14.571  0.8750  1.6827 -0.4683
 7599TIP3   OH244211   6.962   4.344   0.302  0.0566  0.4057  0.1870
 7599TIP3    H144212   6.906   4.272   0.329 -0.2126  0.3759 -0.4562
 7599TIP3    H244213   7.005   4.373   0.383  0.6233 -0.8620  0.3403
 7600TIP3   OH244214   3.215   3.683  15.889  0.1135 -0.2176 -0.1970
 7600TIP3    H144215   3.286   3.719  15.941 -1.2726  2.7046 -0.2649
 7600TIP3    H244216   3.144   3.747  15.895 -2.0973 -2.4345 -1.1541
 7601TIP3   OH244217   4.221   2.985  12.204 -0.0054  0.3054  0.2186
 7601TIP3    H144218   4.303   3.015  12.244  0.7852 -0.1131 -1.0449
 7601TIP3    H244219   4.165   3.063  12.203  1.5208  1.4269 -1.7441
 7602TIP3   OH244220   0.623   2.531  13.191 -0.4655  0.5544  0.1336
 7602TIP3    H144221   0.550   2.486  13.233 -1.1308  2.0529  0.5946
 7602TIP3    H244222   0.586   2.572  13.113  0.0996  0.5029 -0.1715
 7603TIP3   OH244223   1.868   4.731  14.996 -0.9521 -0.0263  0.0989
 7603TIP3    H144224   1.930   4.804  14.996 -0.3033 -0.5791 -0.5846
 7603TIP3    H244225   1.916   4.658  14.959 -1.9374 -0.5198 -0.2340
 7604TIP3   OH244226   2.812   1.737  14.617  0.1065 -0.0937 -0.0872
 7604TIP3    H144227   2.832   1.647  14.641  0.7422 -0.3265 -1.4164
 7604TIP3    H244228   2.717   1.737  14.604  0.2721 -0.9211 -1.4235
 7605TIP3   OH244229   2.450   0.632  13.068  0.3109 -0.2192 -0.1296
 7605TIP3    H144230   2.452   0.555  13.011  1.7966  0.5748 -1.1914
 7605TIP3    H244231   2.540   0.643  13.097  0.3298  1.7100 -0.8150
 7606TIP3   OH244232   2.257   3.852  15.059 -0.0261  0.1249 -0.3471
 7606TIP3    H144233   2.297   3.897  14.984 -0.9081  2.2132  0.3960
 7606TIP3    H244234   2.238   3.922  15.122 -0.8780 -1.3792  1.1222
 7607TIP3   OH244235   4.670   3.667  15.286 -0.9133  0.1232  0.5302
 7607TIP3    H144236   4.722   3.640  15.362 -1.7596  0.9376  1.4076
 7607TIP3    H244237   4.579   3.664  15.316 -1.1666  1.9369  0.0488
 7608TIP3   OH244238   1.310   2.193  15.621 -0.5088  0.3963 -0.0120
 7608TIP3    H144239   1.308   2.282  15.587 -0.0782  0.2067 -0.5423
 7608TIP3    H244240   1.245   2.146  15.569  0.9349 -0.1614 -1.3512
 7609TIP3   OH244241   0.497   2.580  13.930 -0.2441 -0.8651  0.2673
 7609TIP3    H144242   0.498   2.675  13.943 -0.9275 -0.8168  0.0140
 7609TIP3    H244243   0.501   2.543  14.018  0.1797 -0.6058  0.3602
 7610TIP3   OH244244   7.199   2.650  15.621 -0.2264  0.1568  0.1157
 7610TIP3    H144245   7.185   2.576  15.679  1.6948 -0.7058 -0.4777
 7610TIP3    H244246   7.246   2.613  15.546 -0.2720  1.7519 -0.7267
 7611TIP3   OH244247   1.621   0.813  14.289  0.0615 -0.0902  0.1408
 7611TIP3    H144248   1.539   0.800  14.241  1.5806 -2.6313 -1.9011
 7611TIP3    H244249   1.609   0.897  14.334 -3.4071 -0.1116 -0.5745
 7612TIP3   OH244250   2.988   3.902  14.273  0.8483 -0.3551  1.1330
 7612TIP3    H144251   2.982   3.996  14.252 -0.0873 -0.2055  2.0476
 7612TIP3    H244252   3.036   3.899  14.355  1.7012 -0.7435  0.6238
 7613TIP3   OH244253   2.152   3.577  12.882 -0.0349  0.3399  0.4037
 7613TIP3    H144254   2.107   3.551  12.962  2.3983 -0.4989  1.5675
 7613TIP3    H244255   2.214   3.506  12.865 -0.7324  0.3429 -2.4262
 7614TIP3   OH244256   2.761   3.356   1.511 -0.3962 -0.4426  0.1847
 7614TIP3    H144257   2.804   3.405   1.442  0.9675 -1.5304  0.2392
 7614TIP3    H244258   2.682   3.406   1.531  0.6353  1.3764 -0.1943
 7615TIP3   OH244259   3.383   3.112  13.241 -0.0017 -0.3868  0.1277
 7615TIP3    H144260   3.348   3.142  13.325  0.2127 -2.3009  0.9149
 7615TIP3    H244261   3.372   3.188  13.182  1.5041  1.6117  2.3335
 7616TIP3   OH244262   2.218   2.399  14.995 -0.0153  0.2578  0.2769
 7616TIP3    H144263   2.261   2.371  14.913  0.6541  0.4386  0.5590
 7616TIP3    H244264   2.177   2.483  14.973 -0.7912 -0.2420 -0.1763
 7617TIP3   OH244265   2.075   3.050  14.810 -0.4320  0.1292  0.3205
 7617TIP3    H144266   2.037   3.017  14.728 -1.9319  1.0881  0.6050
 7617TIP3    H244267   2.158   3.091  14.783  1.0336 -2.9969 -0.1553
 7618TIP3   OH244268   4.318   3.905  15.623  0.5066 -0.6856  0.1160
 7618TIP3    H144269   4.368   3.957  15.560 -0.2273  0.0170  0.1139
 7618TIP3    H244270   4.342   3.941  15.709  1.5050 -1.6404  0.2498
 7619TIP3   OH244271   3.463   4.834  14.487 -0.7448  0.3108  0.0696
 7619TIP3    H144272   3.549   4.874  14.478 -0.7289  0.2293 -0.1357
 7619TIP3    H244273   3.455   4.776  14.412  0.0922 -1.6768  1.4881
 7620TIP3   OH244274   1.848   3.574  14.217  0.4758 -0.1443 -0.4358
 7620TIP3    H144275   1.880   3.662  14.237  0.6455 -0.3448  0.1885
 7620TIP3    H244276   1.781   3.587  14.151 -0.6777  0.6226  0.8673
 7621TIP3   OH244277   3.710   4.341  12.354  0.6693  0.0904  0.0393
 7621TIP3    H144278   3.706   4.247  12.336 -0.0868  0.0599  0.3201
 7621TIP3    H244279   3.659   4.381  12.284  0.1867  0.2113  0.4584
 7622TIP3   OH244280   2.079   1.212   0.982 -0.1275  0.3181  0.1606
 7622TIP3    H144281   2.048   1.122   0.978  0.5493  0.0819  0.1945
 7622TIP3    H244282   2.085   1.231   1.076  1.1709 -0.1102  0.1786
 7623TIP3   OH244283   4.466   0.585  14.918 -0.0882  0.9058  0.0586
 7623TIP3    H144284   4.479   0.671  14.957 -2.1769  1.3495 -0.1762
 7623TIP3    H244285   4.525   0.528  14.967 -1.0557  1.8636  2.4423
 7624TIP3   OH244286   3.926   1.003  15.670 -0.1400 -0.2455 -0.2011
 7624TIP3    H144287   3.839   0.973  15.642 -0.8582  0.5105  1.1538
 7624TIP3    H244288   3.915   1.096  15.687  1.1127 -0.0116 -0.6257
 7625TIP3   OH244289   2.285   3.428  13.438  0.1835 -0.0555  0.3855
 7625TIP3    H144290   2.330   3.398  13.517  1.3571 -0.0250 -0.2743
 7625TIP3    H244291   2.352   3.473  13.387 -0.0273 -1.9356 -1.6344
 7626TIP3   OH244292   2.767   1.904  13.199  0.4415 -0.5650 -0.1095
 7626TIP3    H144293   2.838   1.920  13.137 -0.8097  1.7305 -0.9824
 7626TIP3    H244294   2.810   1.900  13.285  2.0692 -2.9177 -0.9719
 7627TIP3   OH244295   0.891   2.082  15.496 -0.4453 -0.5724 -0.1776
 7627TIP3    H144296   0.877   2.172  15.465  1.2685 -0.1323  0.2283
 7627TIP3    H244297   0.913   2.093  15.589 -2.2301 -1.6005  0.3919
 7628TIP3   OH244298   4.459   1.868  13.645 -0.0840  0.0023 -0.3678
 7628TIP3    H144299   4.406   1.856  13.566  0.4801 -1.0611 -0.6003
 7628TIP3    H244300   4.509   1.787  13.653  0.7369  0.5721  0.4333
 7629TIP3   OH244301   2.559   2.483  13.421 -1.3387  0.4207 -0.3636
 7629TIP3    H144302   2.478   2.442  13.390 -2.4231  1.9390  0.3874
 7629TIP3    H244303   2.532   2.537  13.496  0.3246  1.1258 -0.2338
 7630TIP3   OH244304   3.599   4.571  12.812 -0.6722  0.1101  0.1865
 7630TIP3    H144305   3.585   4.657  12.772 -0.6623  0.4814  0.9575
 7630TIP3    H244306   3.626   4.514  12.740 -1.2348  0.6204 -0.4240
 7631TIP3   OH244307   4.226   5.637  11.812 -0.4368 -0.1692 -0.3347
 7631TIP3    H144308   4.171   5.567  11.848  0.3639 -1.1365 -0.9476
 7631TIP3    H244309   4.167   5.688  11.757 -1.1835  0.0407  0.6528
 7632TIP3   OH244310   2.788   2.651  12.867 -0.0321 -0.3528 -0.4527
 7632TIP3    H144311   2.754   2.562  12.877 -1.5427  0.3791  1.1884
 7632TIP3    H244312   2.819   2.675  12.954 -0.0024  0.8599 -0.7875
 7633TIP3   OH244313   2.753   2.746  12.594  0.4203 -0.0153 -0.0569
 7633TIP3    H144314   2.753   2.747  12.690 -0.7206 -0.7956 -0.0287
 7633TIP3    H244315   2.719   2.659  12.571 -1.9823  1.1672 -1.1289
 7634TIP3   OH244316   4.319   1.472  13.774  0.3974  0.0494 -0.1168
 7634TIP3    H144317   4.307   1.565  13.791  0.6803  0.0865 -0.1157
 7634TIP3    H244318   4.414   1.458  13.783 -0.0312 -0.9500  3.6763
 7635TIP3   OH244319   0.518   1.258  14.131 -0.5054  0.3611 -0.8215
 7635TIP3    H144320   0.573   1.259  14.053  0.3160  0.4858 -0.2579
 7635TIP3    H244321   0.462   1.335  14.122  1.4569  1.9292 -0.0029
 7636TIP3   OH244322   2.160   2.377  14.600  0.3326  0.6555  0.7466
 7636TIP3    H144323   2.099   2.451  14.605  0.1643  0.4658  1.4775
 7636TIP3    H244324   2.230   2.408  14.542  0.3710  1.4762  1.2224
 7637TIP3   OH244325   0.432   4.282  13.616 -0.0797  0.2470  0.0491
 7637TIP3    H144326   0.426   4.190  13.642 -0.6557  0.5441  1.0252
 7637TIP3    H244327   0.525   4.304  13.623 -0.0589 -0.0293  0.6518
 7638TIP3   OH244328   3.627   2.109   0.514  0.1973  0.0052  0.0402
 7638TIP3    H144329   3.605   2.173   0.446 -1.3698  1.8704  2.2105
 7638TIP3    H244330   3.716   2.132   0.540 -0.9287  2.4407  1.9369
 7639TIP3   OH244331   2.352   3.279  14.395  0.2860 -0.4640 -0.3976
 7639TIP3    H144332   2.374   3.188  14.413  1.2522 -0.1209  0.2414
 7639TIP3    H244333   2.284   3.300  14.459  0.4225 -0.5949 -0.2075
 7640TIP3   OH244334   5.390   2.976  13.950  1.0415  0.5097  0.1976
 7640TIP3    H144335   5.467   3.016  13.908 -0.0105  1.2488 -1.0835
 7640TIP3    H244336   5.316   3.028  13.918  0.0786  0.3128  2.0545
 7641TIP3   OH244337   5.024   2.129  13.728  0.1114 -0.7351 -0.5641
 7641TIP3    H144338   4.932   2.143  13.706  0.2749 -0.4255 -1.0424
 7641TIP3    H244339   5.029   2.036  13.750 -1.2197  0.0539  3.7085
 7642TIP3   OH244340   4.116   1.135   0.109  0.1522  0.2637  0.2604
 7642TIP3    H144341   4.117   1.074   0.035 -0.4284 -1.3018  1.5210
 7642TIP3    H244342   4.061   1.208   0.079  0.8217  0.1802 -1.2474
 7643TIP3   OH244343   5.380   2.162  12.636 -0.7072  0.8322 -0.3896
 7643TIP3    H144344   5.288   2.146  12.655 -0.5835 -0.7959 -1.0762
 7643TIP3    H244345   5.389   2.257  12.636 -1.7126  0.9825  2.8167
 7644TIP3   OH244346   4.602   2.295   0.571  0.9009 -0.2084 -0.0562
 7644TIP3    H144347   4.513   2.265   0.550  0.3029  1.1294  0.4624
 7644TIP3    H244348   4.603   2.298   0.667  2.0777 -1.8290  0.0064
 7645TIP3   OH244349   2.037   0.822  12.799  0.0687  0.5483  0.0931
 7645TIP3    H144350   2.016   0.867  12.717  1.9760  1.3995  0.0504
 7645TIP3    H244351   2.018   0.887  12.867  1.1520  0.8126  0.1446
 7646TIP3   OH244352   6.477   3.372   0.690 -0.0258  0.1653  0.0445
 7646TIP3    H144353   6.454   3.361   0.597  1.7099  0.2877 -0.4278
 7646TIP3    H244354   6.473   3.467   0.704 -0.7554  0.1074  0.2183
 7647TIP3   OH244355   2.974   0.209  14.823 -0.0754 -0.3823  0.0516
 7647TIP3    H144356   2.905   0.231  14.886  0.0793  1.3199 -0.3621
 7647TIP3    H244357   2.960   0.270  14.750  1.3509 -0.6003 -0.4104
 7648TIP3   OH244358   4.224   4.578  15.627  0.5167  0.0551  0.3876
 7648TIP3    H144359   4.230   4.665  15.668 -0.7473  0.8238 -0.9910
 7648TIP3    H244360   4.135   4.549  15.646  0.9314 -0.9458  0.8248
 7649TIP3   OH244361   4.327   1.430  14.639  0.3371  0.1155  0.3253
 7649TIP3    H144362   4.271   1.490  14.688  1.8870  0.9555  1.0584
 7649TIP3    H244363   4.287   1.427  14.552  0.2548  2.2131  0.2699
 7650TIP3   OH244364   4.094   3.431  14.775 -0.2405  0.2339  0.8275
 7650TIP3    H144365   4.091   3.347  14.820  0.2516 -0.3403 -0.1907
 7650TIP3    H244366   4.026   3.484  14.818 -0.6781 -0.7354  1.3495
 7651TIP3   OH244367   3.285   2.816  14.034 -0.7889  0.0410 -0.8999
 7651TIP3    H144368   3.218   2.872  13.995  0.7076  2.5133  0.0003
 7651TIP3    H244369   3.367   2.865  14.024 -0.0149 -0.2793  3.2429
 7652TIP3   OH244370   3.329   1.505  13.099 -0.2976 -0.3077  0.1771
 7652TIP3    H144371   3.249   1.503  13.046 -1.2916  0.5564  1.6014
 7652TIP3    H244372   3.363   1.594  13.088 -0.0028 -0.4098  0.2571
 7653TIP3   OH244373   3.778   7.057  15.178  0.9157  0.1378  0.1762
 7653TIP3    H144374   3.688   7.030  15.197  1.3642 -1.8479 -0.4011
 7653TIP3    H244375   3.826   7.040  15.259  1.0745 -0.2084  0.0099
 7654TIP3   OH244376   3.685   0.007  15.837 -0.2586  0.1240  0.3659
 7654TIP3    H144377   3.609   0.041  15.790 -0.6741  0.4671  1.2772
 7654TIP3    H244378   3.649  -0.027  15.919  0.1693 -2.2835 -0.3957
 7655TIP3   OH244379   4.788   2.995   1.889 -0.3204 -0.1209 -0.0075
 7655TIP3    H144380   4.858   3.048   1.927 -0.2076  0.1589 -0.5993
 7655TIP3    H244381   4.817   2.904   1.903  0.6476 -0.0042 -1.1116
 7656TIP3   OH244382   3.793   2.607   0.264 -0.0272 -0.1103  0.0839
 7656TIP3    H144383   3.780   2.610   0.358 -0.7805 -1.3609  0.0312
 7656TIP3    H244384   3.730   2.541   0.233  1.1846 -0.7443 -1.0996
 7657TIP3   OH244385   3.198   1.516  15.223  0.0123 -0.0463  0.0647
 7657TIP3    H144386   3.238   1.450  15.279 -0.7595  0.2850  1.0230
 7657TIP3    H244387   3.190   1.474  15.138  0.7684 -0.7191  0.3209
 7658TIP3   OH244388   5.628   3.211  13.503  0.3196 -0.0902  0.6746
 7658TIP3    H144389   5.610   3.305  13.505 -0.2754 -0.1700 -0.5660
 7658TIP3    H244390   5.637   3.186  13.595  2.9420  1.6264  0.9273
 7659TIP3   OH244391   4.817   1.584  14.826  0.5166 -0.3435 -0.2638
 7659TIP3    H144392   4.778   1.608  14.910  0.0125 -1.7511 -0.0841
 7659TIP3    H244393   4.749   1.533  14.782  0.8040  0.3252 -1.5019
 7660TIP3   OH244394   3.565   0.269  14.129 -0.7050  0.3377  0.1016
 7660TIP3    H144395   3.542   0.355  14.094 -0.7012  0.9615  1.5758
 7660TIP3    H244396   3.566   0.282  14.224 -1.0018 -1.3685  0.3466
 7661TIP3   OH244397   2.880   1.051   0.315 -0.1923  0.2892  0.1026
 7661TIP3    H144398   2.796   1.095   0.323  0.9582  2.0990  2.9793
 7661TIP3    H244399   2.871   0.973   0.370 -0.5304 -0.4501 -0.9746
 7662TIP3   OH244400   4.505   2.064  13.250 -0.0255 -0.2017  0.5604
 7662TIP3    H144401   4.560   2.140  13.231 -1.0496  0.0264 -1.6613
 7662TIP3    H244402   4.550   2.018  13.321  2.6051  0.3942 -0.6917
 7663TIP3   OH244403   5.990   3.312  13.073  0.1149 -0.1809 -0.4570
 7663TIP3    H144404   6.063   3.310  13.012 -0.2607 -1.6898 -0.8606
 7663TIP3    H244405   6.023   3.267  13.151 -0.2483 -0.4666 -0.4705
 7664TIP3   OH244406   4.796   3.037  14.376  0.2826 -0.7998  0.7752
 7664TIP3    H144407   4.713   3.023  14.421  0.3733 -0.3293  1.0972
 7664TIP3    H244408   4.858   3.055  14.447  0.0233  1.8935  0.3451
 7665TIP3   OH244409   5.403   2.596  13.470 -0.7780  0.4488  0.8074
 7665TIP3    H144410   5.391   2.514  13.518  2.0785  0.0923  1.0183
 7665TIP3    H244411   5.407   2.570  13.378 -2.9270  0.7390  0.6147
 7666TIP3   OH244412   4.635   4.390  14.842 -0.4073  0.6727  0.9529
 7666TIP3    H144413   4.710   4.337  14.868 -1.0884 -0.2608  1.0262
 7666TIP3    H244414   4.563   4.328  14.833 -1.3200  1.6388  1.4697
 7667TIP3   OH244415   0.640   3.374  14.948 -0.5679  0.8397 -0.3377
 7667TIP3    H144416   0.733   3.381  14.924 -0.8467  2.5379 -0.9496
 7667TIP3    H244417   0.600   3.331  14.873  0.0264 -1.6700  0.7233
 7668TIP3   OH244418   3.905   1.754  14.752 -0.1071  0.2690  0.2043
 7668TIP3    H144419   3.988   1.779  14.712  0.6621 -0.6064  1.1936
 7668TIP3    H244420   3.921   1.665  14.784 -1.7082 -0.2222 -0.3500
 7669TIP3   OH244421   6.489   2.886  13.234  0.3233 -0.1483  0.1619
 7669TIP3    H144422   6.406   2.932  13.223  1.0758  1.2087  0.0756
 7669TIP3    H244423   6.498   2.834  13.154 -0.9020 -1.0640  0.6075
 7670TIP3   OH244424   4.915   4.284  15.002  0.1424  0.5893  0.1353
 7670TIP3    H144425   4.863   4.339  15.060  0.2663  1.0745 -0.2145
 7670TIP3    H244426   4.996   4.268  15.051 -0.1351  0.2272  0.4815
 7671TIP3   OH244427   5.972   3.542  15.832 -0.2165 -0.4296  0.5220
 7671TIP3    H144428   6.047   3.506  15.880  0.3888  0.5700  0.3397
 7671TIP3    H244429   5.952   3.476  15.766  2.4072  0.6047 -1.3889
 7672TIP3   OH244430   7.046   4.061   0.776 -0.3154 -0.1802 -0.2751
 7672TIP3    H144431   7.061   3.982   0.827  0.0552 -0.5711 -0.9928
 7672TIP3    H244432   7.115   4.121   0.804  0.5258 -0.7654 -1.0714
 7673TIP3   OH244433   5.162   1.794  14.195 -0.0122  0.2976 -0.3402
 7673TIP3    H144434   5.216   1.864  14.232  0.2404 -0.1384  0.1090
 7673TIP3    H244435   5.206   1.772  14.112  1.4017 -1.1342  0.7615
 7674TIP3   OH244436   4.972   2.298  14.848  0.0996 -0.0562 -0.1921
 7674TIP3    H144437   4.943   2.364  14.784 -0.5445  0.1648  0.3183
 7674TIP3    H244438   4.976   2.345  14.931  0.6821 -0.4086 -0.0174
 7675TIP3   OH244439   6.469   3.622  13.813  0.4032  0.0930 -0.5926
 7675TIP3    H144440   6.429   3.540  13.786 -0.8963  0.9368 -1.2803
 7675TIP3    H244441   6.544   3.596  13.866 -0.8656 -1.5149  0.4517
 7676TIP3   OH244442   3.529   2.708  15.670  0.0276 -0.1572 -0.2316
 7676TIP3    H144443   3.558   2.761  15.595 -1.2011 -0.0821 -0.6660
 7676TIP3    H244444   3.548   2.618  15.644 -0.1128 -0.1092 -0.5054
 7677TIP3   OH244445   6.223   2.653  13.248  0.1016  0.4565 -0.1375
 7677TIP3    H144446   6.149   2.688  13.198  0.9661  0.9252 -1.1094
 7677TIP3    H244447   6.212   2.688  13.336 -1.7980 -0.8987  0.2040
 7678TIP3   OH244448   5.565   4.061  13.582  0.0421 -0.0808 -0.5079
 7678TIP3    H144449   5.594   4.007  13.509  0.6536  0.2046 -0.4842
 7678TIP3    H244450   5.477   4.088  13.559 -0.8634 -2.3403  0.1757
 7679TIP3   OH244451   4.825   3.336  14.399 -0.4123  0.2724 -0.5784
 7679TIP3    H144452   4.882   3.265  14.427  0.8361  1.0282 -1.1713
 7679TIP3    H244453   4.775   3.300  14.326 -0.4884 -0.3006 -0.2475
 7680TIP3   OH244454   2.799   3.140  13.779 -0.1451 -0.8087  0.1624
 7680TIP3    H144455   2.814   3.055  13.821  0.1275  0.1790  2.1285
 7680TIP3    H244456   2.829   3.128  13.689  1.5430 -2.2886  0.8951
 7681TIP3   OH244457   5.839   3.102  14.398 -0.2622  0.0049  0.3239
 7681TIP3    H144458   5.772   3.071  14.337 -0.9659 -0.1000  1.1457
 7681TIP3    H244459   5.836   3.197  14.390  0.9668 -0.0616 -1.1982
 7682TIP3   OH244460   5.053   2.621  14.090  0.6627 -0.0015  0.6014
 7682TIP3    H144461   5.126   2.672  14.125 -0.2463  1.2389  0.7353
 7682TIP3    H244462   5.036   2.659  14.004 -0.5238  0.4633  1.0221
 7683TIP3   OH244463   4.100   1.318  15.041  0.0753 -0.1166 -0.0394
 7683TIP3    H144464   4.006   1.332  15.033  0.3732  0.6805 -2.5603
 7683TIP3    H244465   4.113   1.291  15.132 -2.6144 -0.5305  0.2517
 7684TIP3   OH244466   5.644   2.074  14.839  0.1732 -0.2338 -0.3070
 7684TIP3    H144467   5.692   1.992  14.832  0.4308  0.1105 -3.3264
 7684TIP3    H244468   5.645   2.110  14.750 -5.3078 -0.0206 -0.4286
 7685TIP3   OH244469   6.170   3.388  14.979 -0.3709 -0.2690  0.1182
 7685TIP3    H144470   6.234   3.409  15.047 -1.1272  2.5380  0.0589
 7685TIP3    H244471   6.215   3.405  14.897 -0.8362  0.6917  0.0513
 7686TIP3   OH244472   0.011   4.778  13.438 -0.0542  0.8010 -0.2718
 7686TIP3    H144473  -0.004   4.695  13.393  1.0111 -0.1838  1.1235
 7686TIP3    H244474  -0.071   4.795  13.485  0.6852 -0.9480  1.7115
 7687TIP3   OH244475   2.709   3.474  14.885 -0.4487 -0.2824 -0.0759
 7687TIP3    H144476   2.753   3.409  14.940 -1.0856 -1.0314 -0.4329
 7687TIP3    H244477   2.668   3.422  14.816 -3.0559  0.2209  1.0210
 7688TIP3   OH244478   4.976   2.614  15.858 -0.0232 -0.2677 -0.4154
 7688TIP3    H144479   5.037   2.541  15.862  0.2002 -0.1358 -1.3443
 7688TIP3    H244480   4.918   2.594  15.784 -3.1951 -1.9864  2.3832
 7689TIP3   OH244481   5.911   0.554  15.758 -0.4831 -0.0649 -0.0794
 7689TIP3    H144482   5.834   0.530  15.810  0.1842 -1.1184  0.4264
 7689TIP3    H244483   5.923   0.647  15.775  0.0299 -0.4997  2.0566
 7690TIP3   OH244484   5.476   2.981  15.519  0.2761 -0.3809 -0.2083
 7690TIP3    H144485   5.432   3.063  15.544  0.3213 -0.4084 -0.0338
 7690TIP3    H244486   5.429   2.913  15.569  0.1930 -0.4694 -0.4075
 7691TIP3   OH244487   0.279   4.233   0.059 -0.1764  0.3670  0.2682
 7691TIP3    H144488   0.254   4.170  -0.009  0.3914  0.8621 -0.4074
 7691TIP3    H244489   0.206   4.296   0.062  0.2149  0.8722 -0.5446
 7692TIP3   OH244490   4.083   3.464  12.759 -0.8834 -0.1439 -0.3346
 7692TIP3    H144491   4.176   3.447  12.772 -1.1843 -2.0759 -0.5627
 7692TIP3    H244492   4.041   3.432  12.839 -1.5005 -0.7301 -0.8872
 7693TIP3   OH244493   4.742   4.108  12.247  0.1757  0.1325 -0.1135
 7693TIP3    H144494   4.695   4.100  12.164  0.8648  1.5677 -0.6593
 7693TIP3    H244495   4.747   4.203  12.263  1.1747 -0.0809  0.9105
 7694TIP3   OH244496   6.660   2.216  15.765 -0.1639 -0.3392  0.1590
 7694TIP3    H144497   6.585   2.227  15.707 -0.0863 -2.8876 -0.5149
 7694TIP3    H244498   6.645   2.277  15.837 -1.5179  1.0936 -1.2997
 7695TIP3   OH244499   2.610   1.498  15.139 -0.8721 -0.4725  1.0085
 7695TIP3    H144500   2.573   1.443  15.207  0.2571 -1.8815  0.5233
 7695TIP3    H244501   2.684   1.542  15.181 -0.2851 -1.2031  0.7392
 7696TIP3   OH244502   2.943   3.132  14.634 -0.1373  0.6317 -0.5029
 7696TIP3    H144503   2.884   3.113  14.707  1.4224 -0.6203  0.4828
 7696TIP3    H244504   2.900   3.094  14.557 -0.1740 -1.1414  0.3669
 7697TIP3   OH244505   5.393   1.855   1.436 -0.1241  0.3340  0.0362
 7697TIP3    H144506   5.399   1.791   1.365 -0.8709  0.1703  0.1159
 7697TIP3    H244507   5.327   1.818   1.495  1.4802 -0.2205  1.5288
 7698TIP3   OH244508   5.576   4.222  15.108 -0.1292 -0.6954 -0.7353
 7698TIP3    H144509   5.576   4.301  15.054 -1.1131 -0.1402  0.0722
 7698TIP3    H244510   5.669   4.203  15.122  0.1047  0.6382 -0.4640
 7699TIP3   OH244511   5.387   2.310  14.155 -0.0946 -0.3341  0.3413
 7699TIP3    H144512   5.417   2.396  14.126 -1.6298  0.0530 -0.1857
 7699TIP3    H244513   5.401   2.252  14.080 -1.2154 -0.0120 -0.1302
 7700TIP3   OH244514   3.533   3.493  15.726  0.7262  0.0413 -0.1721
 7700TIP3    H144515   3.587   3.416  15.708  0.4537 -0.2176  0.1129
 7700TIP3    H244516   3.497   3.518  15.641  2.3117  0.9837 -0.5855
 7701TIP3   OH244517   6.714   5.457  13.737  0.3526  0.2587 -0.5332
 7701TIP3    H144518   6.627   5.418  13.736 -0.1674  1.2675  1.7663
 7701TIP3    H244519   6.773   5.387  13.708 -0.9225 -1.2586  0.4837
 7702TIP3   OH244520   3.824   2.672  14.621  0.0509 -0.2208  0.5115
 7702TIP3    H144521   3.749   2.616  14.641  0.4840 -1.3008 -0.8374
 7702TIP3    H244522   3.812   2.696  14.529  1.5359 -0.6725  0.1940
 7703TIP3   OH244523   5.589   5.688  14.808 -0.0984 -0.3901  0.1169
 7703TIP3    H144524   5.684   5.694  14.815 -0.3151  1.2065  2.1107
 7703TIP3    H244525   5.573   5.610  14.756  2.2196 -2.7368  2.8039
 7704TIP3   OH244526   4.272   1.365   1.562  0.1580 -0.2803  0.2033
 7704TIP3    H144527   4.258   1.286   1.614 -1.4341  0.7532  1.4156
 7704TIP3    H244528   4.367   1.375   1.558  0.3561 -1.7979  0.7455
 7705TIP3   OH244529   4.854   2.299  11.479 -0.3975 -0.5507 -0.2228
 7705TIP3    H144530   4.843   2.388  11.513 -0.6546 -0.0998 -1.4863
 7705TIP3    H244531   4.918   2.308  11.408 -1.6551 -1.1109 -1.4453
 7706TIP3   OH244532   5.317   4.188  13.563 -0.0683  1.0724  0.4148
 7706TIP3    H144533   5.231   4.169  13.601 -0.8575 -0.8757 -2.1603
 7706TIP3    H244534   5.305   4.273  13.520 -0.7289  0.8017  0.0484
 7707TIP3   OH244535   0.242   4.642  11.832  0.7547 -0.7874 -0.2478
 7707TIP3    H144536   0.289   4.565  11.799  2.0687  0.2874 -0.9513
 7707TIP3    H244537   0.156   4.609  11.858  1.7142 -2.6981  0.5614
 7708TIP3   OH244538   3.402   3.819  13.204 -0.2253  0.2111 -0.5454
 7708TIP3    H144539   3.454   3.875  13.146 -0.8033  2.4214  1.0070
 7708TIP3    H244540   3.460   3.799  13.277 -0.4480 -0.0956 -0.4525
 7709TIP3   OH244541   4.430   5.317  14.991  0.1756 -1.1463  0.0351
 7709TIP3    H144542   4.371   5.357  14.926 -2.3581 -1.6418  1.9599
 7709TIP3    H244543   4.397   5.228  15.002 -1.2142 -0.2251  4.0127
 7710TIP3   OH244544   6.450   1.561   0.133  0.1704  0.1202 -0.0121
 7710TIP3    H144545   6.405   1.633   0.088  3.4839  1.2847 -1.6548
 7710TIP3    H244546   6.445   1.583   0.226 -2.4434  0.2764 -0.1486
 7711TIP3   OH244547   3.397   1.042  15.474 -0.2196 -0.5704 -0.3519
 7711TIP3    H144548   3.478   1.047  15.424  1.0751  0.6824  1.8104
 7711TIP3    H244549   3.332   1.083  15.418  1.0450  0.1453 -1.3234
 7712TIP3   OH244550   5.310   3.272  13.238 -0.0536 -0.2789 -0.4780
 7712TIP3    H144551   5.299   3.344  13.300  1.8953 -0.3196 -0.0534
 7712TIP3    H244552   5.224   3.263  13.197 -1.0055  0.6527  1.2267
 7713TIP3   OH244553   2.146   1.760  13.644 -0.1215 -0.3543  0.3912
 7713TIP3    H144554   2.140   1.846  13.603  1.7394  0.0858  1.0065
 7713TIP3    H244555   2.168   1.700  13.573  1.8320  0.2059  0.4983
 7714TIP3   OH244556   6.678   4.283   0.175  0.3994  0.2019  0.1632
 7714TIP3    H144557   6.684   4.370   0.214 -0.0651 -0.0921  0.8893
 7714TIP3    H244558   6.741   4.231   0.223 -1.4167 -0.6063  1.7318
 7715TIP3   OH244559   3.585   2.753  11.621  0.0432  0.2354 -0.4051
 7715TIP3    H144560   3.588   2.659  11.603 -1.8538 -0.3500  2.1519
 7715TIP3    H244561   3.574   2.793  11.534 -0.5359 -1.9598 -1.3873
 7716TIP3   OH244562   3.686   2.893  15.535 -0.4181 -0.6718  0.0856
 7716TIP3    H144563   3.747   2.896  15.608 -0.8677 -1.3384  0.4942
 7716TIP3    H244564   3.663   2.985  15.520  0.1673 -0.4785  0.3600
 7717TIP3   OH244565   2.344   3.976  13.690  0.8572  0.0742  0.0498
 7717TIP3    H144566   2.430   3.956  13.726  0.7236 -1.4014 -0.4000
 7717TIP3    H244567   2.354   4.062  13.649  1.7708  0.4661  1.0834
 7718TIP3   OH244568   5.348   2.019  14.228 -0.1473  0.7460 -0.4627
 7718TIP3    H144569   5.336   2.040  14.135 -1.3173  0.9066 -0.2858
 7718TIP3    H244570   5.322   2.099  14.274 -0.0154  0.5134  0.0198
 7719TIP3   OH244571   2.306   0.784  13.730  0.2732 -0.5593  0.4150
 7719TIP3    H144572   2.317   0.689  13.721  0.2708 -0.7376  2.1136
 7719TIP3    H244573   2.297   0.816  13.640  2.0487 -1.9580 -0.3059
 7720TIP3   OH244574   2.908   3.923  14.826 -0.1880 -0.5346 -0.1290
 7720TIP3    H144575   2.917   3.832  14.796 -0.1721 -0.3775 -0.6094
 7720TIP3    H244576   2.977   3.933  14.892  2.3437  0.2438 -2.7790
 7721TIP3   OH244577   4.971   1.177  12.976  0.1433 -0.9028  0.6051
 7721TIP3    H144578   4.948   1.199  13.066  3.4173  0.3573  1.1964
 7721TIP3    H244579   4.965   1.261  12.929  0.4308 -1.1757  0.0821
 7722TIP3   OH244580   3.363   4.130  14.299  0.0693 -0.5299 -0.0197
 7722TIP3    H144581   3.397   4.074  14.229  0.0259 -0.4153 -0.1330
 7722TIP3    H244582   3.436   4.187  14.321  0.3442 -1.1147  0.5970
 7723TIP3   OH244583   4.860   1.256  13.209 -0.1057 -0.0785  0.0457
 7723TIP3    H144584   4.782   1.247  13.154 -0.8659 -1.3963  1.3104
 7723TIP3    H244585   4.885   1.348  13.200 -0.7997 -0.0376 -1.7144
 7724TIP3   OH244586   4.520   3.747  14.569 -0.1094  0.0120  0.5629
 7724TIP3    H144587   4.498   3.665  14.615  0.4900 -0.2913  0.3147
 7724TIP3    H244588   4.439   3.797  14.570 -0.7336 -0.9692 -0.0910
 7725TIP3   OH244589   5.096   1.895   0.346  0.4601  0.0493  0.1074
 7725TIP3    H144590   5.063   1.828   0.406 -1.4812  0.3440 -0.6203
 7725TIP3    H244591   5.137   1.845   0.275 -0.4436 -0.3673 -0.1281
 7726TIP3   OH244592   5.237   3.614  11.384 -0.1020 -0.4131 -0.0294
 7726TIP3    H144593   5.280   3.617  11.469 -2.4027 -0.2854  1.1835
 7726TIP3    H244594   5.235   3.520  11.362 -0.6987 -0.5794  0.7065
 7727TIP3   OH244595   0.774   1.148  12.172 -0.7334  0.1225  0.3830
 7727TIP3    H144596   0.789   1.242  12.187  1.3309 -0.4220  2.1544
 7727TIP3    H244597   0.702   1.126  12.230 -0.4122  0.3878  0.8905
 7728TIP3   OH244598   3.499   1.393  15.161  0.7670  0.3378 -0.2327
 7728TIP3    H144599   3.524   1.372  15.252  0.8375 -0.9615 -0.5427
 7728TIP3    H244600   3.583   1.407  15.116  0.7947 -0.5258 -0.4508
 7729TIP3   OH244601   3.432   2.450  15.480  0.0275  0.1178  0.2206
 7729TIP3    H144602   3.450   2.418  15.568 -0.0925  0.4183  0.3523
 7729TIP3    H244603   3.432   2.371  15.426  0.2651 -0.0483  0.4615
 7730TIP3   OH244604   5.975   3.765  15.493  0.0184  0.2164 -0.3993
 7730TIP3    H144605   6.014   3.842  15.534 -1.5677  1.0558 -0.4327
 7730TIP3    H244606   5.882   3.786  15.486 -0.6318 -2.1276  0.5603
 7731TIP3   OH244607   3.625   1.081  13.931 -0.3802  0.8443  0.2704
 7731TIP3    H144608   3.583   1.130  13.859  1.2404  2.0117  0.1015
 7731TIP3    H244609   3.696   1.033  13.889 -0.4984  0.1794  0.8285
 7732TIP3   OH244610   3.676   2.199  15.172 -0.1150  0.0684  0.5063
 7732TIP3    H144611   3.735   2.265  15.136 -0.6051  0.4227  0.3621
 7732TIP3    H244612   3.602   2.248  15.208 -0.3091 -0.3732  0.7244
 7733TIP3   OH244613   7.152   5.049   0.805 -0.1821  0.1041 -0.0627
 7733TIP3    H144614   7.181   5.111   0.872  0.9148 -0.7739  0.3022
 7733TIP3    H244615   7.058   5.061   0.800  0.1743  2.9569 -1.1631
 7734TIP3   OH244616   7.042   3.232   0.358 -0.0634 -0.3552 -0.1886
 7734TIP3    H144617   7.037   3.308   0.299  1.8831  0.4117  0.5955
 7734TIP3    H244618   7.134   3.206   0.355 -0.5809 -2.2755  0.1058
 7735TIP3   OH244619   4.122   0.912  15.489 -0.8796  0.8366 -0.5107
 7735TIP3    H144620   4.203   0.926  15.539 -0.8060  0.2777 -0.4677
 7735TIP3    H244621   4.053   0.949  15.545 -0.9926 -1.2010  0.7519
 7736TIP3   OH244622   6.933   2.287  12.133 -0.4520  0.1546  0.0445
 7736TIP3    H144623   6.977   2.206  12.159  0.4715 -0.1452 -2.2509
 7736TIP3    H244624   6.878   2.262  12.059 -0.0035  1.6263 -0.8239
 7737TIP3   OH244625   5.460   1.417   0.567  1.0470  0.2002 -0.0697
 7737TIP3    H144626   5.531   1.452   0.513  2.4674 -0.3225  1.4343
 7737TIP3    H244627   5.490   1.429   0.657 -0.9558  0.3445  0.5989
 7738TIP3   OH244628   2.784   0.965  13.014  0.4304 -0.6462  0.7476
 7738TIP3    H144629   2.772   0.936  13.105  1.4755 -2.1514  0.4179
 7738TIP3    H244630   2.704   0.937  12.970 -0.0506  0.0244  1.1777
 7739TIP3   OH244631   4.217   5.495  15.469  0.3761  0.0245 -0.0075
 7739TIP3    H144632   4.152   5.566  15.474  0.3871  0.0076  0.3382
 7739TIP3    H244633   4.297   5.533  15.504  1.1186  0.6954 -2.2952
 7740TIP3   OH244634   3.819   3.111   1.034  0.4464  0.3496  0.1251
 7740TIP3    H144635   3.762   3.060   1.092 -1.5749  1.4641 -0.7945
 7740TIP3    H244636   3.776   3.196   1.028  1.1354  0.5674 -2.2049
 7741TIP3   OH244637   6.521   2.139  13.170 -0.3875 -0.2868  0.0739
 7741TIP3    H144638   6.517   2.232  13.191 -0.4844 -0.1333 -0.6279
 7741TIP3    H244639   6.562   2.099  13.247  0.7667  0.4888 -0.1233
 7742TIP3   OH244640   6.016   2.975  15.505  0.3807  0.2239  0.0136
 7742TIP3    H144641   6.049   2.964  15.594 -1.1211  0.0898  0.5648
 7742TIP3    H244642   5.929   3.014  15.516  0.2659  0.3889 -1.3943
 7743TIP3   OH244643   4.733   5.673  15.178  0.2303 -0.3062  1.1400
 7743TIP3    H144644   4.798   5.668  15.248  0.0056  1.1581  1.4661
 7743TIP3    H244645   4.771   5.732  15.114 -0.1977 -0.5033  0.7019
 7744TIP3   OH244646   3.401   1.289  15.814  0.3472  0.4839  0.3874
 7744TIP3    H144647   3.341   1.364  15.823 -0.6774 -0.4561  1.5647
 7744TIP3    H244648   3.344   1.212  15.817  1.4092 -0.3620 -0.6870
 7745TIP3   OH244649   6.548   4.432  15.221 -0.2165  0.7765  0.1865
 7745TIP3    H144650   6.561   4.510  15.168 -0.7319  0.4272 -0.4506
 7745TIP3    H244651   6.637   4.397  15.233 -0.0618  1.0505 -0.1411
 7746TIP3   OH244652   0.677   2.701   0.252 -0.1252  0.4172 -0.2862
 7746TIP3    H144653   0.694   2.667   0.165  1.4101  0.4256 -0.0090
 7746TIP3    H244654   0.722   2.786   0.254  0.7384 -0.0427  0.8365
 7747TIP3   OH244655   3.163   3.945   2.236 -0.0767  0.3839  0.0141
 7747TIP3    H144656   3.247   3.966   2.197 -0.5016  1.4888 -0.3411
 7747TIP3    H244657   3.100   3.959   2.166 -0.5769 -0.2938  0.3161
 7748TIP3   OH244658   3.918   2.106  12.991 -0.9301 -0.0264 -0.4971
 7748TIP3    H144659   3.837   2.086  12.944 -0.5387  1.5325 -1.8678
 7748TIP3    H244660   3.956   2.020  13.010 -2.0625 -0.7224 -1.3117
 7749TIP3   OH244661   5.564   2.175  12.210  0.0607 -0.6402 -0.6319
 7749TIP3    H144662   5.633   2.138  12.154  0.7549  0.9053 -0.8262
 7749TIP3    H244663   5.545   2.106  12.273  0.8011 -1.6078 -1.4403
 7750TIP3   OH244664   5.322   2.636   0.945  0.2935  0.9423  0.4771
 7750TIP3    H144665   5.314   2.727   0.973  1.8015  1.0097  0.7286
 7750TIP3    H244666   5.261   2.628   0.872  2.2539  2.9421 -1.4489
 7751TIP3   OH244667   4.473   0.971  11.960 -0.4009 -0.4399 -0.1210
 7751TIP3    H144668   4.416   1.013  11.896  1.0441  3.1944  0.8311
 7751TIP3    H244669   4.481   1.035  12.031  2.4175 -2.0776  1.1593
 7752TIP3   OH244670   4.538   2.952  12.329 -0.7040  0.1729  0.5682
 7752TIP3    H144671   4.552   2.924  12.239  1.8014 -0.1139  0.9993
 7752TIP3    H244672   4.567   2.877  12.382  0.2420  1.2617  1.6312
 7753TIP3   OH244673   4.557   2.099  12.421  0.3537  0.0687 -0.0256
 7753TIP3    H144674   4.589   2.021  12.376 -0.6714  0.3840 -1.3260
 7753TIP3    H244675   4.464   2.080  12.437  0.2437  0.7787  0.1693
 7754TIP3   OH244676   3.693   0.636  15.187  0.7284  0.1641  0.1174
 7754TIP3    H144677   3.694   0.549  15.147 -0.5693 -0.8713  2.2153
 7754TIP3    H244678   3.784   0.651  15.212  0.7586 -1.1859  0.8927
 7755TIP3   OH244679   4.207   1.136  14.839 -0.2999  0.1568 -0.3567
 7755TIP3    H144680   4.297   1.113  14.816 -0.8830  0.0402 -2.5703
 7755TIP3    H244681   4.213   1.224  14.877  0.7662  0.0604 -0.3037
 7756TIP3   OH244682   5.292   4.318  13.874 -0.1588 -0.2746  0.7354
 7756TIP3    H144683   5.241   4.334  13.953  1.1629  1.9031  1.1887
 7756TIP3    H244684   5.305   4.405  13.835 -3.0130 -1.4972 -3.3231
 7757TIP3   OH244685   4.128   3.070  13.280  0.2644  0.3281  0.4822
 7757TIP3    H144686   4.062   3.108  13.338 -1.4254 -0.3728 -0.9192
 7757TIP3    H244687   4.078   3.044  13.202  1.9012 -1.9461  0.1629
 7758TIP3   OH244688   5.978   2.515   0.408  0.3053  0.5687 -0.1462
 7758TIP3    H144689   5.953   2.500   0.499  2.0433 -0.0663  0.2606
 7758TIP3    H244690   6.005   2.429   0.377  1.3447  1.0980 -0.7246
 7759TIP3   OH244691   4.965   2.614  12.430 -0.9275  0.2407 -0.4056
 7759TIP3    H144692   4.998   2.634  12.342  0.0417  0.4119 -0.0094
 7759TIP3    H244693   4.901   2.544  12.416  0.0674 -0.5366 -1.1199
 7760TIP3   OH244694   5.942   3.595  13.190  0.6793 -0.4341 -0.1376
 7760TIP3    H144695   5.913   3.538  13.119 -2.3726  0.6916  0.1155
 7760TIP3    H244696   6.023   3.634  13.158 -0.0030 -0.8777 -2.5105
 7761TIP3   OH244697   4.279   4.441  13.959  0.3618  0.0895 -0.6655
 7761TIP3    H144698   4.203   4.435  14.016  0.1080 -0.3758 -1.0493
 7761TIP3    H244699   4.303   4.534  13.960 -0.7182  0.3804 -1.1916
 7762TIP3   OH244700   6.857   3.663   0.041  0.0947 -0.5277 -0.2342
 7762TIP3    H144701   6.804   3.592   0.005 -0.6495  0.2971 -0.7968
 7762TIP3    H244702   6.933   3.667  -0.017  0.4024 -1.2203  0.1209
 7763TIP3   OH244703   5.721   2.315  14.329 -0.8247 -0.2433 -0.4199
 7763TIP3    H144704   5.738   2.247  14.263  0.0515 -1.1739  0.7326
 7763TIP3    H244705   5.626   2.321  14.333 -0.9055 -1.1979 -0.7564
 7764TIP3   OH244706   3.280   2.658  15.779  0.4174 -0.2080  0.1116
 7764TIP3    H144707   3.320   2.571  15.793 -0.4963 -0.3824  1.8204
 7764TIP3    H244708   3.338   2.701  15.716 -0.0634 -2.6958 -2.1288
 7765TIP3   OH244709   5.767   4.466  15.508 -0.1074  0.2460  0.2388
 7765TIP3    H144710   5.835   4.496  15.568  1.0572 -1.5466 -0.1548
 7765TIP3    H244711   5.688   4.513  15.536  1.0327  1.5081  1.4012
 7766TIP3   OH244712   5.716   4.110   0.704 -0.0920 -0.3806  0.2025
 7766TIP3    H144713   5.759   4.035   0.745  1.3134 -0.3398 -1.1430
 7766TIP3    H244714   5.756   4.187   0.745  0.6377 -0.3526 -0.5363
 7767TIP3   OH244715   4.276   1.778  13.845 -0.0664  0.0130  0.4148
 7767TIP3    H144716   4.325   1.783  13.927 -0.2514  1.8344  0.4468
 7767TIP3    H244717   4.334   1.819  13.780 -0.1613 -0.8833 -0.2474
 7768TIP3   OH244718   3.548   4.245   1.297  0.2001  0.0386 -0.4437
 7768TIP3    H144719   3.628   4.278   1.338  0.0954 -1.8418  1.3704
 7768TIP3    H244720   3.546   4.152   1.320 -1.5102 -0.3664 -2.1193
 7769TIP3   OH244721   5.538   3.911  13.313 -0.4049  0.0094 -0.2985
 7769TIP3    H144722   5.565   3.978  13.250 -0.3547  0.9593  0.7356
 7769TIP3    H244723   5.567   3.829  13.273  1.0245  0.7392 -0.7897
 7770TIP3   OH244724   4.127   4.834  14.252 -0.2495  0.0659  0.6657
 7770TIP3    H144725   4.123   4.774  14.327 -2.1676 -0.6771 -0.0099
 7770TIP3    H244726   4.056   4.807  14.195  1.9649 -0.1632 -2.0860
 7771TIP3   OH244727   4.357   2.631  14.555  0.3473  0.2639  0.1800
 7771TIP3    H144728   4.394   2.550  14.521  2.0654  0.2563  1.9581
 7771TIP3    H244729   4.267   2.607  14.579 -0.4556 -0.0652 -2.9320
 7772TIP3   OH244730   4.738   1.622   0.551 -0.8413 -0.2877  0.5735
 7772TIP3    H144731   4.678   1.600   0.480 -0.6368 -0.9039  0.5937
 7772TIP3    H244732   4.755   1.539   0.595  0.7631 -0.2843  0.0019
 7773TIP3   OH244733   3.930   3.238  14.247 -0.3214 -0.2486 -0.1675
 7773TIP3    H144734   4.016   3.209  14.278  0.0767 -1.5875 -2.3806
 7773TIP3    H244735   3.869   3.212  14.316  0.5822 -2.6903 -0.2383
 7774TIP3   OH244736   5.238   1.802  14.688  0.1021  0.1388 -0.2376
 7774TIP3    H144737   5.250   1.879  14.632 -0.4539 -0.2314 -0.8649
 7774TIP3    H244738   5.317   1.800  14.742  1.2437 -0.2200 -1.8850
 7775TIP3   OH244739   4.710   2.135   0.832 -0.3574 -0.1098 -0.4558
 7775TIP3    H144740   4.688   2.147   0.924 -1.9720 -1.4897 -0.6168
 7775TIP3    H244741   4.664   2.054   0.807  0.7156 -0.1995 -2.2522
 7776TIP3   OH244742   0.081   2.413  13.625 -0.4633  0.0058 -0.3689
 7776TIP3    H144743   0.157   2.403  13.682 -0.3246  0.0235 -0.5499
 7776TIP3    H244744   0.019   2.348  13.656 -1.2746  1.4930  1.2295
 7777TIP3   OH244745   3.051   0.844  15.168  0.0309  0.3289 -0.3207
 7777TIP3    H144746   2.959   0.859  15.189 -0.6611 -0.8820 -2.3517
 7777TIP3    H244747   3.078   0.773  15.226 -0.7708 -0.3693 -0.7864
 7778TIP3   OH244748   2.209   3.531  14.245 -0.5618 -0.3915  0.0731
 7778TIP3    H144749   2.156   3.477  14.304 -1.9865 -0.5477 -1.2970
 7778TIP3    H244750   2.296   3.533  14.285 -1.0764 -1.8452  1.3107
 7779TIP3   OH244751   6.976   2.006  12.288  0.4485  0.0091  0.1351
 7779TIP3    H144752   6.907   2.031  12.350 -0.6247 -0.2685 -0.9229
 7779TIP3    H244753   7.012   1.924  12.324  0.6057  0.4491  0.9841
 7780TIP3   OH244754   5.777   4.251  12.362 -0.2335  0.5474  0.3122
 7780TIP3    H144755   5.720   4.232  12.287 -2.5071  0.0103  2.1027
 7780TIP3    H244756   5.834   4.175  12.368 -0.0619  0.5718 -0.8435
 7781TIP3   OH244757   5.664   4.109  14.359 -0.6901 -0.2178  0.2579
 7781TIP3    H144758   5.677   4.197  14.324 -2.0867  0.7860  2.1822
 7781TIP3    H244759   5.741   4.094  14.414  0.1050 -0.6712 -0.9546
 7782TIP3   OH244760   6.136   2.094  13.150 -0.2338  0.4166  0.4147
 7782TIP3    H144761   6.139   2.188  13.131 -0.6513  0.4870  0.6934
 7782TIP3    H244762   6.043   2.072  13.148 -0.1246 -0.0261  0.1882
 7783TIP3   OH244763   4.406   2.501   0.728 -0.1075 -0.3914 -0.3413
 7783TIP3    H144764   4.480   2.559   0.706 -0.2405  0.2153  0.7624
 7783TIP3    H244765   4.417   2.483   0.821 -1.7954  0.3567  0.0235
 7784TIP3   OH244766   6.410   1.405   0.724  0.2156 -0.1743  0.0101
 7784TIP3    H144767   6.443   1.335   0.780  1.9787 -0.1691 -1.0031
 7784TIP3    H244768   6.418   1.370   0.635 -3.3755 -0.5280 -0.2576
 7785TIP3   OH244769   4.669   3.579  14.951 -0.6643  0.0871  0.2258
 7785TIP3    H144770   4.604   3.509  14.960  0.4314 -1.0917 -0.7141
 7785TIP3    H244771   4.735   3.560  15.017  0.2183 -0.4538 -0.7852
 7786TIP3   OH244772   5.038   3.198  15.166  0.0470  0.1681  0.0132
 7786TIP3    H144773   5.091   3.158  15.097  0.9301  2.8055 -0.9195
 7786TIP3    H244774   4.955   3.217  15.124  0.4758  1.4899 -0.2606
 7787TIP3   OH244775   4.941   2.180   2.193  0.4502  0.0049  0.0904
 7787TIP3    H144776   4.896   2.159   2.112  0.9075  0.5868 -0.3172
 7787TIP3    H244777   5.001   2.106   2.207 -2.2692 -1.9422  1.8810
 7788TIP3   OH244778   3.937   3.631  14.540  0.1523 -0.2008  1.1644
 7788TIP3    H144779   3.968   3.560  14.597  2.4952 -1.4271 -1.5087
 7788TIP3    H244780   4.015   3.658  14.491 -1.6658  1.1656 -1.0678
 7789TIP3   OH244781   2.829   2.559  15.752 -0.4199 -0.4956  0.1052
 7789TIP3    H144782   2.756   2.617  15.728 -0.4308 -0.3955  0.3820
 7789TIP3    H244783   2.868   2.535  15.668 -0.0088  0.4387  0.0194
 7790TIP3   OH244784   4.298   2.957   0.111 -0.1068  0.6507  0.2907
 7790TIP3    H144785   4.317   2.978   0.020  1.2958 -2.2287 -0.1202
 7790TIP3    H244786   4.225   2.896   0.107 -1.4146  2.1066  1.2427
 7791TIP3   OH244787   2.152   2.288  15.392 -0.6293  0.3466 -0.1111
 7791TIP3    H144788   2.082   2.241  15.346 -1.3049  1.5827 -0.3847
 7791TIP3    H244789   2.175   2.359  15.332  2.1406 -1.1084 -0.8172
 7792TIP3   OH244790   3.938   2.340   0.155  0.8001  0.2354  0.0291
 7792TIP3    H144791   3.963   2.248   0.145 -0.1652 -0.0268 -0.0603
 7792TIP3    H244792   4.019   2.389   0.140  1.6486 -0.6655  1.5634
 7793TIP3   OH244793   4.355   2.965  15.628 -0.3259  0.3582 -0.4982
 7793TIP3    H144794   4.367   2.992  15.537  3.6271  0.1055 -0.1565
 7793TIP3    H244795   4.338   2.871  15.624  0.6349  0.1947 -0.9651
 7794TIP3   OH244796   6.936   5.015  15.270  0.0194  0.4936 -0.0512
 7794TIP3    H144797   7.026   5.042  15.251 -0.9024  1.8922 -2.7026
 7794TIP3    H244798   6.915   4.950  15.202 -0.6252 -0.6422  1.2032
 7795TIP3   OH244799   5.560   3.935  11.884 -0.0856 -0.0806  0.0742
 7795TIP3    H144800   5.553   4.018  11.836  1.8836  0.8018  1.2628
 7795TIP3    H244801   5.625   3.885  11.836  0.1111 -0.1782  0.4479
 7796TIP3   OH244802   3.226   2.962  14.482 -0.0928 -0.3328  0.1540
 7796TIP3    H144803   3.266   3.049  14.476 -1.3642  0.1197 -2.4346
 7796TIP3    H244804   3.143   2.977  14.526 -1.0494  0.0486 -1.7511
 7797TIP3   OH244805   3.152   2.176  15.321 -0.2935  0.2993  0.0673
 7797TIP3    H144806   3.140   2.255  15.269 -0.3055  0.8751  0.9322
 7797TIP3    H244807   3.074   2.123  15.302  0.1556  0.0748 -1.2200
 7798TIP3   OH244808   4.834   6.085  15.008  0.3882  0.0875  0.4193
 7798TIP3    H144809   4.835   6.128  15.094  0.7810  0.7948  0.0658
 7798TIP3    H244810   4.926   6.063  14.992  0.2094 -0.7410  0.5226
 7799TIP3   OH244811   4.566   3.634  13.809  0.1167  0.6938  0.0246
 7799TIP3    H144812   4.575   3.671  13.897  1.4949 -2.0001  1.0756
 7799TIP3    H244813   4.533   3.707  13.756 -1.8412  2.0763  2.9711
 7800TIP3   OH244814   2.735   3.864  15.417 -0.2905  0.2351 -0.3581
 7800TIP3    H144815   2.782   3.811  15.353  1.7548  0.4642  0.9329
 7800TIP3    H244816   2.785   3.855  15.498 -2.3184  0.7026  0.9830
 7801TIP3   OH244817   4.715   2.361  11.762  0.1372 -0.3237 -0.0120
 7801TIP3    H144818   4.711   2.271  11.794  1.6560 -0.9660 -1.5617
 7801TIP3    H244819   4.681   2.413  11.834 -1.7719 -2.2232  0.5329
 7802TIP3   OH244820   6.345   2.117  11.362  0.4303  0.1609  0.3936
 7802TIP3    H144821   6.269   2.156  11.405 -0.2765  1.5301 -1.9734
 7802TIP3    H244822   6.321   2.025  11.351 -0.0724  0.1678  1.3751
 7803TIP3   OH244823   7.013   3.275  12.419 -0.5777 -0.3404 -0.1175
 7803TIP3    H144824   7.039   3.295  12.509  1.7591 -0.7410 -0.6803
 7803TIP3    H244825   6.944   3.339  12.399 -0.2017  0.5837  1.5149
 7804TIP3   OH244826   4.391   4.101  13.954  0.1300 -0.1103 -0.2508
 7804TIP3    H144827   4.311   4.066  13.993 -0.4644  0.3204 -1.0635
 7804TIP3    H244828   4.455   4.100  14.025 -0.9808  0.8647  0.7785
 7805TIP3   OH244829   5.437   3.256  15.611  0.5338  0.1984  0.5220
 7805TIP3    H144830   5.424   3.337  15.660 -0.8058 -0.0688  0.6216
 7805TIP3    H244831   5.353   3.239  15.568  2.0210  1.1025 -2.9347
 7806TIP3   OH244832   5.107   3.150  12.377  0.1390 -0.4968 -0.1700
 7806TIP3    H144833   5.114   3.083  12.445 -1.2975 -0.1479  0.3418
 7806TIP3    H244834   5.067   3.105  12.303 -0.3993 -0.3396  0.0165
 7807TIP3   OH244835   7.129   3.252  13.017 -0.1362  0.6156 -0.8897
 7807TIP3    H144836   7.056   3.193  13.000  0.5214 -0.3377 -0.4877
 7807TIP3    H244837   7.088   3.333  13.046 -1.0033 -0.3115  0.5319
 7808TIP3   OH244838   3.384   3.525  14.815  0.0605  0.5157  0.3728
 7808TIP3    H144839   3.462   3.551  14.766  1.0797  0.6997  2.0624
 7808TIP3    H244840   3.369   3.435  14.789  0.6207  0.5943 -0.2486
 7809TIP3   OH244841   4.961   1.285  15.104  0.2231 -0.0472  0.0253
 7809TIP3    H144842   4.979   1.287  15.011  2.5325 -1.7363  0.3970
 7809TIP3    H244843   4.903   1.209  15.116  1.1723 -0.7721  0.1319
 7810TIP3   OH244844   3.375   2.184  15.882 -0.2573  0.3272 -0.6052
 7810TIP3    H144845   3.318   2.121  15.926 -1.2149  0.0957 -2.1535
 7810TIP3    H244846   3.415   2.134  15.811  0.2578  1.0496 -0.8228
 7811TIP3   OH244847   3.288   3.631  13.423  0.1097  0.0355  0.1708
 7811TIP3    H144848   3.247   3.546  13.405 -1.7068  0.9518 -0.1929
 7811TIP3    H244849   3.375   3.624  13.383  0.0820 -1.7251  0.3495
 7812TIP3   OH244850   4.380   1.431   0.146  0.3458 -0.3648  0.1543
 7812TIP3    H144851   4.319   1.490   0.190 -0.6260 -0.7704 -0.6211
 7812TIP3    H244852   4.432   1.488   0.089  1.0090  0.0408  1.1544
 7813TIP3   OH244853   7.002   1.527  14.389  0.1754 -0.2143 -0.8369
 7813TIP3    H144854   7.039   1.615  14.384 -0.7913  0.1740 -1.3375
 7813TIP3    H244855   7.037   1.481  14.313 -0.8128  0.3323 -1.6387
 7814TIP3   OH244856   5.244   2.371  14.809 -0.2879  0.2261  0.4648
 7814TIP3    H144857   5.203   2.410  14.732  0.7905  0.0937 -0.1778
 7814TIP3    H244858   5.195   2.290  14.824  0.4126 -0.4696 -0.9419
 7815TIP3   OH244859   4.330   2.078  15.957 -0.2051 -0.0316  0.5905
 7815TIP3    H144860   4.294   2.159  15.994  0.3546  1.8311 -2.7863
 7815TIP3    H244861   4.425   2.092  15.960 -0.1667  0.5844 -2.3517
 7816TIP3   OH244862   4.168   3.508   2.532 -0.0425  0.6360 -0.0716
 7816TIP3    H144863   4.249   3.545   2.568 -0.3189  1.0477  0.1315
 7816TIP3    H244864   4.115   3.490   2.610  0.6516 -1.5360 -0.0552
 7817TIP3   OH244865   3.822   0.400  13.810 -0.5386  0.0487  0.3500
 7817TIP3    H144866   3.771   0.399  13.729  1.6374  0.2555 -1.0739
 7817TIP3    H244867   3.817   0.491  13.840  1.1674  0.6937 -1.2378
 7818TIP3   OH244868   3.150   1.597  15.657 -0.4418  0.2512  0.1456
 7818TIP3    H144869   3.097   1.567  15.584 -1.3939 -1.3709  1.4563
 7818TIP3    H244870   3.230   1.544  15.653 -0.7081 -0.1886  0.5503
 7819TIP3   OH244871   2.624   2.416  14.102 -0.9947 -0.5075  0.6597
 7819TIP3    H144872   2.646   2.403  14.010 -1.0941  1.2530  0.3695
 7819TIP3    H244873   2.691   2.365  14.150  0.5241  0.5051 -0.3345
 7820TIP3   OH244874   5.639   1.755  15.640  0.1289 -0.2998  0.4239
 7820TIP3    H144875   5.547   1.744  15.615  0.4206  0.9142 -1.2471
 7820TIP3    H244876   5.640   1.836  15.692  0.2544 -0.2864  0.4012
 7821TIP3   OH244877   5.861   1.383  14.202  0.4907 -0.4764  0.2580
 7821TIP3    H144878   5.926   1.382  14.132 -0.5025 -1.1234 -0.6829
 7821TIP3    H244879   5.876   1.466  14.248  2.3755 -0.9128  0.4636
 7822TIP3   OH244880   2.673   4.312  13.742 -0.3520  0.5073 -0.3010
 7822TIP3    H144881   2.672   4.317  13.838 -2.1231  0.3278 -0.2975
 7822TIP3    H244882   2.642   4.223  13.723  2.2477 -0.2874 -0.9996
 7823TIP3   OH244883   5.838   4.315  14.641 -0.1833 -0.4992  0.6251
 7823TIP3    H144884   5.805   4.377  14.577  0.4932  1.0495  1.7427
 7823TIP3    H244885   5.797   4.232  14.617 -1.4510  0.4575 -0.6320
 7824TIP3   OH244886   4.166   2.753  14.037 -0.2942  0.4485 -0.2517
 7824TIP3    H144887   4.167   2.824  13.972 -2.0888  1.4130  0.7478
 7824TIP3    H244888   4.085   2.705  14.019 -0.0557 -0.1727  0.3239
 7825TIP3   OH244889   3.978   3.471   0.192 -0.4752  0.2542  0.5849
 7825TIP3    H144890   3.932   3.555   0.187 -0.3753  0.2953  0.3205
 7825TIP3    H244891   3.956   3.427   0.109  0.7348  0.6840  0.0285
 7826TIP3   OH244892   4.916   2.573  14.339 -0.3681  0.9011 -0.3337
 7826TIP3    H144893   4.959   2.607  14.261 -0.8276  0.2581 -0.8716
 7826TIP3    H244894   4.959   2.488  14.355  0.9882  1.8366  1.1788
 7827TIP3   OH244895   4.531   4.596  15.816  0.2394 -0.6233  0.1713
 7827TIP3    H144896   4.606   4.575  15.872  1.2880  0.5331 -0.7713
 7827TIP3    H244897   4.565   4.593  15.727 -0.9500 -0.5489 -0.3041
 7828TIP3   OH244898   2.890   4.591  15.305 -0.0276  0.8043 -0.1581
 7828TIP3    H144899   2.955   4.612  15.372 -1.0950  0.8930  0.8452
 7828TIP3    H244900   2.941   4.546  15.237  1.1782  1.3167  0.3809
 7829TIP3   OH244901   5.620   3.503  15.760 -0.6526 -0.2341  0.2596
 7829TIP3    H144902   5.623   3.577  15.821 -0.0004 -2.3681  2.9507
 7829TIP3    H244903   5.532   3.467  15.771 -1.1825  0.4811 -1.4995
 7830TIP3   OH244904   3.755   3.027  15.866 -0.1985 -0.7667  0.4091
 7830TIP3    H144905   3.816   2.959  15.836 -0.8940 -0.6406 -1.3642
 7830TIP3    H244906   3.669   2.988  15.858 -0.5710  0.1546 -0.1696
 7831TIP3   OH244907   6.684   4.193  15.530 -0.1731 -0.2584 -0.0841
 7831TIP3    H144908   6.678   4.229  15.618 -1.0993 -0.6117  0.0030
 7831TIP3    H244909   6.737   4.256  15.481  2.7793 -1.4862  1.4471
 7832TIP3   OH244910   2.504   3.143  15.843 -0.1624  0.0104 -0.1278
 7832TIP3    H144911   2.591   3.177  15.824 -0.2452  1.5826  2.1058
 7832TIP3    H244912   2.513   3.048  15.837  1.5341  0.1980 -0.6091
 7833TIP3   OH244913   4.595   3.749  14.061  0.3472  0.6585  0.2520
 7833TIP3    H144914   4.603   3.684  14.130 -0.5211 -0.3773 -0.6111
 7833TIP3    H244915   4.677   3.799  14.065  1.0542 -0.5425  0.8555
 7834TIP3   OH244916   0.114   4.596  12.088 -0.0795  0.0675  0.1986
 7834TIP3    H144917   0.124   4.691  12.094 -1.1582  0.2486 -0.7854
 7834TIP3    H244918   0.020   4.581  12.098 -0.0591 -0.8069 -0.8296
 7835TIP3   OH244919   3.692   2.498   1.264 -0.0724  0.1545  0.5383
 7835TIP3    H144920   3.632   2.571   1.246 -0.8713 -0.6908 -0.2594
 7835TIP3    H244921   3.779   2.539   1.267 -0.4712  1.0807 -0.2863
 7836TIP3   OH244922   3.853   3.925  13.687  0.0126  0.4435 -0.2909
 7836TIP3    H144923   3.810   3.872  13.754 -0.3662  0.3130 -0.6337
 7836TIP3    H244924   3.933   3.876  13.665  0.2994  0.6436  0.2827
 7837TIP3   OH244925   5.368   3.635  13.895  0.3651  0.0624 -0.8484
 7837TIP3    H144926   5.274   3.654  13.883  0.3210 -0.2125 -0.9318
 7837TIP3    H244927   5.382   3.552  13.850  0.0994 -1.2375  1.3815
 7838TIP3   OH244928   6.347   3.082   0.150 -0.3195  0.0484  0.0871
 7838TIP3    H144929   6.288   3.007   0.158 -0.1433  0.0466  1.5535
 7838TIP3    H244930   6.432   3.048   0.177  0.4916 -0.0808 -2.4967
 7839TIP3   OH244931   4.416   4.519  13.248 -0.4040  0.7644  0.3066
 7839TIP3    H144932   4.367   4.538  13.329 -1.5817  0.0021 -0.2082
 7839TIP3    H244933   4.492   4.576  13.252 -0.6563  1.0196  1.7767
 7840TIP3   OH244934   5.465   2.727  13.896 -0.2832  0.2452 -0.6958
 7840TIP3    H144935   5.381   2.702  13.857 -0.6921  2.0305 -1.0201
 7840TIP3    H244936   5.454   2.820  13.917  0.7463 -0.1300  1.5599
 7841TIP3   OH244937   0.989   0.184  14.282  0.5981 -0.0971 -0.1322
 7841TIP3    H144938   0.904   0.154  14.249  0.6414 -0.2119 -0.1379
 7841TIP3    H244939   1.032   0.105  14.314 -0.0708  0.2155  1.6125
 7842TIP3   OH244940   4.909   4.526  14.798  0.6926  0.0079  0.4615
 7842TIP3    H144941   4.895   4.434  14.776 -0.2699  0.4772 -0.9608
 7842TIP3    H244942   4.947   4.524  14.886  0.1084 -1.7169  0.6957
 7843TIP3   OH244943   2.415   0.396  15.497 -0.5079 -0.2082  0.0837
 7843TIP3    H144944   2.351   0.339  15.541 -1.3570  0.3100 -0.4759
 7843TIP3    H244945   2.418   0.474  15.552 -0.5623 -0.1155 -0.0459
 7844TIP3   OH244946   5.884   2.862  13.462 -0.3466  0.0123 -0.4433
 7844TIP3    H144947   5.934   2.937  13.428  0.7099 -0.0352  0.9717
 7844TIP3    H244948   5.809   2.901  13.506 -0.0860  0.2053 -0.1724
 7845TIP3   OH244949   6.346   2.363  12.636 -0.2665  0.0210 -0.0279
 7845TIP3    H144950   6.378   2.318  12.715 -0.5179 -0.5017 -0.2221
 7845TIP3    H244951   6.268   2.410  12.665 -0.2220  0.0220  0.0908
 7846TIP3   OH244952   3.986   5.552  13.852  0.2830  0.2622 -0.0274
 7846TIP3    H144953   4.055   5.519  13.794 -0.2052 -0.0619 -0.4270
 7846TIP3    H244954   3.927   5.599  13.794 -0.3735 -0.3284  0.1534
 7847TIP3   OH244955   2.299   3.422  15.083  0.5685 -0.1675  0.7246
 7847TIP3    H144956   2.290   3.400  15.176 -0.0240  0.2322  0.7632
 7847TIP3    H244957   2.326   3.340  15.042  0.6749 -0.3904  1.2236
 7848TIP3   OH244958   5.085   2.607  13.601  0.1738 -0.4370  0.1152
 7848TIP3    H144959   5.012   2.575  13.547 -0.8072  0.5224  0.8701
 7848TIP3    H244960   5.132   2.668  13.544 -0.9777  0.7297  0.4072
 7849TIP3   OH244961   5.281   3.394  14.933  0.7856  0.3357 -0.1259
 7849TIP3    H144962   5.327   3.328  14.882  1.0336  0.0970  0.4067
 7849TIP3    H244963   5.264   3.465  14.871  0.5234 -0.2249 -0.6909
 7850TIP3   OH244964   6.103   4.259  13.648 -0.1549 -0.5768  0.2717
 7850TIP3    H144965   6.130   4.193  13.584 -2.8117 -0.2645 -1.2410
 7850TIP3    H244966   6.022   4.225  13.685 -0.8203  1.1687  0.4741
 7851TIP3   OH244967   4.730   2.475  15.128 -0.4098 -0.2526  0.5029
 7851TIP3    H144968   4.712   2.405  15.190  1.1947 -1.3890 -0.2787
 7851TIP3    H244969   4.799   2.527  15.169  1.5071 -1.7054 -0.8179
 7852TIP3   OH244970   2.754   2.765  14.849 -0.5312 -0.8120  0.0414
 7852TIP3    H144971   2.808   2.718  14.912  0.4896  2.6400  1.8454
 7852TIP3    H244972   2.667   2.724  14.856  0.3219 -2.4303  1.5040
 7853TIP3   OH244973   4.594   5.022  11.170 -0.0654 -0.3979 -0.2057
 7853TIP3    H144974   4.608   4.973  11.089 -2.3957 -1.3383 -0.0695
 7853TIP3    H244975   4.628   4.965  11.239  2.1350  0.4999 -0.4921
 7854TIP3   OH244976   6.285   3.905  13.825  0.4119 -0.3132 -0.4729
 7854TIP3    H144977   6.264   3.954  13.905  1.1657 -3.8855  2.0230
 7854TIP3    H244978   6.340   3.833  13.855 -2.0431 -3.7366 -3.7398
 7855TIP3   OH244979   4.626   3.060  14.793  0.1757  0.1528 -0.0217
 7855TIP3    H144980   4.702   3.098  14.749 -1.7748  0.4947 -3.2994
 7855TIP3    H244981   4.612   2.976  14.749 -1.8364  0.4975 -0.1162
 7856TIP3   OH244982   7.146   3.605  13.981 -0.2692 -0.1011 -0.1390
 7856TIP3    H144983   7.215   3.648  14.031  0.1919  0.5605 -1.2981
 7856TIP3    H244984   7.077   3.587  14.044  0.8955 -0.6086  1.0001
 7857TIP3   OH244985   1.349   2.895  13.565 -0.0313  0.2533 -0.5132
 7857TIP3    H144986   1.327   2.925  13.653  0.8681 -0.4503 -0.0431
 7857TIP3    H244987   1.271   2.847  13.536 -0.6670  1.2291 -0.4537
 7858TIP3   OH244988   6.930   4.873  12.560  0.2637 -0.2113  0.2527
 7858TIP3    H144989   6.933   4.777  12.561 -0.1767 -0.2359 -0.3974
 7858TIP3    H244990   6.862   4.894  12.496  0.7865  0.5469 -0.0567
 7859TIP3   OH244991   7.028   4.778   1.180 -0.3603  0.4046  0.1917
 7859TIP3    H144992   6.997   4.867   1.163  0.1426  0.5692  0.1255
 7859TIP3    H244993   7.071   4.752   1.098 -0.4626  0.1173  0.2273
 7860TIP3   OH244994   6.421   4.464   0.669 -0.2228 -0.1581 -0.1024
 7860TIP3    H144995   6.497   4.428   0.715  0.4000  1.0866 -0.1311
 7860TIP3    H244996   6.437   4.444   0.577  0.6107  1.0691 -0.2244
 7861TIP3   OH244997   4.675   1.027  15.082  0.1854  0.5576 -0.6851
 7861TIP3    H144998   4.705   1.111  15.048  1.2693 -0.2393 -1.7509
 7861TIP3    H244999   4.733   0.962  15.040 -0.4685 -0.6894  0.3080
 7862TIP3   OH245000   5.393   0.810   0.205  0.2073  0.1491 -0.0848
 7862TIP3    H145001   5.351   0.864   0.139  0.4567 -0.7572 -0.9926
 7862TIP3    H245002   5.459   0.868   0.244 -0.5177  0.9472 -0.0236
 7863TIP3   OH245003   5.994   5.201  15.563 -0.1101  0.1459 -0.3237
 7863TIP3    H145004   5.980   5.134  15.629 -0.6751  0.0048 -0.5836
 7863TIP3    H245005   5.906   5.233  15.542  0.3103  3.0597  1.9506
 7864TIP3   OH245006   4.274   5.749   0.280  0.3751 -0.2349  0.1648
 7864TIP3    H145007   4.203   5.693   0.250  0.9685 -0.3958 -0.9530
 7864TIP3    H245008   4.245   5.781   0.366 -0.4090 -1.4341  0.3515
 7865TIP3   OH245009   5.153   1.829  15.123  0.0700  0.6425 -0.7287
 7865TIP3    H145010   5.098   1.806  15.048 -1.6436  0.8642  0.4319
 7865TIP3    H245011   5.189   1.745  15.153  0.5244  0.5177 -1.5789
 7866TIP3   OH245012   4.262   1.658  14.805  0.2365 -0.6507 -0.4078
 7866TIP3    H145013   4.222   1.737  14.768  0.3160 -0.1950  0.4734
 7866TIP3    H245014   4.353   1.682  14.821 -0.6533  0.4284  3.6325
 7867TIP3   OH245015   1.397   2.774   0.457  0.0438  0.6428 -0.3959
 7867TIP3    H145016   1.359   2.861   0.447 -0.0817  0.4849 -1.4487
 7867TIP3    H245017   1.452   2.780   0.534 -1.3092  1.1758  0.5476
 7868TIP3   OH245018   4.425   1.930  12.743  0.1495  0.0702  0.4343
 7868TIP3    H145019   4.435   1.892  12.831  1.4259 -1.8126 -0.4925
 7868TIP3    H245020   4.419   2.024  12.758  0.3558 -0.2263  2.5403
 7869TIP3   OH245021   6.278   4.890  13.594  0.1096  0.6639 -0.3322
 7869TIP3    H145022   6.220   4.832  13.544  1.1550 -0.0306 -0.7543
 7869TIP3    H245023   6.366   4.860  13.572  0.5859 -0.4179  2.8432
 7870TIP3   OH245024   6.615   2.058   0.898 -0.3352  0.3832  0.2103
 7870TIP3    H145025   6.578   2.094   0.817 -1.6272  0.1124  0.6792
 7870TIP3    H245026   6.596   1.965   0.893  0.4679  0.2054  0.3707
 7871TIP3   OH245027   7.146   5.448  14.219  0.0173  0.0739 -0.1831
 7871TIP3    H145028   7.203   5.504  14.166 -0.1463  1.1921  0.8070
 7871TIP3    H245029   7.206   5.387  14.262  0.3527  0.5519  0.0243
 7872TIP3   OH245030   3.449   2.802  13.576 -0.1849 -0.2198  0.2669
 7872TIP3    H145031   3.538   2.773  13.554 -0.7228 -0.0823 -2.1622
 7872TIP3    H245032   3.427   2.751  13.654  2.1643  0.0411  1.1475
 7873TIP3   OH245033   6.012   2.781  13.136 -0.5055  0.0989  0.2405
 7873TIP3    H145034   6.009   2.867  13.179  0.5193 -0.1080  0.7611
 7873TIP3    H245035   5.922   2.748  13.141 -0.7041  0.7288  0.9055
 7874TIP3   OH245036   4.965   0.887  13.595  0.0301 -0.1518  0.1626
 7874TIP3    H145037   5.050   0.846  13.611  1.4975  2.9925  0.6824
 7874TIP3    H245038   4.981   0.949  13.524 -2.4091 -1.1906 -1.3641
 7875TIP3   OH245039   5.202   2.523  14.533 -0.4858  0.0385  0.0138
 7875TIP3    H145040   5.241   2.609  14.519 -1.2855  0.5444  0.8420
 7875TIP3    H245041   5.186   2.489  14.445  0.8616  0.2486 -0.3276
 7876TIP3   OH245042   5.208   2.753  15.342 -0.7651  0.4412  0.2358
 7876TIP3    H145043   5.117   2.771  15.364 -1.0789 -1.4425  0.5278
 7876TIP3    H245044   5.215   2.771  15.248 -1.5378  0.1866  0.1313
 7877TIP3   OH245045   0.492   3.357  11.536 -0.6708 -0.0703  0.0814
 7877TIP3    H145046   0.424   3.391  11.477 -2.4357 -1.5491  1.2153
 7877TIP3    H245047   0.548   3.304  11.479 -0.6391  0.9048 -0.8078
 7878TIP3   OH245048   7.097   1.224   0.581  0.0336 -0.0151  0.2091
 7878TIP3    H145049   7.168   1.267   0.534  1.1682 -1.9052  0.1419
 7878TIP3    H245050   7.132   1.209   0.669 -1.2062  1.3216  0.9485
 7879TIP3   OH245051   5.175   0.650  13.537 -0.2693 -0.3862  0.7816
 7879TIP3    H145052   5.120   0.694  13.473  0.0535  0.5672  1.1506
 7879TIP3    H245053   5.231   0.719  13.572  1.0418 -1.3011  0.5354
 7880TIP3   OH245054   6.938   2.342  15.754 -0.2532 -0.1069  0.8906
 7880TIP3    H145055   6.874   2.294  15.701  0.5881 -0.9351  0.6045
 7880TIP3    H245056   6.886   2.384  15.823 -1.2091 -0.0249  0.1362
 7881TIP3   OH245057   4.425   0.614  13.274  0.4309 -0.5780 -0.4538
 7881TIP3    H145058   4.363   0.558  13.227 -0.5869  0.6394 -0.5915
 7881TIP3    H245059   4.370   0.676  13.322  1.5018  2.0897 -2.4864
 7882TIP3   OH245060   2.502   2.727   0.553  0.4098  0.1859  0.2223
 7882TIP3    H145061   2.422   2.753   0.599  1.3899  0.2941  1.8940
 7882TIP3    H245062   2.472   2.662   0.489 -1.1300  0.8145  0.2653
 7883TIP3   OH245063   2.858   2.078  15.314  0.1915 -0.2588  0.1818
 7883TIP3    H145064   2.801   2.126  15.373 -0.2566 -1.0161  0.3715
 7883TIP3    H245065   2.843   2.119  15.228 -0.2126 -0.0885  0.3315
 7884TIP3   OH245066   6.444   2.414  13.325  0.0355 -0.5782  0.5045
 7884TIP3    H145067   6.414   2.484  13.382  1.4991  0.6683 -0.1953
 7884TIP3    H245068   6.427   2.446  13.236 -1.2889 -2.0544  0.2149
 7885TIP3   OH245069   1.167   1.956  15.169  0.1219 -0.0962 -0.1117
 7885TIP3    H145070   1.242   1.903  15.141  1.6924  0.9788  1.8364
 7885TIP3    H245071   1.092   1.919  15.124  1.6413 -2.0939 -1.0551
 7886TIP3   OH245072   0.102   1.688  15.292 -0.2499  0.1334  0.1424
 7886TIP3    H145073   0.096   1.759  15.356  0.9080 -0.6819  1.1750
 7886TIP3    H245074   0.013   1.678  15.259 -0.8614  0.5600  1.6394
 7887TIP3   OH245075   5.635   2.181  11.039 -0.0792 -0.4493 -0.2128
 7887TIP3    H145076   5.709   2.144  11.087 -0.8695 -3.3498 -1.1054
 7887TIP3    H245077   5.557   2.145  11.082 -0.8878  0.1204 -1.1705
 7888TIP3   OH245078   6.924   3.459   0.577  0.2024  0.2973 -0.1206
 7888TIP3    H145079   6.854   3.524   0.572 -0.7681 -0.6789  0.4660
 7888TIP3    H245080   6.979   3.476   0.501  0.2299  2.0903  0.2698
 7889TIP3   OH245081   7.060   1.063  12.371  0.8004  0.3704  0.5551
 7889TIP3    H145082   7.137   1.036  12.322 -0.1098 -0.9708 -0.1584
 7889TIP3    H245083   7.005   1.108  12.307 -0.0185 -0.6517  0.5349
 7890TIP3   OH245084   6.192   5.223  11.981 -0.6078 -0.0816 -0.2969
 7890TIP3    H145085   6.286   5.211  11.989 -0.8322 -3.4051 -1.8577
 7890TIP3    H245086   6.156   5.190  12.063 -0.5001  0.0068 -0.2152
 7891TIP3   OH245087   5.599   2.714   2.493  0.3342  0.1696 -0.1445
 7891TIP3    H145088   5.621   2.797   2.536  2.7881 -0.1775 -0.6233
 7891TIP3    H245089   5.641   2.647   2.547  0.4424 -0.5444 -1.0903
 7892TIP3   OH245090   6.757   3.053  12.521 -0.0753  0.2555  0.8130
 7892TIP3    H145091   6.833   2.995  12.514  0.4393  1.0747 -0.4801
 7892TIP3    H245092   6.793   3.141  12.531 -0.8383  0.6753  0.0228
 7893TIP3   OH245093   6.453   2.902   0.798  0.0377 -0.6019  0.1933
 7893TIP3    H145094   6.388   2.855   0.745 -0.4998  0.8619 -0.4796
 7893TIP3    H245095   6.401   2.949   0.863  0.6178 -1.4454  1.2765
 7894TIP3   OH245096   0.814   5.017   0.683 -0.2015  0.2817  0.0916
 7894TIP3    H145097   0.760   5.047   0.756 -1.0665 -0.9692 -0.0183
 7894TIP3    H245098   0.831   4.925   0.703 -2.6440 -0.8281 -2.5486
 7895TIP3   OH245099   4.869   4.555   0.627 -0.6528 -0.3514  0.1974
 7895TIP3    H145100   4.789   4.503   0.642 -0.2758 -1.1859 -0.6136
 7895TIP3    H245101   4.858   4.632   0.682 -2.0225 -0.4684  0.1099
 7896TIP3   OH245102   4.251   2.919  14.312  0.3854 -0.4975 -0.1142
 7896TIP3    H145103   4.250   2.832  14.271 -1.2467 -0.6580  0.2206
 7896TIP3    H245104   4.228   2.978  14.241 -3.1760 -0.8504  0.6567
 7897TIP3   OH245105   7.053   1.785  15.727 -0.3081 -0.4302 -0.1808
 7897TIP3    H145106   6.997   1.860  15.748 -0.5150 -0.6154 -0.0643
 7897TIP3    H245107   7.057   1.785  15.631 -0.3415 -0.2957 -0.1839
 7898TIP3   OH245108   4.982   2.888  15.919  0.0530 -0.6621  0.2741
 7898TIP3    H145109   4.959   2.904  15.827  0.5338  0.0851  0.2845
 7898TIP3    H245110   4.984   2.792  15.926  1.3215 -0.7299 -0.8278
 7899TIP3   OH245111   7.143   3.491  15.451  0.1810 -0.5621  0.2710
 7899TIP3    H145112   7.180   3.423  15.507  0.0102  0.7980  2.0851
 7899TIP3    H245113   7.079   3.536  15.507 -2.7444 -1.5227 -2.1328
 7900TIP3   OH245114   6.918   2.997  14.268 -0.3104 -0.1925  0.1766
 7900TIP3    H145115   6.836   3.018  14.223 -0.6964 -1.3158  0.3442
 7900TIP3    H245116   6.908   2.905  14.295  0.7976 -0.1856  0.6367
 7901TIP3   OH245117   6.724   3.490  15.850 -0.1742  0.0797  0.0356
 7901TIP3    H145118   6.715   3.399  15.823 -0.8989  0.4215 -0.8977
 7901TIP3    H245119   6.747   3.537  15.770  2.2840  0.4297  0.8914
 7902TIP3   OH245120   0.140   5.548  12.861  0.0668 -0.1997 -0.2478
 7902TIP3    H145121   0.156   5.631  12.905 -0.8337  0.7367 -1.6377
 7902TIP3    H245122   0.214   5.493  12.885  1.3993  1.4814 -0.4444
 7903TIP3   OH245123   7.237   3.674  14.611  0.3392 -0.2046  0.5805
 7903TIP3    H145124   7.228   3.754  14.663  2.3877  0.7251 -0.4177
 7903TIP3    H245125   7.315   3.690  14.558  1.8885 -3.6019  1.6958
 7904TIP3   OH245126   2.226   3.651  15.912 -0.7869 -0.0605  0.6585
 7904TIP3    H145127   2.199   3.560  15.895  0.7761 -1.0196  2.9270
 7904TIP3    H245128   2.215   3.661  16.007  0.0801  1.7657  0.5764
 7905TIP3   OH245129   6.000   1.269  14.704  0.1832  0.6883 -0.0857
 7905TIP3    H145130   5.939   1.338  14.732 -1.1042  0.3732 -2.0078
 7905TIP3    H245131   6.075   1.278  14.763 -0.8383  2.4153  1.0014
 7906TIP3   OH245132   6.173   1.253  15.808  0.0277  0.2678  0.3790
 7906TIP3    H145133   6.216   1.337  15.825 -0.9624  1.1698 -1.4588
 7906TIP3    H245134   6.231   1.209  15.745 -0.7137  0.6307 -0.5600
 7907TIP3   OH245135   5.732   6.880   1.587  0.3214 -0.0650  0.3383
 7907TIP3    H145136   5.809   6.935   1.568 -0.0576  0.4637  0.3139
 7907TIP3    H245137   5.696   6.858   1.501  0.8931 -0.9716  0.3189
 7908TIP3   OH245138   2.125   2.929   0.626 -0.1594 -0.2120  0.8702
 7908TIP3    H145139   2.095   2.927   0.716  0.1601 -1.0137  0.9623
 7908TIP3    H245140   2.058   2.979   0.579 -0.5214 -0.1318  1.4787
 7909TIP3   OH245141   5.332   2.572  13.188  0.1382  0.0595  0.3674
 7909TIP3    H145142   5.383   2.550  13.110  0.7005  3.7326 -0.3647
 7909TIP3    H245143   5.246   2.534  13.172 -0.1350  1.8365 -2.6507
 7910TIP3   OH245144   5.876   7.075  13.822 -0.3383  0.1267 -0.3495
 7910TIP3    H145145   5.845   7.100  13.734  0.8225 -1.3635 -1.2086
 7910TIP3    H245146   5.796   7.049  13.868 -0.7385 -1.0276 -1.6377
 7911TIP3   OH245147   0.691   4.818  14.292  0.7581  0.3371  0.4695
 7911TIP3    H145148   0.676   4.728  14.322  0.0379  0.6021  0.9140
 7911TIP3    H245149   0.736   4.807  14.208 -0.2559 -0.4648  0.0098
 7912TIP3   OH245150   0.761   1.878  11.279  0.0668 -0.2072  0.0201
 7912TIP3    H145151   0.808   1.894  11.362 -0.1059 -0.0649  0.0913
 7912TIP3    H245152   0.730   1.788  11.286 -0.3439 -0.0461  0.3084
 7913TIP3   OH245153   7.171   1.881   1.831 -0.2502 -0.1684  0.4050
 7913TIP3    H145154   7.192   1.961   1.879 -0.8662  1.9383 -2.6779
 7913TIP3    H245155   7.087   1.853   1.867  0.0695  0.4423  1.6599
 7914TIP3   OH245156   7.088   2.877  13.036  0.7496  0.8525 -0.3328
 7914TIP3    H145157   7.075   2.799  13.089  0.8617  0.0651 -1.4379
 7914TIP3    H245158   7.177   2.869  13.002 -0.7623 -0.8841 -4.1493
 7915TIP3   OH245159   5.506   3.514  14.289  0.5762  0.2965  0.2563
 7915TIP3    H145160   5.422   3.559  14.277 -0.7079 -1.4701  2.1471
 7915TIP3    H245161   5.486   3.443  14.350  3.4185 -0.3179  0.5357
 7916TIP3   OH245162   0.312   3.400  14.417  0.2244 -0.0229 -0.1059
 7916TIP3    H145163   0.348   3.464  14.356  0.8741 -0.5106 -0.2469
 7916TIP3    H245164   0.341   3.430  14.503  1.3803 -0.6518 -0.2538
 7917TIP3   OH245165   5.250   3.530  12.777  0.6266 -0.3450  0.1699
 7917TIP3    H145166   5.290   3.617  12.771 -0.0006 -0.0261  0.6024
 7917TIP3    H245167   5.316   3.472  12.738  0.1753  0.5762 -2.0609
 7918TIP3   OH245168   6.810   3.257  13.408  0.1763  0.3620  0.5392
 7918TIP3    H145169   6.828   3.168  13.376 -0.6557 -0.0716  1.2501
 7918TIP3    H245170   6.873   3.271  13.479  0.3416  0.3606  0.3928
 7919TIP3   OH245171   6.256   3.331  15.674  0.2567  0.3900 -0.2785
 7919TIP3    H145172   6.210   3.400  15.626 -0.3472 -0.3141 -0.7318
 7919TIP3    H245173   6.288   3.373  15.754  0.7593  1.4298 -1.0287
 7920TIP3   OH245174   0.642   2.024   0.626  0.9513  0.1708 -0.2711
 7920TIP3    H145175   0.572   1.960   0.619  1.2837 -0.3430  0.9686
 7920TIP3    H245176   0.694   2.012   0.546  0.8411 -0.8884 -0.1894
 7921TIP3   OH245177   5.447   3.268   0.254  0.2613 -0.2149  0.1178
 7921TIP3    H145178   5.360   3.242   0.225  1.5834 -3.4538 -1.2167
 7921TIP3    H245179   5.438   3.282   0.348 -1.4122 -1.8726  0.2313
 7922TIP3   OH245180   4.663   1.968  13.458  0.0597  0.3285 -0.5622
 7922TIP3    H145181   4.682   1.876  13.442 -3.6198 -0.2435 -2.0584
 7922TIP3    H245182   4.647   1.973  13.552 -0.4918 -0.7252 -0.5902
 7923TIP3   OH245183   4.060   1.052  13.928 -0.2878  0.3702  0.0838
 7923TIP3    H145184   4.058   1.113  13.854  0.2300 -0.6817 -0.8097
 7923TIP3    H245185   4.042   1.107  14.004  1.8598  1.9736 -0.4919
 7924TIP3   OH245186   5.078   3.601  13.129 -0.7247  0.3395  0.1420
 7924TIP3    H145187   5.042   3.540  13.064 -0.8292 -0.5428  1.0217
 7924TIP3    H245188   5.070   3.687  13.087 -1.8163 -0.0913 -0.5656
 7925TIP3   OH245189   5.465   0.000  12.854  0.1244  0.7043 -0.0545
 7925TIP3    H145190   5.506   0.031  12.935 -0.3694 -0.8312  0.8025
 7925TIP3    H245191   5.381  -0.036  12.882 -1.4283  2.9221 -1.6648
 7926TIP3   OH245192   6.941   4.241  13.269  0.5273 -0.4517 -0.2222
 7926TIP3    H145193   6.882   4.317  13.263 -0.4040 -1.0435  1.2417
 7926TIP3    H245194   6.883   4.166  13.274  1.3750 -0.9940  2.0809
 7927TIP3   OH245195   5.413   4.056   0.571 -0.3257  0.2198  0.2951
 7927TIP3    H145196   5.349   4.119   0.604  0.5027  1.6972 -0.8734
 7927TIP3    H245197   5.484   4.060   0.635 -0.5675 -0.0155  0.5780
 7928TIP3   OH245198   0.007   3.141  13.956 -0.6146  0.0060  0.2709
 7928TIP3    H145199  -0.075   3.139  14.005 -1.6713  0.4071 -1.4109
 7928TIP3    H245200  -0.005   3.073  13.888 -0.2020  1.1363 -0.9479
 7929TIP3   OH245201   5.069   2.091  14.416  0.6942  0.4109  0.0346
 7929TIP3    H145202   5.132   2.041  14.469  0.8329  0.0001 -0.5102
 7929TIP3    H245203   5.022   2.025  14.367 -0.6693  0.6718  0.9685
 7930TIP3   OH245204   0.114   3.657  15.594 -0.1896 -0.1859 -0.3857
 7930TIP3    H145205   0.078   3.569  15.608  1.6910 -1.2455 -1.9610
 7930TIP3    H245206   0.200   3.655  15.637  0.7889  0.1674 -2.2877
 7931TIP3   OH245207   7.146   2.866   0.086  0.1524  0.6116  0.8155
 7931TIP3    H145208   7.177   2.796   0.143  2.6301 -0.1534 -1.3801
 7931TIP3    H245209   7.057   2.840   0.062 -0.2387  0.0405  2.8387
 7932TIP3   OH245210   4.381   2.224  14.366 -0.5079  0.3393  0.1222
 7932TIP3    H145211   4.466   2.268  14.375 -0.3930  0.0634  0.3647
 7932TIP3    H245212   4.322   2.276  14.420 -0.1369 -0.4452  1.2859
 7933TIP3   OH245213   6.336   2.514  15.844 -0.4569  0.4642  0.1058
 7933TIP3    H145214   6.281   2.586  15.812  0.0152  0.9835  0.4594
 7933TIP3    H245215   6.305   2.498  15.933 -2.8477 -2.0438 -1.0759
 7934TIP3   OH245216   6.050   2.248   1.453 -0.0085 -0.3397 -0.1829
 7934TIP3    H145217   5.978   2.283   1.400  0.6113  0.3876 -0.5518
 7934TIP3    H245218   6.113   2.214   1.389 -0.0696 -1.0593  0.1406
 7935TIP3   OH245219   5.794   1.874  11.157  0.3486 -0.1817 -0.7907
 7935TIP3    H145220   5.801   1.820  11.078  2.0477 -2.7932  1.0646
 7935TIP3    H245221   5.704   1.861  11.187  0.8679 -2.3703 -0.1208
 7936TIP3   OH245222   0.039   1.149  15.030 -0.3955 -0.3990 -0.0604
 7936TIP3    H145223   0.087   1.141  14.947 -1.1765  0.1972 -0.5681
 7936TIP3    H245224   0.094   1.204  15.085 -0.2563 -0.1402 -0.4612
 7937TIP3   OH245225   6.701   3.506  14.310  0.0747  0.4050 -0.0269
 7937TIP3    H145226   6.790   3.525  14.341 -0.4148  0.5643  1.3065
 7937TIP3    H245227   6.710   3.424  14.262  0.6820 -0.3992  1.4203
 7938TIP3   OH245228   6.675   3.611   1.156  0.0061  0.0536  0.3413
 7938TIP3    H145229   6.599   3.662   1.128  0.5967  0.0987 -1.2161
 7938TIP3    H245230   6.652   3.579   1.244 -1.4498  0.7806  0.2273
 7939TIP3   OH245231   7.120   2.936   1.005  0.0161  0.2167  0.4591
 7939TIP3    H145232   7.033   2.943   0.966  0.4388  0.7165 -0.3997
 7939TIP3    H245233   7.127   3.012   1.062 -0.1267  0.1490  0.5679
 7940TIP3   OH245234   5.463   4.459   0.642 -0.1109  0.3521 -0.3140
 7940TIP3    H145235   5.523   4.412   0.584 -0.1437  1.4395 -1.2329
 7940TIP3    H245236   5.405   4.508   0.583 -1.2741  0.0825  0.5881
 7941TIP3   OH245237   6.125   4.597  15.559 -0.1688  0.0833  0.1283
 7941TIP3    H145238   6.128   4.529  15.627 -0.9729 -0.1667 -0.0818
 7941TIP3    H245239   6.077   4.669  15.598  1.4100  0.8830  0.6481
 7942TIP3   OH245240   1.865   2.690  14.212  0.6728 -0.3429  0.1149
 7942TIP3    H145241   1.788   2.646  14.175 -0.5350  1.1985  0.6889
 7942TIP3    H245242   1.886   2.640  14.291 -0.1388 -0.4229  0.2898
 7943TIP3   OH245243   6.144   2.902  12.517  0.2597  0.5703 -1.0580
 7943TIP3    H145244   6.142   2.977  12.576  0.1577  1.2345 -1.8975
 7943TIP3    H245245   6.218   2.849  12.548 -0.1193  0.6311 -0.0091
 7944TIP3   OH245246   5.984   0.651  15.477  0.5179 -0.3815 -0.2911
 7944TIP3    H145247   6.077   0.669  15.485  0.4467  0.4650 -1.2448
 7944TIP3    H245248   5.948   0.668  15.564  0.9734  0.9966 -0.3651
 7945TIP3   OH245249   6.214   2.197   0.917 -0.2979 -0.0248  0.2103
 7945TIP3    H145250   6.154   2.262   0.879 -0.9812 -0.4382  0.5770
 7945TIP3    H245251   6.301   2.238   0.910 -0.9062  1.6365  1.9522
 7946TIP3   OH245252   1.117   2.936  12.949  0.6113 -0.1115 -0.1298
 7946TIP3    H145253   1.069   2.853  12.946 -0.9316  0.7702 -1.0373
 7946TIP3    H245254   1.102   2.969  13.038  0.0225 -0.1400 -0.2134
 7947TIP3   OH245255   5.118   2.123  12.584  0.4678  0.4055 -0.4449
 7947TIP3    H145256   5.079   2.197  12.538 -0.6826 -0.4513 -0.8820
 7947TIP3    H245257   5.070   2.118  12.667 -0.7011 -0.9140 -1.1669
 7948TIP3   OH245258   6.478   3.275  14.576 -0.0542  0.1351  0.5319
 7948TIP3    H145259   6.569   3.275  14.545  0.5176  0.2445  2.1660
 7948TIP3    H245260   6.457   3.182  14.586 -0.6507  0.0595 -1.3317
 7949TIP3   OH245261   5.848   2.301  14.724  0.0337 -0.2688 -0.1581
 7949TIP3    H145262   5.931   2.321  14.681  0.3141 -0.9838  0.0289
 7949TIP3    H245263   5.866   2.313  14.817 -0.6065  1.3999 -0.2345
 7950TIP3   OH245264   5.049   2.065  13.437 -0.4012  0.2952  0.3389
 7950TIP3    H145265   5.000   1.986  13.414 -1.5102  0.9152  0.5031
 7950TIP3    H245266   5.047   2.066  13.533 -1.4807  1.1678  0.3214
 7951TIP3   OH245267   5.643   2.983  14.922  0.1277 -0.1651 -0.2979
 7951TIP3    H145268   5.695   3.009  14.846 -0.8468  1.2185 -0.5017
 7951TIP3    H245269   5.614   2.894  14.902  1.5133 -0.5545 -0.6530
 7952TIP3   OH245270   6.020   1.947   0.528 -0.1257 -0.2370 -0.0600
 7952TIP3    H145271   6.016   1.852   0.535  0.2201 -0.1082  2.6172
 7952TIP3    H245272   6.066   1.974   0.608 -2.1261  2.3092  0.2762
 7953TIP3   OH245273   6.293   3.076  13.895 -0.1803 -0.4420  0.1999
 7953TIP3    H145274   6.287   3.127  13.976  1.1475  0.5944 -0.3413
 7953TIP3    H245275   6.319   3.140  13.828  0.1967 -1.5752 -0.7506
 7954TIP3   OH245276   5.196   2.060  11.412  0.4872 -0.1512  0.0629
 7954TIP3    H145277   5.217   2.144  11.372  0.8342  0.1776  0.9274
 7954TIP3    H245278   5.274   2.037  11.462 -0.3562 -0.0184  1.4642
 7955TIP3   OH245279   6.227   3.039  13.092 -0.0501 -0.7626 -0.0327
 7955TIP3    H145280   6.220   2.994  13.008  0.6806 -0.2505 -0.3789
 7955TIP3    H245281   6.246   3.130  13.069 -0.3476 -0.5163  0.6787
 7956TIP3   OH245282   5.419   2.922  13.433  0.3093  0.1817 -0.0671
 7956TIP3    H145283   5.418   2.827  13.440 -1.0152  0.0371 -1.9710
 7956TIP3    H245284   5.500   2.948  13.477  0.8840 -1.8406  0.1264
 7957TIP3   OH245285   5.185   2.291  15.289 -0.3066 -0.0882  0.7027
 7957TIP3    H145286   5.207   2.358  15.354 -0.1541  0.2001  0.3593
 7957TIP3    H245287   5.261   2.234  15.285 -0.0911  0.2198  0.3740
 7958TIP3   OH245288   0.813   1.704  12.672  0.2836 -0.5383 -0.4492
 7958TIP3    H145289   0.796   1.713  12.766 -1.2455 -0.7709 -0.6983
 7958TIP3    H245290   0.745   1.646  12.640  0.1014  0.4505 -1.9226
 7959TIP3   OH245291   6.018   2.578  15.999 -0.0358 -0.1082  0.1469
 7959TIP3    H145292   6.074   2.597  16.074 -1.9181 -2.1322  2.1612
 7959TIP3    H245293   5.946   2.642  16.007  0.8763  1.1176 -1.2332
 7960TIP3   OH245294   5.407   2.182   0.761 -0.1850 -0.2373 -0.3414
 7960TIP3    H145295   5.327   2.170   0.710 -0.3764 -1.0723  0.1375
 7960TIP3    H245296   5.433   2.093   0.786  0.9357  0.0148 -0.5557
 7961TIP3   OH245297   7.101   1.705  12.721 -0.5218  0.0180 -0.7231
 7961TIP3    H145298   7.125   1.797  12.707  0.5520 -0.2806 -0.8846
 7961TIP3    H245299   7.132   1.660  12.642  1.1777 -0.8803  0.4263
 7962TIP3   OH245300   5.540   5.021  13.653 -0.1489  0.0907  0.6774
 7962TIP3    H145301   5.604   5.026  13.581 -1.2988 -1.4992 -0.4778
 7962TIP3    H245302   5.584   5.063  13.727  2.1844 -0.8489 -0.1370
 7963TIP3   OH245303   6.741   0.565  14.256  0.0247 -0.1341 -0.8262
 7963TIP3    H145304   6.682   0.500  14.294 -0.5294  0.0132 -1.4265
 7963TIP3    H245305   6.756   0.535  14.166  1.7508 -0.7647 -0.3463
 7964TIP3   OH245306   6.924   1.877  14.462  0.0885 -0.2327 -0.3126
 7964TIP3    H145307   6.896   1.840  14.378  1.0048 -0.1571 -0.6622
 7964TIP3    H245308   6.858   1.944  14.481 -0.3219 -0.4909 -0.7940
 7965TIP3   OH245309   6.686   1.245  15.023  0.0136  0.1599  0.4301
 7965TIP3    H145310   6.740   1.233  14.945 -2.9717 -0.0567 -1.6515
 7965TIP3    H245311   6.632   1.167  15.028 -0.2594  0.4394  2.4156
 7966TIP3   OH245312   5.940   4.149  15.807 -0.7221  0.0065 -0.2116
 7966TIP3    H145313   5.947   4.146  15.712 -1.6275  0.3483 -0.2966
 7966TIP3    H245314   5.975   4.234  15.831  1.7757 -1.0465 -0.0137
 7967TIP3   OH245315   3.655   1.168  13.467  0.3967 -0.7881  0.2231
 7967TIP3    H145316   3.667   1.075  13.449 -3.1355 -1.2632 -0.0696
 7967TIP3    H245317   3.621   1.204  13.385  2.7658  1.0243 -0.0075
 7968TIP3   OH245318   7.187   4.313  14.271 -0.3687  0.2153  0.2685
 7968TIP3    H145319   7.233   4.321  14.355  0.6213  3.4022 -0.5035
 7968TIP3    H245320   7.102   4.354  14.287 -1.3321 -1.7791  0.4689
 7969TIP3   OH245321   5.942   3.388  11.725  0.1739  0.1911  0.4500
 7969TIP3    H145322   6.031   3.422  11.713  0.3803  0.2015  1.8956
 7969TIP3    H245323   5.936   3.315  11.663  1.1912  0.1896  0.3335
 7970TIP3   OH245324   7.194   2.340   0.016 -0.5221 -0.3087  0.0290
 7970TIP3    H145325   7.117   2.317   0.067 -1.7485  1.0220 -1.1783
 7970TIP3    H245326   7.173   2.425  -0.023  1.1062 -0.4385 -1.1957
 7971TIP3   OH245327   1.707   4.634   1.155 -0.4021 -0.1271  0.1660
 7971TIP3    H145328   1.640   4.697   1.181 -0.5216  0.5175 -1.6169
 7971TIP3    H245329   1.696   4.625   1.060  2.1750  0.1441 -0.1892
 7972TIP3   OH245330   5.401   4.803  15.271 -0.1984 -0.2478  0.1538
 7972TIP3    H145331   5.322   4.771  15.315  0.1260 -1.2158  0.0594
 7972TIP3    H245332   5.369   4.842  15.190 -0.6704  0.2643  0.5858
 7973TIP3   OH245333   7.131   3.608  13.710  0.2718  0.1353  0.0954
 7973TIP3    H145334   7.143   3.702  13.723 -1.7522  0.3279  0.6770
 7973TIP3    H245335   7.129   3.571  13.798  1.7935 -0.5717 -0.1466
 7974TIP3   OH245336   4.729   5.038  15.728 -0.2106 -0.3391  0.1185
 7974TIP3    H145337   4.748   5.112  15.785 -0.4584 -0.8371  0.8514
 7974TIP3    H245338   4.810   5.023  15.679 -0.3159  0.7190 -0.3849
 7975TIP3   OH245339   1.539   1.423  14.851  0.0803  0.0868 -0.4558
 7975TIP3    H145340   1.625   1.450  14.816 -1.2368  0.1854 -3.7687
 7975TIP3    H245341   1.505   1.503  14.891  1.1989  0.2628  0.1791
 7976TIP3   OH245342   6.716   4.748   0.687 -0.1009  0.5191  0.9715
 7976TIP3    H145343   6.782   4.814   0.707 -0.0023  0.4160  0.9873
 7976TIP3    H245344   6.765   4.667   0.679 -0.2015  0.4771  0.7840
 7977TIP3   OH245345   4.565   2.542  11.374  0.8534 -0.9996  0.0559
 7977TIP3    H145346   4.536   2.490  11.299  0.0637  0.1733 -0.4652
 7977TIP3    H245347   4.518   2.624  11.366  4.0262  0.8590 -0.6531
 7978TIP3   OH245348   5.447   0.687  15.764 -0.7095 -0.4478 -0.0129
 7978TIP3    H145349   5.481   0.759  15.712 -0.5345  0.9560  1.9874
 7978TIP3    H245350   5.353   0.705  15.773 -0.5746 -0.1809  0.9226
 7979TIP3   OH245351   5.877   3.913  12.684 -0.0761 -0.3847 -0.3573
 7979TIP3    H145352   5.854   3.928  12.592 -0.7519  0.2337 -0.0964
 7979TIP3    H245353   5.949   3.851  12.681  0.4634  0.2749 -1.3373
 7980TIP3   OH245354   0.571   1.417   1.462 -0.2684  0.1210 -0.6359
 7980TIP3    H145355   0.509   1.478   1.502 -0.4496 -1.5805  1.8204
 7980TIP3    H245356   0.517   1.352   1.418 -0.1989 -0.3737 -0.0017
 7981TIP3   OH245357   5.134   3.699   1.530 -0.1125 -0.2374  0.7579
 7981TIP3    H145358   5.074   3.705   1.456  1.7002  2.0741 -0.5916
 7981TIP3    H245359   5.207   3.647   1.497  0.4713  0.3755  1.0750
 7982TIP3   OH245360   5.100   6.201   0.130 -0.0416  0.0154  0.4771
 7982TIP3    H145361   5.028   6.169   0.075  1.0986 -1.6990 -0.0623
 7982TIP3    H245362   5.108   6.294   0.108 -0.7159 -0.2714 -1.0061
 7983TIP3   OH245363   6.047   2.955  14.311 -0.8056  0.1376 -0.2882
 7983TIP3    H145364   5.978   3.004  14.355 -2.3545  0.0951 -2.5627
 7983TIP3    H245365   6.031   2.863  14.335  0.1283  0.3767  1.3454
 7984TIP3   OH245366   7.017   3.803  14.750 -0.6841 -0.9782 -0.0754
 7984TIP3    H145367   6.997   3.710  14.761  0.0815 -1.4864 -2.7694
 7984TIP3    H245368   6.961   3.832  14.678 -1.6270  0.9245  1.3613
 7985TIP3   OH245369   6.561   0.781   0.253 -0.0678  0.0251 -0.2527
 7985TIP3    H145370   6.591   0.872   0.246  0.1748 -0.0625 -0.3728
 7985TIP3    H245371   6.546   0.768   0.347  0.5333 -0.0099 -0.1591
 7986TIP3   OH245372   4.489   2.011   2.596 -0.5538 -0.1358  0.2680
 7986TIP3    H145373   4.579   2.000   2.565 -0.6893  4.3644 -2.1857
 7986TIP3    H245374   4.436   2.006   2.516 -2.0276  1.4928  1.1138
 7987TIP3   OH245375   1.000   2.328  13.547 -0.5965  0.5160 -0.1209
 7987TIP3    H145376   1.021   2.278  13.467  0.0611 -0.1263  0.4460
 7987TIP3    H245377   0.941   2.397  13.517 -1.6615 -0.7072 -0.8942
 7988TIP3   OH245378   5.628   1.341  14.308  0.2371 -0.2071 -0.0803
 7988TIP3    H145379   5.711   1.356  14.263  0.0225  1.5347  0.0518
 7988TIP3    H245380   5.646   1.272  14.371  1.3493 -0.4494 -0.6514
 7989TIP3   OH245381   7.035   1.867   0.079 -0.4267 -0.2225  0.2060
 7989TIP3    H145382   7.050   1.945   0.025 -1.0982 -0.5790 -0.5066
 7989TIP3    H245383   7.088   1.799   0.037 -2.7198 -1.0894 -1.3907
 7990TIP3   OH245384   7.099   2.155   0.878 -0.0129  0.4956  0.6635
 7990TIP3    H145385   7.096   2.059   0.885  0.7676  0.4504  0.3825
 7990TIP3    H245386   7.062   2.186   0.960  0.0802 -0.0458  0.9135
 7991TIP3   OH245387   5.148   2.363  15.871 -0.1181  0.2872 -0.5922
 7991TIP3    H145388   5.231   2.384  15.915  0.0443 -0.6117 -0.4634
 7991TIP3    H245389   5.145   2.268  15.870 -2.1774  0.3190  1.3116
 7992TIP3   OH245390   6.477   2.661  13.451  0.3657 -0.1854 -0.8974
 7992TIP3    H145391   6.479   2.729  13.518  0.1892 -0.7171 -0.3439
 7992TIP3    H245392   6.471   2.708  13.368  0.7557  0.4840 -0.5491
 7993TIP3   OH245393   6.470   0.812   0.971  0.4002 -0.7553 -0.3726
 7993TIP3    H145394   6.560   0.843   0.962 -0.0155  0.5857 -0.0269
 7993TIP3    H245395   6.418   0.874   0.920 -0.4614 -0.8043  0.4221
 7994TIP3   OH245396   7.011   3.899   0.380 -0.0428  0.5787 -0.6298
 7994TIP3    H145397   7.069   3.837   0.336 -1.3448 -0.4241 -0.9864
 7994TIP3    H245398   7.060   3.928   0.457 -0.1208 -2.4086  0.6294
 7995TIP3   OH245399   6.822   4.105   0.344 -0.0341 -0.2585  0.7659
 7995TIP3    H145400   6.880   4.030   0.358  0.0390 -0.5594 -1.0331
 7995TIP3    H245401   6.740   4.080   0.386 -0.2618 -1.6814 -0.4954
 7996TIP3   OH245402   5.754   1.715  14.158 -0.3086 -0.4241  0.1664
 7996TIP3    H145403   5.824   1.754  14.106  0.0101 -1.9067 -0.5401
 7996TIP3    H245404   5.746   1.772  14.235  0.8922  0.3870 -0.3063
 7997TIP3   OH245405   6.614   2.963   0.212 -0.4165  0.6384  0.4425
 7997TIP3    H145406   6.707   2.958   0.190 -0.7050 -0.6912 -0.5551
 7997TIP3    H245407   6.611   3.004   0.298  1.1473 -0.1974  0.9085
 7998TIP3   OH245408   4.670   2.806  15.629 -0.4778 -0.0245  0.1277
 7998TIP3    H145409   4.700   2.716  15.632  0.9335  0.3790 -1.2479
 7998TIP3    H245410   4.588   2.803  15.578  0.2351 -0.3731 -1.0215
 7999TIP3   OH245411   6.827   3.544  10.946  0.3905 -0.2579 -0.0469
 7999TIP3    H145412   6.845   3.453  10.969  0.4805  0.0631  1.2093
 7999TIP3    H245413   6.853   3.594  11.023  0.2749  0.8328 -0.6960
 8000TIP3   OH245414   6.103   3.276  13.346 -0.3960  0.4736 -0.6152
 8000TIP3    H145415   6.190   3.265  13.385 -0.4442  1.0179 -0.3420
 8000TIP3    H245416   6.053   3.324  13.412 -0.5400  1.2296 -1.2664
 8001TIP3   OH245417   6.538   4.730  15.270  0.1470  0.4837 -0.1324
 8001TIP3    H145418   6.514   4.821  15.285 -0.7898  0.2387 -0.0894
 8001TIP3    H245419   6.474   4.680  15.320  1.0812 -0.1878  0.4131
 8002TIP3   OH245420   4.802   4.341  15.250  0.0208  0.3583 -0.7487
 8002TIP3    H145421   4.896   4.321  15.259  0.0748  0.2959 -1.3950
 8002TIP3    H245422   4.767   4.330  15.338  0.5543  0.0070 -0.5739
 8003TIP3   OH245423   6.120   3.797  14.396  0.3700  0.0923 -0.4095
 8003TIP3    H145424   6.163   3.881  14.412 -1.5791  1.1531 -0.5867
 8003TIP3    H245425   6.073   3.810  14.313  1.4860 -1.7745 -1.3802
 8004TIP3   OH245426   7.177   2.610  15.266 -0.3475  0.4392 -0.5680
 8004TIP3    H145427   7.141   2.652  15.189 -0.0971 -0.9458 -1.4585
 8004TIP3    H245428   7.113   2.543  15.289 -0.3510  0.7485  0.3391
 8005TIP3   OH245429   7.032   3.252  13.614  0.2925  0.4186  0.0055
 8005TIP3    H145430   7.085   3.302  13.552  0.2381 -1.0276 -1.2356
 8005TIP3    H245431   7.080   3.171  13.627  0.2794  0.6906  1.8464
 8006TIP3   OH245432   1.271   2.209  15.912 -0.0473  0.5334 -0.1326
 8006TIP3    H145433   1.299   2.120  15.933 -0.8707  0.4196  0.5495
 8006TIP3    H245434   1.280   2.217  15.817  0.2733 -0.1911 -0.1594
 8007TIP3   OH245435   5.587   2.769  11.449 -0.0975 -0.1137 -0.2121
 8007TIP3    H145436   5.621   2.693  11.403 -1.5034 -1.1368  0.4172
 8007TIP3    H245437   5.495   2.775  11.422 -0.0477  1.2395 -0.1193
 8008TIP3   OH245438   6.313   1.609  14.451  0.1177 -0.2522  0.1509
 8008TIP3    H145439   6.280   1.685  14.402  0.3531 -0.0871  0.2466
 8008TIP3    H245440   6.323   1.540  14.385  0.7615  0.0724 -0.0967
 8009TIP3   OH245441   6.172   3.132  15.305  0.6493  0.6313  0.2045
 8009TIP3    H145442   6.109   3.112  15.374 -1.9637  0.9964 -1.9733
 8009TIP3    H245443   6.203   3.220  15.327  1.5866 -0.1605  2.1425
 8010TIP3   OH245444   6.218   2.104  13.953  0.3310  0.2289 -0.2610
 8010TIP3    H145445   6.251   2.180  13.905  1.9526  0.6489  1.4662
 8010TIP3    H245446   6.251   2.028  13.905 -0.5700  0.6184 -1.5025
 8011TIP3   OH245447   7.168   3.715   1.997 -0.0724  0.3682  0.9317
 8011TIP3    H145448   7.244   3.730   2.053  0.1328 -0.0449  0.7637
 8011TIP3    H245449   7.101   3.774   2.031  0.4821  1.0984  0.7635
 8012TIP3   OH245450   6.689   2.056  12.024 -0.3636 -0.0438 -0.3208
 8012TIP3    H145451   6.675   2.031  12.116 -2.2605  0.9438 -0.3284
 8012TIP3    H245452   6.622   2.008  11.976  1.2178 -1.2931 -1.3465
 8013TIP3   OH245453   6.101   0.873  15.305 -0.5553 -0.3973  0.6943
 8013TIP3    H145454   6.110   0.850  15.397 -1.8933 -2.4997  0.3324
 8013TIP3    H245455   6.165   0.818  15.260  0.6065  1.1444  0.4208
 8014TIP3   OH245456   5.123   0.855  14.192 -0.2764  0.4869  0.4578
 8014TIP3    H145457   5.202   0.815  14.155 -1.2201 -2.2633  1.2414
 8014TIP3    H245458   5.153   0.901  14.270  0.6821  0.2478  0.2336
 8015TIP3   OH245459   0.481   3.091  11.722 -0.8145 -0.8402  0.3491
 8015TIP3    H145460   0.458   3.088  11.815 -1.5588 -1.4767  0.1482
 8015TIP3    H245461   0.427   3.161  11.686 -0.2735 -0.3619  0.4605
 8016TIP3   OH245462   5.795   2.383  13.567  0.3921 -0.3605 -0.0045
 8016TIP3    H145463   5.770   2.321  13.498  0.0561 -1.7208  1.3190
 8016TIP3    H245464   5.813   2.465  13.520 -0.2191 -1.1515 -1.6597
 8017TIP3   OH245465   5.209   3.072  14.344 -0.1541 -0.8260 -0.3500
 8017TIP3    H145466   5.304   3.071  14.330  0.0879  2.1174  0.7372
 8017TIP3    H245467   5.198   3.077  14.439 -1.3479 -0.1075 -0.5087
 8018TIP3   OH245468   7.268   3.209   0.778  0.0001 -0.0429  0.2714
 8018TIP3    H145469   7.335   3.171   0.720 -0.7019 -0.4944 -0.2587
 8018TIP3    H245470   7.225   3.274   0.723  0.5821  0.8698  0.8905
 8019TIP3   OH245471   7.303   2.934   0.375 -0.1196 -0.1713  0.5131
 8019TIP3    H145472   7.377   2.990   0.351 -0.4471  0.7382  1.5695
 8019TIP3    H245473   7.253   2.926   0.294  2.4935 -3.0127 -0.9311
 8020TIP3   OH245474   5.977   1.269   0.406  0.3624  0.3662 -0.0666
 8020TIP3    H145475   5.884   1.248   0.397 -0.3079  2.5636  1.2074
 8020TIP3    H245476   6.009   1.273   0.316 -1.0002  0.4326 -0.5724
 8021TIP3   OH245477   0.691   7.073   0.919 -0.4259 -0.1130  0.4720
 8021TIP3    H145478   0.707   6.995   0.865 -1.6481 -0.6254  0.8380
 8021TIP3    H245479   0.607   7.056   0.962 -0.3838  1.1231  1.0684
 8022TIP3   OH245480   5.975   6.100  15.092 -0.5651 -0.1499 -0.3790
 8022TIP3    H145481   5.916   6.116  15.166 -0.2274 -2.2501  0.3753
 8022TIP3    H245482   5.916   6.090  15.017 -1.1561 -1.6270  0.2644
 8023TIP3   OH245483   6.751   3.989  14.274 -0.2314  0.2840  0.5057
 8023TIP3    H145484   6.747   3.985  14.178 -0.0597  0.1463  0.5051
 8023TIP3    H245485   6.707   3.909  14.304 -0.7769  0.5970  0.5502
 8024TIP3   OH245486   5.528   1.794  12.520 -0.5947  0.1845 -0.1954
 8024TIP3    H145487   5.521   1.840  12.603  0.5704  0.5880 -0.3242
 8024TIP3    H245488   5.578   1.715  12.540 -0.0851  0.4119 -0.5680
 8025TIP3   OH245489   6.237   4.492  13.207 -0.2637 -0.0211 -0.0704
 8025TIP3    H145490   6.199   4.457  13.288  1.1809 -0.6134  0.3762
 8025TIP3    H245491   6.316   4.537  13.236 -0.8792  1.6217 -0.9281
 8026TIP3   OH245492   0.688   4.065  15.735  0.0882  0.0551 -0.0429
 8026TIP3    H145493   0.759   4.125  15.711  0.1104  0.1227  0.1941
 8026TIP3    H245494   0.722   3.978  15.714 -0.2650  0.1813 -1.1991
 8027TIP3   OH245495   5.450   3.520  14.606 -0.1891 -0.3091  0.2801
 8027TIP3    H145496   5.431   3.614  14.613 -0.2801 -0.3812  1.0724
 8027TIP3    H245497   5.375   3.484  14.559  0.1128  0.1028 -0.5233
 8028TIP3   OH245498   6.407   4.205  15.242  0.3378 -0.6398  0.8833
 8028TIP3    H145499   6.471   4.275  15.228 -1.3769  0.9274  0.5924
 8028TIP3    H245500   6.447   4.127  15.203  1.1540  0.7984 -1.2779
 8029TIP3   OH245501   6.668   1.127  13.565  0.3112 -0.2062  0.0818
 8029TIP3    H145502   6.746   1.081  13.594  0.0886 -0.9655 -0.5120
 8029TIP3    H245503   6.632   1.073  13.495 -1.9003 -0.9732  1.7357
 8030TIP3   OH245504   1.151   2.160  14.257 -0.2130  0.1431  0.0230
 8030TIP3    H145505   1.112   2.099  14.194  0.1518 -1.2269  1.0932
 8030TIP3    H245506   1.090   2.162  14.330  1.4097 -1.6155  1.4850
 8031TIP3   OH245507   7.066   2.155  12.956 -0.1680 -0.2716 -0.2989
 8031TIP3    H145508   7.110   2.119  13.033 -1.7239  0.6687  1.0600
 8031TIP3    H245509   7.000   2.089  12.933 -1.5028  0.6392  0.8259
 8032TIP3   OH245510   4.866   2.264  14.530  0.0586 -0.2723 -0.1296
 8032TIP3    H145511   4.903   2.253  14.443 -1.8313  0.9248 -1.1016
 8032TIP3    H245512   4.860   2.175  14.566 -0.5927 -0.9184 -1.8129
 8033TIP3   OH245513   6.521   0.216  15.315  0.8478  0.1054 -0.3589
 8033TIP3    H145514   6.541   0.204  15.222  1.4482 -1.3496 -0.0412
 8033TIP3    H245515   6.471   0.298  15.317 -0.3657 -0.5574 -2.1226
 8034TIP3   OH245516   6.271   2.662   0.107 -0.1345  0.4462 -0.2555
 8034TIP3    H145517   6.236   2.729   0.165 -2.4831 -1.3129  0.4252
 8034TIP3    H245518   6.241   2.687   0.020  0.1377  0.9944 -0.1937
 8035TIP3   OH245519   7.034   2.808  12.268 -0.2912  0.2751 -0.9610
 8035TIP3    H145520   6.953   2.762  12.248 -0.4907  0.8307 -1.4792
 8035TIP3    H245521   7.036   2.881  12.205 -0.0093  0.9893 -0.1308
 8036TIP3   OH245522   0.129   3.522  15.107  0.3773  0.2890  0.1074
 8036TIP3    H145523   0.170   3.604  15.081  1.6226 -0.6815 -1.0313
 8036TIP3    H245524   0.041   3.548  15.135 -0.0328  1.7452 -2.3673
 8037TIP3   OH245525   3.696   6.523  14.928 -0.0322  0.1434 -0.1226
 8037TIP3    H145526   3.714   6.430  14.916 -0.5842 -0.2077  1.5853
 8037TIP3    H245527   3.745   6.547  15.007 -0.5070  1.1258 -0.1108
 8038TIP3   OH245528   6.087   1.657   0.435  0.1741  0.3612 -0.2949
 8038TIP3    H145529   6.038   1.616   0.364  0.3756  0.5794 -0.5581
 8038TIP3    H245530   6.088   1.591   0.505 -1.2329  0.6801  0.0376
 8039TIP3   OH245531   5.581   3.785  12.108 -0.1276 -0.1413 -0.1358
 8039TIP3    H145532   5.579   3.815  12.017  0.1089  0.3387  0.0178
 8039TIP3    H245533   5.496   3.809  12.144 -0.7548 -1.5620 -0.6213
 8040TIP3   OH245534   4.937   1.373  14.517  0.5485  0.5340  0.4198
 8040TIP3    H145535   4.908   1.302  14.574  0.3992  0.6446  0.4840
 8040TIP3    H245536   5.000   1.422  14.569  2.6662 -1.0834 -0.5435
 8041TIP3   OH245537   5.537   2.284  13.914  0.0925  0.3085 -0.2562
 8041TIP3    H145538   5.535   2.375  13.942  1.7615  0.6562 -1.1708
 8041TIP3    H245539   5.629   2.267  13.893 -0.6502 -0.7038 -2.9260
 8042TIP3   OH245540   6.744   4.256  14.212 -0.2164 -0.1764 -0.2871
 8042TIP3    H145541   6.757   4.180  14.269 -0.0608 -0.9166 -1.2948
 8042TIP3    H245542   6.735   4.330  14.272  0.4155 -0.8765  0.6818
 8043TIP3   OH245543   1.045   0.846  15.766  0.5484  0.0824 -0.1458
 8043TIP3    H145544   1.024   0.922  15.712 -0.3229 -0.3727 -0.4583
 8043TIP3    H245545   1.115   0.876  15.823  1.7622  0.4372 -1.8084
 8044TIP3   OH245546   6.437   3.862  15.718  0.3268 -0.5028 -0.2669
 8044TIP3    H145547   6.452   3.914  15.797  1.7149  1.4768 -1.7711
 8044TIP3    H245548   6.370   3.911  15.670 -1.1719 -2.1775  0.1040
 8045TIP3   OH245549   4.424   4.937  12.640 -0.0251  0.0185  0.2744
 8045TIP3    H145550   4.484   4.959  12.569 -1.2247  0.8059 -0.5065
 8045TIP3    H245551   4.340   4.920  12.597 -0.6625  0.0790  1.4672
 8046TIP3   OH245552   1.635   4.534  15.122 -0.3353 -0.2522  0.1142
 8046TIP3    H145553   1.554   4.533  15.173 -1.4260 -0.5523 -1.5801
 8046TIP3    H245554   1.627   4.461  15.061  1.0073 -0.0000 -0.3950
 8047TIP3   OH245555   0.516   5.638  13.600 -0.0782 -0.9872  1.0828
 8047TIP3    H145556   0.534   5.672  13.687  0.5785 -0.4160  0.7326
 8047TIP3    H245557   0.577   5.685  13.543  0.2266 -2.0879  0.4639
 8048TIP3   OH245558   4.072   4.607  12.442 -0.2585  0.1676 -0.3516
 8048TIP3    H145559   4.021   4.643  12.370 -3.7666 -2.5741  0.6077
 8048TIP3    H245560   4.143   4.558  12.400 -2.6395 -1.9400 -2.0106
 8049TIP3   OH245561   2.436   3.654  15.086  0.5285  0.4905  0.3151
 8049TIP3    H145562   2.392   3.569  15.078  0.6548  0.2436  1.9942
 8049TIP3    H245563   2.365   3.718  15.081  0.3290  0.2461 -0.0253
 8050TIP3   OH245564   0.712   5.037  15.981  0.6183  0.0775 -0.2143
 8050TIP3    H145565   0.658   5.013  16.056 -2.6838  0.7309 -2.2575
 8050TIP3    H245566   0.742   5.126  16.000 -0.0383  0.1678  0.4260
 8051TIP3   OH245567   6.066   5.808  14.651  0.0793  0.9494  0.2876
 8051TIP3    H145568   6.107   5.846  14.729  0.7912  0.7488  0.0229
 8051TIP3    H245569   6.139   5.765  14.605 -0.3959  0.7747 -0.3082
 8052TIP3   OH245570   2.470   5.721  12.655 -1.0788  0.0315  0.6751
 8052TIP3    H145571   2.424   5.645  12.619 -0.0256 -0.2906 -0.0306
 8052TIP3    H245572   2.562   5.698  12.647 -0.7103  1.8619 -0.6523
 8053TIP3   OH245573   2.509   0.967  13.829  0.1478 -0.3347  0.1693
 8053TIP3    H145574   2.433   0.912  13.809  0.9041 -1.5088  0.5027
 8053TIP3    H245575   2.520   1.022  13.752  0.5039 -1.9401 -0.9442
 8054TIP3   OH245576   2.191   5.049  14.000  0.2131  0.7204  0.3737
 8054TIP3    H145577   2.101   5.021  14.015  0.4733 -0.7431 -0.7367
 8054TIP3    H245578   2.192   5.141  14.027 -1.4861  0.6164  0.8546
 8055TIP3   OH245579   1.925   3.337  13.871  0.2544  0.0210 -0.5745
 8055TIP3    H145580   2.020   3.347  13.879  0.3453 -0.3343 -1.1952
 8055TIP3    H245581   1.911   3.311  13.780 -0.4345  0.0305 -0.4729
 8056TIP3   OH245582   2.173   4.944   0.456 -0.0288  0.8084  0.2889
 8056TIP3    H145583   2.168   4.858   0.415  0.4692  0.3663  1.1268
 8056TIP3    H245584   2.082   4.967   0.477 -0.0213 -0.2989  1.6162
 8057TIP3   OH245585   0.067   4.385  15.547 -0.3203 -0.0984 -0.1497
 8057TIP3    H145586   0.048   4.382  15.453 -0.1111  1.2307 -0.2453
 8057TIP3    H245587  -0.013   4.418  15.587  0.2240  1.1707 -0.0762
 8058TIP3   OH245588   6.861   4.976  13.269 -0.4172  0.3801  0.2309
 8058TIP3    H145589   6.920   4.936  13.205 -2.4890 -0.4478 -1.1914
 8058TIP3    H245590   6.866   5.070  13.251  0.1375  0.2832 -0.1430
 8059TIP3   OH245591   0.769   4.846  15.675 -0.0046  0.4097 -0.0003
 8059TIP3    H145592   0.764   4.899  15.754 -0.2872  1.1382 -0.4981
 8059TIP3    H245593   0.736   4.904  15.606  0.4148 -0.1545 -0.6747
 8060TIP3   OH245594   0.332   4.356  14.139  0.1352  0.1906 -0.1337
 8060TIP3    H145595   0.355   4.441  14.102  3.4028 -0.8023 -0.5618
 8060TIP3    H245596   0.365   4.292  14.076 -1.3213 -1.4258  0.6885
 8061TIP3   OH245597   0.061   6.732   0.301  0.0231  0.8632 -0.1998
 8061TIP3    H145598   0.016   6.723   0.385 -0.7694  0.7707 -0.6318
 8061TIP3    H245599   0.153   6.720   0.323 -0.0717  1.8884  0.8166
 8062TIP3   OH245600   6.984   6.430  13.977 -0.0139  0.0197 -0.1154
 8062TIP3    H145601   7.035   6.459  14.052  0.4351 -2.6313  0.6155
 8062TIP3    H245602   6.911   6.492  13.972  0.5367  0.8332  1.8434
 8063TIP3   OH245603   1.533   6.946  15.818  0.0722  0.1605 -0.0985
 8063TIP3    H145604   1.606   6.884  15.815 -0.8174 -1.0136  1.5881
 8063TIP3    H245605   1.475   6.911  15.885 -1.6598  1.5140 -0.8582
 8064TIP3   OH245606   3.155   5.053  13.932  0.9924  0.3650 -0.4397
 8064TIP3    H145607   3.062   5.039  13.951  0.9489  0.3816 -0.6351
 8064TIP3    H245608   3.159   5.058  13.836  1.5244 -2.0699 -0.5816
 8065TIP3   OH245609   1.136   2.679  15.763  0.4030 -0.1568 -0.2759
 8065TIP3    H145610   1.161   2.619  15.833 -0.4637  0.0298  0.2135
 8065TIP3    H245611   1.091   2.751  15.809  0.7332  0.4724 -0.9270
 8066TIP3   OH245612   7.064   6.652  15.710  0.5068 -0.7991  0.0587
 8066TIP3    H145613   7.148   6.657  15.756  2.1731 -1.0333 -2.8401
 8066TIP3    H245614   7.030   6.742  15.714 -0.7257 -1.3288  3.9901
 8067TIP3   OH245615   0.932   2.737  13.175  0.0032  0.1160  0.6090
 8067TIP3    H145616   0.874   2.750  13.250 -3.6531 -1.8949 -1.7087
 8067TIP3    H245617   0.875   2.746  13.099  2.7032 -1.9959 -1.7870
 8068TIP3   OH245618   1.532   5.584  15.281 -0.1950 -0.1039  0.1170
 8068TIP3    H145619   1.609   5.567  15.226  0.2171  0.8924  0.3809
 8068TIP3    H245620   1.567   5.610  15.365 -0.8266  0.3783  0.2373
 8069TIP3   OH245621   1.140   4.128   1.193 -0.0791 -0.3139  0.4056
 8069TIP3    H145622   1.076   4.074   1.145  0.7995  0.1396 -1.3146
 8069TIP3    H245623   1.162   4.075   1.270 -2.2123 -0.6547  0.8290
 8070TIP3   OH245624   1.477   2.434  13.826 -0.0776 -0.4019  0.4476
 8070TIP3    H145625   1.444   2.417  13.738 -1.5131  0.3960  0.8137
 8070TIP3    H245626   1.445   2.362  13.879 -2.5147  1.1065  1.0999
 8071TIP3   OH245627   3.669   4.066  14.734  0.2416 -0.7503 -0.2197
 8071TIP3    H145628   3.656   4.064  14.639 -1.2775 -0.1982 -0.0392
 8071TIP3    H245629   3.746   4.121  14.747 -0.5826  0.6204 -1.0551
 8072TIP3   OH245630   1.649   5.668  14.633 -0.2275  0.6419 -0.0848
 8072TIP3    H145631   1.598   5.733  14.584  1.5528  1.5410 -0.8148
 8072TIP3    H245632   1.739   5.703  14.632  0.5803 -1.3660  0.3399
 8073TIP3   OH245633   6.878   0.052  14.905  0.4789 -0.8774  0.0481
 8073TIP3    H145634   6.846  -0.002  14.977 -0.0460  0.2883  0.6997
 8073TIP3    H245635   6.834   0.136  14.916  0.6608 -0.5706 -1.4307
 8074TIP3   OH245636   0.324   6.368  11.213 -0.4591  0.5217 -0.2174
 8074TIP3    H145637   0.313   6.280  11.175 -0.3643  1.2370 -1.9492
 8074TIP3    H245638   0.410   6.364  11.254 -0.2553 -0.0694 -0.6783
 8075TIP3   OH245639   0.205   3.268  15.128  0.3423  0.3243 -0.6473
 8075TIP3    H145640   0.179   3.360  15.140 -2.4093 -0.6141  0.9019
 8075TIP3    H245641   0.300   3.272  15.119  0.5536  3.1144  1.8443
 8076TIP3   OH245642   3.329   4.429  14.712 -1.0190  0.1364  0.2806
 8076TIP3    H145643   3.290   4.397  14.794 -0.0565 -0.1843  0.6327
 8076TIP3    H245644   3.383   4.503  14.739 -1.8872  0.9843 -0.2919
 8077TIP3   OH245645   0.041   4.082  13.999 -0.2043  0.1883 -0.3033
 8077TIP3    H145646   0.083   4.087  14.085  0.9109  0.6158 -0.8682
 8077TIP3    H245647  -0.029   4.148  14.003  0.2152  0.6168  0.0685
 8078TIP3   OH245648   2.068   2.922  15.567 -0.0121  0.0324 -0.0080
 8078TIP3    H145649   2.019   2.869  15.630 -0.2753 -1.2262 -1.2369
 8078TIP3    H245650   2.140   2.960  15.617 -0.4686 -0.6031  1.1363
 8079TIP3   OH245651   0.380   4.381  13.343  0.4687  0.2984 -0.4089
 8079TIP3    H145652   0.328   4.314  13.297  1.4216  0.3599 -1.6042
 8079TIP3    H245653   0.393   4.345  13.430 -0.3457 -0.3767 -0.5534
 8080TIP3   OH245654   2.801   4.484  12.757 -0.0108  0.4636  0.3548
 8080TIP3    H145655   2.837   4.525  12.679 -0.0745  0.9327  0.5730
 8080TIP3    H245656   2.866   4.417  12.780 -1.4494 -1.7836 -1.8578
 8081TIP3   OH245657   2.354   3.863  14.130  0.4182 -0.1031 -0.2230
 8081TIP3    H145658   2.281   3.851  14.192  0.8002 -1.2173  0.0125
 8081TIP3    H245659   2.312   3.859  14.044  0.1705 -0.5995 -0.0847
 8082TIP3   OH245660   0.751   5.897  14.658  0.0308 -0.6515 -0.1636
 8082TIP3    H145661   0.797   5.878  14.740  2.5024  0.8960 -1.1511
 8082TIP3    H245662   0.751   5.814  14.610  3.1915 -0.3289 -0.7920
 8083TIP3   OH245663   1.535   4.316  14.547 -0.5849 -0.0089 -0.5374
 8083TIP3    H145664   1.468   4.274  14.600  0.3752 -0.2166  0.5291
 8083TIP3    H245665   1.491   4.392  14.508 -1.8616 -1.0560 -1.1513
 8084TIP3   OH245666   6.050   4.223  14.156  0.3409  0.4127 -0.7267
 8084TIP3    H145667   5.976   4.241  14.098 -0.4789  2.9506  1.0470
 8084TIP3    H245668   6.084   4.309  14.178  2.4243 -0.6445  0.3318
 8085TIP3   OH245669   1.607   5.637  15.573 -0.5240 -0.2426 -0.4960
 8085TIP3    H145670   1.648   5.559  15.609 -0.6530  0.2939  0.8068
 8085TIP3    H245671   1.516   5.633  15.604 -0.5136  0.4707 -0.3796
 8086TIP3   OH245672   1.972   6.708  14.030  0.6067 -0.1974 -0.7440
 8086TIP3    H145673   1.894   6.758  14.052 -0.0550 -1.2151 -0.7637
 8086TIP3    H245674   1.957   6.675  13.942  1.5032  0.4590 -1.1493
 8087TIP3   OH245675   1.053   3.442   2.323  0.4185  0.3777 -0.5065
 8087TIP3    H145676   0.995   3.422   2.249  0.5861 -0.7505 -0.3374
 8087TIP3    H245677   1.077   3.534   2.310  1.2525 -0.0802 -2.4194
 8088TIP3   OH245678   0.353   3.179   0.074 -0.2854  0.5506  0.5700
 8088TIP3    H145679   0.309   3.263   0.086  0.4518  0.9982  0.1565
 8088TIP3    H245680   0.444   3.202   0.055 -0.5107 -0.2763 -1.6307
 8089TIP3   OH245681   1.552   6.275  14.692  0.1791 -0.3993  0.4048
 8089TIP3    H145682   1.565   6.370  14.696  0.1087 -0.3090 -1.0394
 8089TIP3    H245683   1.467   6.265  14.649 -0.1524 -1.1173  1.2126
 8090TIP3   OH245684   4.453   4.657  14.596 -0.2496 -0.3122 -0.0438
 8090TIP3    H145685   4.413   4.744  14.597 -1.2805 -0.7818  2.1098
 8090TIP3    H245686   4.524   4.663  14.659  0.5582 -0.6365 -0.9197
 8091TIP3   OH245687   0.350   7.259   1.161  0.3720 -0.1525  0.2714
 8091TIP3    H145688   0.387   7.317   1.228  1.5644 -0.3591 -0.1884
 8091TIP3    H245689   0.404   7.180   1.165 -1.3449 -1.3058  1.0038
 8092TIP3   OH245690   1.145   3.278  15.937  0.3445 -0.1672  0.1045
 8092TIP3    H145691   1.156   3.368  15.907  0.3552 -0.4336 -0.7182
 8092TIP3    H245692   1.221   3.232  15.900  0.5233 -0.4458  0.8042
 8093TIP3   OH245693   1.237   7.220  14.652  0.2430 -0.2245 -0.1676
 8093TIP3    H145694   1.148   7.198  14.678 -0.2772  0.1162 -1.5773
 8093TIP3    H245695   1.247   7.312  14.675 -0.3076  0.1490 -1.3587
 8094TIP3   OH245696   1.269   4.875  14.802 -0.5137 -0.5372 -0.4291
 8094TIP3    H145697   1.212   4.925  14.743  0.4223  0.7352 -0.2663
 8094TIP3    H245698   1.339   4.842  14.745  0.6995  1.1642  0.0510
 8095TIP3   OH245699   1.082   4.586  14.814 -0.0698  0.0238 -0.1611
 8095TIP3    H145700   1.140   4.662  14.813  3.4920 -2.5375 -1.0223
 8095TIP3    H245701   1.074   4.563  14.906 -0.7405  1.1348  0.0612
 8096TIP3   OH245702   0.330   3.058  13.989 -0.6793  0.0794 -0.3439
 8096TIP3    H145703   0.310   3.118  13.917 -0.4367  1.6627  0.9065
 8096TIP3    H245704   0.335   3.113  14.067 -1.9344 -1.7557  1.0751
 8097TIP3   OH245705   3.735   0.380  15.666 -0.0264  0.3973 -0.3053
 8097TIP3    H145706   3.754   0.300  15.617 -0.0605  0.7427 -0.8804
 8097TIP3    H245707   3.820   0.406  15.701  0.2635  0.9678 -1.4160
 8098TIP3   OH245708   0.825   4.938  14.727  0.1095  0.1749  0.9676
 8098TIP3    H145709   0.812   4.975  14.640  0.1618  1.6018  1.5525
 8098TIP3    H245710   0.776   4.856  14.725 -0.5006  0.5498 -0.1671
 8099TIP3   OH245711   1.250   5.620  15.955  0.1556  0.7045  0.4876
 8099TIP3    H145712   1.214   5.634  16.043  0.5804 -2.7955  1.2964
 8099TIP3    H245713   1.344   5.619  15.968  0.1936 -0.5396  0.0997
 8100TIP3   OH245714   2.423   3.270  15.303  0.1326  0.4161  0.0831
 8100TIP3    H145715   2.477   3.334  15.350  0.5399 -1.6040  2.5005
 8100TIP3    H245716   2.475   3.190  15.306 -0.9786 -0.3847 -1.6826
 8101TIP3   OH245717   6.459   4.597  13.385 -0.8136  0.4716  0.0129
 8101TIP3    H145718   6.453   4.518  13.439  1.3943  1.7242  2.2106
 8101TIP3    H245719   6.458   4.669  13.448 -0.0750  2.0820 -1.7612
 8102TIP3   OH245720   0.440   3.260  14.788  0.7135 -0.1684 -0.2707
 8102TIP3    H145721   0.445   3.226  14.698 -1.9858 -1.0753 -0.1326
 8102TIP3    H245722   0.416   3.185  14.841  1.4166  0.5527  1.1056
 8103TIP3   OH245723   0.690   4.320  14.766 -0.7553 -0.3069 -0.8027
 8103TIP3    H145724   0.699   4.233  14.803  2.0219  1.6901  3.6418
 8103TIP3    H245725   0.615   4.358  14.813  0.5639  1.0169  0.2883
 8104TIP3   OH245726   2.074   4.294  13.693 -0.6336  0.4168  0.3336
 8104TIP3    H145727   2.001   4.355  13.689 -1.1151 -0.2287 -1.2653
 8104TIP3    H245728   2.033   4.208  13.703 -0.0861  0.0911 -0.1785
 8105TIP3   OH245729   1.463   3.585   0.159 -0.5615 -0.0143 -0.1106
 8105TIP3    H145730   1.519   3.614   0.087 -0.2849 -1.4582 -0.4810
 8105TIP3    H245731   1.492   3.636   0.235  0.2451  0.3167 -0.6412
 8106TIP3   OH245732   0.214   5.176   0.858  0.0289  0.5498  0.0206
 8106TIP3    H145733   0.254   5.171   0.771  0.0043  2.5528 -0.1235
 8106TIP3    H245734   0.270   5.122   0.914  1.4172  1.2054 -0.7289
 8107TIP3   OH245735   6.645   5.368  13.217 -0.1448  0.0845  0.5612
 8107TIP3    H145736   6.624   5.403  13.303 -0.3129 -0.5696  0.7885
 8107TIP3    H245737   6.741   5.372  13.212  0.0539 -2.1005  1.7590
 8108TIP3   OH245738   1.967   3.258  13.619 -0.1693  0.0655 -0.5500
 8108TIP3    H145739   2.050   3.263  13.570 -1.0737  4.3975 -1.8899
 8108TIP3    H245740   1.924   3.180  13.585  2.6337 -1.3081 -1.0497
 8109TIP3   OH245741   1.784   7.206   0.773  0.7811  0.1349 -0.1599
 8109TIP3    H145742   1.763   7.180   0.862 -0.9750 -1.9784 -1.1265
 8109TIP3    H245743   1.871   7.170   0.757 -0.0505 -1.9450 -0.1868
 8110TIP3   OH245744   6.798   2.618  12.515  0.3307 -1.2289 -0.1901
 8110TIP3    H145745   6.731   2.550  12.508 -1.0747  0.0695  0.5357
 8110TIP3    H245746   6.838   2.621  12.428 -0.9527 -1.5926 -0.8072
 8111TIP3   OH245747   1.669   4.803  15.622 -0.8198  0.1142 -0.0569
 8111TIP3    H145748   1.603   4.858  15.579  0.7466  2.0537 -0.0611
 8111TIP3    H245749   1.722   4.769  15.549 -0.2552  0.6394  0.1054
 8112TIP3   OH245750   3.363   6.010  13.759  0.9978  0.4361 -0.2645
 8112TIP3    H145751   3.386   5.976  13.672  0.4624  2.1736 -1.1007
 8112TIP3    H245752   3.321   6.094  13.741  1.0243  0.8733  1.7020
 8113TIP3   OH245753   0.003   6.525  15.257  0.0216 -0.2775 -0.4935
 8113TIP3    H145754   0.089   6.487  15.275 -0.0626  0.0244  0.5846
 8113TIP3    H245755   0.012   6.618  15.279 -0.8143 -0.4125  0.4556
 8114TIP3   OH245756   6.724   3.966  14.702  0.0277 -0.5233 -0.0138
 8114TIP3    H145757   6.633   3.992  14.689  0.7257  1.9020 -0.3317
 8114TIP3    H245758   6.722   3.910  14.780 -1.9014 -1.7119 -0.8684
 8115TIP3   OH245759   0.772   4.032   0.060  0.0302 -0.4364  0.3845
 8115TIP3    H145760   0.806   4.001   0.144  1.6774  1.1620  0.3368
 8115TIP3    H245761   0.678   4.039   0.074  0.0188 -2.2688  1.4062
 8116TIP3   OH245762   0.419   6.827   1.357 -0.2966 -0.1876 -0.5254
 8116TIP3    H145763   0.513   6.827   1.376 -0.5126 -0.2948  0.5351
 8116TIP3    H245764   0.383   6.895   1.414 -1.3753 -2.5031  1.6190
 8117TIP3   OH245765   5.806   2.806  14.695 -0.4482  0.3312 -0.3445
 8117TIP3    H145766   5.763   2.779  14.614 -0.9055 -0.5146  0.1708
 8117TIP3    H245767   5.873   2.868  14.667 -0.1613 -0.4621 -1.4500
 8118TIP3   OH245768   2.033   5.236   0.836  0.5093  0.4261 -0.1665
 8118TIP3    H145769   2.009   5.317   0.791  1.0156  0.1808 -0.9038
 8118TIP3    H245770   2.071   5.264   0.919 -0.6142  0.8858  0.2037
 8119TIP3   OH245771   1.625   5.209   0.924  0.3983 -1.0609 -0.3482
 8119TIP3    H145772   1.612   5.226   1.017 -2.1089 -0.4147 -0.7703
 8119TIP3    H245773   1.667   5.288   0.890 -1.2853 -0.1047 -0.2674
 8120TIP3   OH245774   3.333   6.001  14.031 -0.0737  0.2597 -0.1426
 8120TIP3    H145775   3.411   6.030  14.079  0.5077  1.1986 -1.6229
 8120TIP3    H245776   3.350   6.025  13.940 -2.9516  2.3834 -0.2140
 8121TIP3   OH245777   0.834   5.466  12.676  0.0056  0.4585 -0.0655
 8121TIP3    H145778   0.782   5.394  12.640  1.3423 -0.6754  0.2313
 8121TIP3    H245779   0.901   5.483  12.610 -0.6222  1.8028 -0.3738
 8122TIP3   OH245780   7.230   4.110  15.370  0.4287  0.1490 -0.8934
 8122TIP3    H145781   7.288   4.170  15.324 -0.3238  1.7803  0.2508
 8122TIP3    H245782   7.142   4.141  15.350  0.0670  0.2915  0.8401
 8123TIP3   OH245783   2.533   5.460  14.207  0.0869 -0.3347 -0.4140
 8123TIP3    H145784   2.599   5.459  14.277  0.8366  1.0265 -1.0986
 8123TIP3    H245785   2.525   5.552  14.183 -0.8171 -0.6971 -1.5221
 8124TIP3   OH245786   7.243   5.419  15.729 -0.1090  0.0944 -0.2102
 8124TIP3    H145787   7.324   5.410  15.680 -0.5460 -1.6375 -0.6256
 8124TIP3    H245788   7.179   5.449  15.665 -0.1112  0.1823 -0.1673
 8125TIP3   OH245789   0.944   3.741  13.489 -0.4094  0.2367  0.0001
 8125TIP3    H145790   0.886   3.708  13.420  1.1681 -0.8846 -0.8144
 8125TIP3    H245791   0.899   3.719  13.570 -0.3411 -2.1701 -0.5831
 8126TIP3   OH245792   1.491   2.495  14.335  0.4147  0.2404  0.1753
 8126TIP3    H145793   1.489   2.403  14.359  2.2215 -0.5435 -2.5175
 8126TIP3    H245794   1.400   2.518  14.319  0.2174 -1.8347 -1.8351
 8127TIP3   OH245795   0.985   3.421  15.584  0.2874 -0.1279  0.4809
 8127TIP3    H145796   0.940   3.381  15.509  0.5460 -0.4188  0.4778
 8127TIP3    H245797   1.067   3.455  15.546  1.0290 -1.4514  0.8868
 8128TIP3   OH245798   1.982   1.713  14.089  0.1046  0.0407 -0.0849
 8128TIP3    H145799   1.988   1.698  14.183 -0.4339  0.9030  0.0857
 8128TIP3    H245800   2.054   1.662  14.052 -0.2896 -1.1073  0.6984
 8129TIP3   OH245801   1.898   4.012  14.225 -0.1375 -0.1901 -0.0285
 8129TIP3    H145802   1.984   4.051  14.240 -0.6559  0.3706  1.5787
 8129TIP3    H245803   1.891   3.943  14.291 -0.3708 -1.1788 -1.0582
 8130TIP3   OH245804   6.500   5.939  13.626  0.4458 -0.2158  0.1617
 8130TIP3    H145805   6.469   5.992  13.553  0.6763  1.4341  1.2274
 8130TIP3    H245806   6.420   5.911  13.670  0.3483  1.0673  0.8357
 8131TIP3   OH245807   5.718   3.241  15.825  0.5407  0.9278 -0.7807
 8131TIP3    H145808   5.636   3.207  15.859  0.8912  0.5935 -0.2641
 8131TIP3    H245809   5.694   3.324  15.783  0.0417  1.1320 -0.1025
 8132TIP3   OH245810   1.286   3.774  15.205 -0.8129 -0.2528 -0.0196
 8132TIP3    H145811   1.258   3.789  15.115 -0.1089  0.0069 -0.2044
 8132TIP3    H245812   1.362   3.832  15.216  0.0177 -1.3606  0.2539
 8133TIP3   OH245813   1.341   3.300   0.477 -0.1046  0.0172 -0.4217
 8133TIP3    H145814   1.351   3.285   0.383 -0.3434 -3.2389  0.0307
 8133TIP3    H245815   1.262   3.353   0.484  1.8005  3.2784 -2.2299
 8134TIP3   OH245816   1.354   6.398   1.599  0.1573  0.1642  0.1395
 8134TIP3    H145817   1.300   6.371   1.525 -1.9206  0.9390  1.3179
 8134TIP3    H245818   1.294   6.396   1.674  1.7415  1.1479  1.4650
 8135TIP3   OH245819   1.126   4.339  14.687  0.1496 -0.4542  0.0821
 8135TIP3    H145820   1.045   4.289  14.678 -0.4983  0.5605  0.1740
 8135TIP3    H245821   1.104   4.410  14.747  2.0579 -2.1083  2.8397
 8136TIP3   OH245822   2.198   2.907  12.357  0.0290  0.3000 -0.0668
 8136TIP3    H145823   2.289   2.903  12.387  0.3213 -2.6406 -1.1596
 8136TIP3    H245824   2.147   2.892  12.437  0.4016  3.5812  0.8414
 8137TIP3   OH245825   1.572   6.632  11.829 -0.2702 -0.1864  0.2701
 8137TIP3    H145826   1.658   6.611  11.791  0.5715  0.1136  1.9572
 8137TIP3    H245827   1.544   6.550  11.870 -0.2329  0.0403  0.7528
 8138TIP3   OH245828   0.629   5.679  14.419  0.0738 -0.2427 -0.7873
 8138TIP3    H145829   0.718   5.644  14.408 -0.2260 -0.5560 -2.3855
 8138TIP3    H245830   0.576   5.630  14.357 -1.4815 -0.9027  1.0417
 8139TIP3   OH245831   1.368   7.095  14.441  0.0945  0.5384  0.5254
 8139TIP3    H145832   1.361   7.154  14.516 -2.0153  1.7136 -0.5724
 8139TIP3    H245833   1.415   7.019  14.476 -0.8023  1.0795  3.0445
 8140TIP3   OH245834   4.764   4.324  10.492  0.2455 -0.7504  0.4356
 8140TIP3    H145835   4.717   4.396  10.534  0.9604  0.3093 -0.5627
 8140TIP3    H245836   4.819   4.366  10.426  0.7808 -2.1995 -0.0620
 8141TIP3   OH245837   0.683   6.233  13.330  0.5213  0.3407  0.8061
 8141TIP3    H145838   0.604   6.231  13.384 -0.0952  0.6758 -0.0677
 8141TIP3    H245839   0.653   6.210  13.243  1.3953  0.4541  0.4665
 8142TIP3   OH245840   1.654   5.511  15.993 -0.7551  0.2867  0.1272
 8142TIP3    H145841   1.746   5.536  16.002 -1.0094  0.5335  2.3652
 8142TIP3    H245842   1.656   5.426  15.948  0.5465  0.4107 -0.0562
 8143TIP3   OH245843   2.706   2.498  14.673  0.1037 -0.1821  0.0477
 8143TIP3    H145844   2.739   2.428  14.730  0.6276  0.5491  0.6540
 8143TIP3    H245845   2.743   2.478  14.587  2.8142  1.0588  0.8784
 8144TIP3   OH245846   6.879   3.722  15.181 -0.0404 -0.1520  0.8467
 8144TIP3    H145847   6.829   3.775  15.243  0.3761  0.6015  0.5441
 8144TIP3    H245848   6.963   3.766  15.173 -0.4149  0.2966 -0.9473
 8145TIP3   OH245849   2.117   6.424  15.666 -0.6412  0.2376 -0.1065
 8145TIP3    H145850   2.036   6.458  15.704 -0.7381 -0.5085  0.3736
 8145TIP3    H245851   2.175   6.500  15.662 -0.9299  0.5141  0.7425
 8146TIP3   OH245852   2.102   5.257  13.283  0.1932 -0.1945 -0.7417
 8146TIP3    H145853   2.106   5.350  13.258 -2.8255 -0.1202 -1.0953
 8146TIP3    H245854   2.161   5.213  13.222 -0.2887  1.1740 -2.2275
 8147TIP3   OH245855   0.258   6.976  14.069 -0.1251  0.5806  0.2089
 8147TIP3    H145856   0.233   7.004  13.981  0.2528  2.0349  0.5345
 8147TIP3    H245857   0.193   7.017  14.126  0.3655  0.6828  0.6953
 8148TIP3   OH245858   1.626   5.540  14.016 -0.1095 -0.3277  0.2123
 8148TIP3    H145859   1.668   5.590  13.946  2.6060  0.7070  2.5223
 8148TIP3    H245860   1.611   5.453  13.978  2.3561 -0.1295 -1.2933
 8149TIP3   OH245861   6.865   5.316  14.965 -0.5488 -0.2300 -0.4031
 8149TIP3    H145862   6.797   5.315  14.897 -0.6737  0.0586 -0.2861
 8149TIP3    H245863   6.918   5.239  14.947 -0.7854 -0.3444 -0.6215
 8150TIP3   OH245864   0.245   4.185  13.235  0.2583  0.4838 -0.6021
 8150TIP3    H145865   0.281   4.126  13.169  2.3863  1.2544 -0.1678
 8150TIP3    H245866   0.151   4.189  13.215  0.0577 -3.0558 -0.5774
 8151TIP3   OH245867   0.448   3.522  15.352 -0.4049  0.1312 -0.7769
 8151TIP3    H145868   0.426   3.464  15.279 -2.2111  0.6077 -0.6398
 8151TIP3    H245869   0.384   3.593  15.347  0.1755  0.7772  0.5914
 8152TIP3   OH245870   1.768   5.660  13.816  0.0499  0.2214  0.5256
 8152TIP3    H145871   1.765   5.691  13.725 -1.8688  0.1457  0.5327
 8152TIP3    H245872   1.861   5.649  13.835  0.5538  1.7406 -0.9279
 8153TIP3   OH245873   2.150   4.479  15.915 -0.3637  0.3235 -0.1213
 8153TIP3    H145874   2.187   4.539  15.980 -1.5392  1.7440 -0.7446
 8153TIP3    H245875   2.226   4.440  15.871  0.4022  2.1440 -0.4339
 8154TIP3   OH245876   1.896   5.875  11.567 -0.8999  0.5935 -0.1785
 8154TIP3    H145877   1.863   5.926  11.641 -0.8888 -0.7170  0.7395
 8154TIP3    H245878   1.945   5.939  11.515 -2.6340  1.9726 -0.1663
 8155TIP3   OH245879   0.319   2.791  13.077  0.7422  0.1580  0.1332
 8155TIP3    H145880   0.338   2.820  12.987 -0.5435 -0.9917 -0.5223
 8155TIP3    H245881   0.361   2.705  13.084 -2.5756 -1.5798 -0.7296
 8156TIP3   OH245882   4.036   4.441  14.132 -0.1819  0.0272  0.3652
 8156TIP3    H145883   3.978   4.374  14.095 -1.3293  0.9764  0.4099
 8156TIP3    H245884   3.976   4.508  14.165  0.9544  1.0247  0.4132
 8157TIP3   OH245885   0.921   3.724  14.997 -0.2538 -0.0957 -0.3259
 8157TIP3    H145886   0.968   3.641  14.987  1.2904  0.5934  1.1526
 8157TIP3    H245887   0.861   3.709  15.070 -0.8304 -0.2912 -0.8374
 8158TIP3   OH245888   1.803   5.897  15.267 -0.3235 -0.5042 -0.2423
 8158TIP3    H145889   1.719   5.852  15.260  0.9953 -3.4431  1.9334
 8158TIP3    H245890   1.854   5.865  15.192 -0.5890  0.1404 -0.7095
 8159TIP3   OH245891   0.013   5.975  14.865 -0.1485  0.0878  0.1768
 8159TIP3    H145892  -0.042   6.017  14.799 -0.8075 -1.5019 -0.3245
 8159TIP3    H245893  -0.026   5.888  14.877  1.7081 -0.7283  0.5076
 8160TIP3   OH245894   3.347   5.249  13.679  0.3141 -0.4934  0.5250
 8160TIP3    H145895   3.305   5.163  13.675  1.3367 -0.9643 -0.5988
 8160TIP3    H245896   3.361   5.265  13.773 -0.1466 -1.4253  0.7526
 8161TIP3   OH245897   1.772   5.813  13.586 -0.3123 -0.1141 -0.6621
 8161TIP3    H145898   1.782   5.763  13.506  0.7609  1.1676 -1.3479
 8161TIP3    H245899   1.861   5.839  13.610 -0.6591 -0.1269  0.7153
 8162TIP3   OH245900   6.862   4.608   1.978  0.6428  0.2524  0.7366
 8162TIP3    H145901   6.864   4.695   1.940  0.3970  0.5975  1.5023
 8162TIP3    H245902   6.854   4.623   2.072  1.3340 -0.5844  0.9316
 8163TIP3   OH245903   1.022   3.790   0.945 -0.1970 -0.4416 -0.3654
 8163TIP3    H145904   0.943   3.761   0.990  0.1381 -1.9615 -0.7225
 8163TIP3    H245905   1.072   3.710   0.931 -0.1270  0.0252 -3.0976
 8164TIP3   OH245906   6.861   4.412  15.124 -0.2129 -0.2659  0.0856
 8164TIP3    H145907   6.809   4.484  15.160 -1.9927 -1.1371 -0.6693
 8164TIP3    H245908   6.894   4.447  15.041 -1.6006 -0.5107 -0.5869
 8165TIP3   OH245909   7.212   4.545  15.054 -0.6659  0.6668  0.2685
 8165TIP3    H145910   7.253   4.603  14.990 -0.3289  0.5079  0.3415
 8165TIP3    H245911   7.159   4.603  15.108 -1.1114  0.7791 -0.2819
 8166TIP3   OH245912   0.402   2.436  15.425 -0.1198 -0.3824 -0.2989
 8166TIP3    H145913   0.312   2.464  15.406 -0.0631  0.8486  1.1613
 8166TIP3    H245914   0.456   2.510  15.398  0.2758 -0.2681  0.7934
 8167TIP3   OH245915   2.789   2.867  13.763  0.6138 -0.2624 -1.1160
 8167TIP3    H145916   2.837   2.788  13.790  0.0963 -0.2530 -0.1495
 8167TIP3    H245917   2.755   2.846  13.676  0.8577 -0.9380 -1.0490
 8168TIP3   OH245918   6.610   2.477  13.716 -0.3964  0.7667 -0.4783
 8168TIP3    H145919   6.546   2.523  13.662 -2.0797 -0.0725  0.7475
 8168TIP3    H245920   6.601   2.385  13.691 -0.6359  0.4770  0.6310
 8169TIP3   OH245921   0.097   0.617  13.635 -0.0668 -0.3796 -0.3985
 8169TIP3    H145922   0.161   0.566  13.585  1.6344  0.6362  0.6577
 8169TIP3    H245923   0.027   0.556  13.655 -0.3204 -1.0543 -3.1678
 8170TIP3   OH245924   1.734   4.629  14.532  0.1515 -0.4512 -0.3054
 8170TIP3    H145925   1.715   4.637  14.438 -0.8549  2.0672  0.0805
 8170TIP3    H245926   1.829   4.639  14.538  0.3499 -1.7150 -1.1546
 8171TIP3   OH245927   1.150   6.288  15.548 -0.2000  0.4274  0.3219
 8171TIP3    H145928   1.156   6.383  15.533 -0.1279  0.2167 -1.0367
 8171TIP3    H245929   1.234   6.254  15.516 -0.3744 -0.1363  0.4700
 8172TIP3   OH245930   0.304   2.806  15.277  0.1067 -0.1496  0.3792
 8172TIP3    H145931   0.260   2.890  15.263  0.5734  0.1038  0.4208
 8172TIP3    H245932   0.398   2.828  15.278  0.2959 -0.8657 -0.9800
 8173TIP3   OH245933   6.488   4.874  14.984 -0.0658 -0.2107  0.4888
 8173TIP3    H145934   6.565   4.895  14.930 -2.1833  0.7375 -2.2948
 8173TIP3    H245935   6.514   4.898  15.073  3.6692 -2.1165  0.0172
 8174TIP3   OH245936   6.140   5.439   0.579  0.2120 -0.6065  0.1949
 8174TIP3    H145937   6.138   5.528   0.612  1.2433 -0.3170 -0.5156
 8174TIP3    H245938   6.192   5.390   0.643 -1.8091 -1.1121  1.5268
 8175TIP3   OH245939   0.941   4.351   0.792  0.0400 -0.6131 -0.1170
 8175TIP3    H145940   0.941   4.259   0.820  0.6119 -0.4069  0.5998
 8175TIP3    H245941   1.016   4.358   0.733  0.2706 -0.5064  0.1869
 8176TIP3   OH245942   6.673   6.375   0.009 -0.4374  0.1579 -0.1159
 8176TIP3    H145943   6.707   6.398   0.095 -1.7613  0.8034  0.2275
 8176TIP3    H245944   6.728   6.424  -0.052  1.7634 -1.7770  0.2422
 8177TIP3   OH245945   7.172   6.453   2.029 -0.5750  0.0233  0.0990
 8177TIP3    H145946   7.239   6.511   1.995 -0.9195  0.5538  0.3161
 8177TIP3    H245947   7.106   6.448   1.960 -2.1704  2.5677  1.3763
 8178TIP3   OH245948   3.093   4.671  15.045  0.2812 -0.4799  0.2931
 8178TIP3    H145949   3.031   4.598  15.039 -0.5182  0.4052 -3.3932
 8178TIP3    H245950   3.042   4.744  15.080  0.1957 -0.7033  0.6388
 8179TIP3   OH245951   0.817   3.634   1.137 -0.5554  0.6304 -0.1671
 8179TIP3    H145952   0.741   3.606   1.087 -0.9918  0.1976  0.7189
 8179TIP3    H245953   0.781   3.676   1.215  0.0998  0.2319  0.3635
 8180TIP3   OH245954   5.196   5.217  15.855 -0.1085  0.0629 -0.2017
 8180TIP3    H145955   5.181   5.291  15.796 -1.2245 -0.6380 -0.8165
 8180TIP3    H245956   5.255   5.251  15.921  0.4498  1.1247 -1.2293
 8181TIP3   OH245957   2.369   4.496  14.592 -0.2839 -0.2166 -0.4244
 8181TIP3    H145958   2.425   4.446  14.533  2.7240  2.6893 -0.1900
 8181TIP3    H245959   2.306   4.539  14.535  0.2541 -0.3917 -1.1644
 8182TIP3   OH245960   0.961   5.617   0.073  0.2741  0.6144 -0.0538
 8182TIP3    H145961   0.928   5.690   0.019 -1.3759  1.7472  2.3665
 8182TIP3    H245962   1.036   5.654   0.120  0.4428  0.2650 -0.0520
 8183TIP3   OH245963   6.077   3.779  12.525  0.2522 -0.6285 -0.5448
 8183TIP3    H145964   6.143   3.779  12.594  0.0468 -0.6528 -0.3476
 8183TIP3    H245965   6.093   3.860  12.476 -0.5539  0.1501  0.4496
 8184TIP3   OH245966   6.948   4.078  15.672  0.3523 -0.8505  0.1084
 8184TIP3    H145967   6.916   4.058  15.583  1.4366 -2.0038 -0.0337
 8184TIP3    H245968   6.879   4.044  15.729  0.0038 -0.7882 -0.2658
 8185TIP3   OH245969   1.629   2.909  11.471 -0.0083  0.8583  0.0657
 8185TIP3    H145970   1.657   2.996  11.442 -0.2381  1.8542  2.6750
 8185TIP3    H245971   1.705   2.873  11.516 -0.7269  0.8188  1.2903
 8186TIP3   OH245972   2.252   4.846   0.738 -0.3018 -0.3588  0.1481
 8186TIP3    H145973   2.242   4.859   0.832 -1.8938  1.0049 -0.1829
 8186TIP3    H245974   2.210   4.762   0.720 -1.8893  0.3695  0.3673
 8187TIP3   OH245975   1.881   5.743  15.037  0.3677  0.3832  0.0973
 8187TIP3    H145976   1.788   5.753  15.017  0.9010  3.7036 -0.9527
 8187TIP3    H245977   1.921   5.716  14.955  0.4075 -0.6946  0.4599
 8188TIP3   OH245978   1.840   4.260  14.357  0.2524  0.3303  0.2398
 8188TIP3    H145979   1.759   4.293  14.317  1.1366  2.8511  0.4246
 8188TIP3    H245980   1.855   4.176  14.314 -2.4343 -0.1834  0.1916
 8189TIP3   OH245981   0.310   5.718   0.738  0.1872 -0.0870 -0.2071
 8189TIP3    H145982   0.373   5.736   0.669  0.8124 -2.2644 -0.2289
 8189TIP3    H245983   0.226   5.710   0.693 -0.0096  2.0015 -0.2710
 8190TIP3   OH245984   2.408   5.567  15.124  0.4556 -0.3702  0.0094
 8190TIP3    H145985   2.372   5.584  15.037  0.7083  0.8355  0.1273
 8190TIP3    H245986   2.471   5.497  15.111 -1.5673 -2.2065 -0.2802
 8191TIP3   OH245987   6.140   6.211  14.660  0.0001  0.6840  0.1272
 8191TIP3    H145988   6.069   6.267  14.628  0.4908  1.2818  0.0742
 8191TIP3    H245989   6.212   6.272  14.677  0.5514  0.0565  0.0248
 8192TIP3   OH245990   0.238   4.861  15.863 -0.1390 -0.2542 -0.2447
 8192TIP3    H145991   0.274   4.773  15.871  1.1473  0.0706 -2.0324
 8192TIP3    H245992   0.180   4.857  15.787  0.6976  0.6782 -0.9444
 8193TIP3   OH245993   7.092   5.696   0.037 -0.3972 -0.1975 -0.0564
 8193TIP3    H145994   7.057   5.615   0.075 -2.1949  0.1182 -0.9858
 8193TIP3    H245995   7.177   5.671   0.002 -0.4407 -1.4247  0.6836
 8194TIP3   OH245996   3.501   3.605  15.071 -0.3449 -0.2196 -0.5543
 8194TIP3    H145997   3.434   3.538  15.089 -0.1603 -0.3963 -0.5279
 8194TIP3    H245998   3.558   3.565  15.005 -0.2997 -0.0456 -0.6199
 8195TIP3   OH245999   3.899   3.805   0.814  0.1257 -0.3941  0.1813
 8195TIP3    H146000   3.937   3.789   0.901 -0.6608 -0.9209  0.4370
 8195TIP3    H246001   3.961   3.864   0.771  0.9984 -0.8831  0.7545
 8196TIP3   OH246002   5.339   3.467   2.822  0.4251 -0.1995 -0.1986
 8196TIP3    H146003   5.326   3.433   2.911  1.3718  3.0326  1.2606
 8196TIP3    H246004   5.429   3.441   2.800  0.0253 -1.4215 -0.4344
 8197TIP3   OH246005   6.296   5.611   0.943 -0.0387  0.0880 -0.2475
 8197TIP3    H146006   6.389   5.593   0.928  0.1433 -0.2582  1.2264
 8197TIP3    H246007   6.293   5.700   0.978 -0.7437  2.1895 -5.2415
 8198TIP3   OH246008   1.496   4.709   1.898 -0.0086 -0.0434  0.1924
 8198TIP3    H146009   1.450   4.641   1.849  0.9299 -0.4776 -0.0986
 8198TIP3    H246010   1.469   4.791   1.858  0.4166 -0.3704 -0.7706
 8199TIP3   OH246011   6.703   6.774  14.884  0.4566  0.7345  0.2013
 8199TIP3    H146012   6.737   6.736  14.965  1.5874  2.5218  0.6005
 8199TIP3    H246013   6.641   6.840  14.913 -2.0633 -1.2331 -0.4999
 8200TIP3   OH246014   5.146   0.230  13.341  0.1014 -0.2558  0.1832
 8200TIP3    H146015   5.062   0.206  13.301 -0.3686  0.4217  0.7470
 8200TIP3    H246016   5.141   0.324  13.353  0.3007 -0.4190  1.6636
 8201TIP3   OH246017   7.120   6.841  12.647  0.6477 -0.1109  0.0086
 8201TIP3    H146018   7.069   6.774  12.693  0.8705 -0.7344 -0.6457
 8201TIP3    H246019   7.080   6.924  12.675  0.0116 -0.5367  0.3886
 8202TIP3   OH246020   6.027   6.292  15.514  0.7517  0.1437  0.2878
 8202TIP3    H146021   6.108   6.339  15.532  0.7971 -0.4493  1.6458
 8202TIP3    H246022   6.031   6.214  15.569 -1.2787  0.7039  1.2939
 8203TIP3   OH246023   2.554   1.527  15.809 -0.1433 -0.2736  0.0345
 8203TIP3    H146024   2.499   1.511  15.732 -0.6441  1.0975  0.0877
 8203TIP3    H246025   2.624   1.585  15.777  0.0071 -0.2108  0.4671
 8204TIP3   OH246026   1.658   1.110  13.228  0.0927  0.6094 -0.1275
 8204TIP3    H146027   1.621   1.057  13.298  1.7370 -1.4607 -0.7620
 8204TIP3    H246028   1.709   1.178  13.274  1.5265 -0.9910  0.7281
 8205TIP3   OH246029   3.436   6.073  12.289 -0.5482 -0.2462  0.1165
 8205TIP3    H146030   3.396   6.041  12.208 -3.4796  0.2779  1.2756
 8205TIP3    H246031   3.423   6.168  12.286 -1.8051 -0.3460  1.7376
 8206TIP3   OH246032   3.450   2.434  15.783 -0.0050 -0.0588 -0.0549
 8206TIP3    H146033   3.490   2.464  15.865  1.7250 -0.9470 -0.5666
 8206TIP3    H246034   3.388   2.366  15.810  0.3716 -0.1736  0.5222
 8207TIP3   OH246035   3.227   6.875   0.910  0.2604  0.1791  0.0759
 8207TIP3    H146036   3.223   6.795   0.962  1.7111  0.6043  0.8567
 8207TIP3    H246037   3.174   6.856   0.833 -0.2606 -1.1613  0.7487
 8208TIP3   OH246038   2.909   5.227  13.087  0.7763  0.3117 -0.2428
 8208TIP3    H146039   2.924   5.291  13.157 -0.0782  0.0623  0.1709
 8208TIP3    H246040   2.997   5.193  13.067  0.8172 -1.1105  2.1437
 8209TIP3   OH246041   2.433   6.049  14.155 -0.3987 -0.1714  0.0316
 8209TIP3    H146042   2.408   6.141  14.158  0.9556  0.2029  0.1221
 8209TIP3    H246043   2.508   6.041  14.215 -0.8957 -1.4559  0.5135
 8210TIP3   OH246044   2.008   4.599  14.441 -0.0167  0.1003 -0.0996
 8210TIP3    H146045   1.994   4.665  14.373 -0.9384 -1.0191 -1.0185
 8210TIP3    H246046   2.067   4.534  14.400 -1.3144 -1.0558 -0.1755
 8211TIP3   OH246047   0.263   4.496  15.104 -0.4605 -0.4344  0.3970
 8211TIP3    H146048   0.272   4.590  15.090 -0.2168 -0.5986 -0.5483
 8211TIP3    H246049   0.302   4.456  15.026 -0.8077 -1.3134  0.6697
 8212TIP3   OH246050   2.133   4.477  13.230 -0.1512 -0.4709 -0.4994
 8212TIP3    H146051   2.148   4.383  13.214  2.7684 -0.7696  3.2513
 8212TIP3    H246052   2.214   4.519  13.198  0.3015  0.2653  1.5501
 8213TIP3   OH246053   1.154   5.350  14.999  0.2351  0.0116  0.0294
 8213TIP3    H146054   1.221   5.398  15.046  0.9433 -1.0953  0.1722
 8213TIP3    H246055   1.174   5.258  15.016 -1.4449 -0.3325  0.2550
 8214TIP3   OH246056   4.000   3.983  15.300 -0.3301 -0.3084  0.3678
 8214TIP3    H146057   3.933   4.047  15.274 -0.0118 -0.1481 -0.0568
 8214TIP3    H246058   4.041   4.022  15.377  3.0560  2.2697 -2.5919
 8215TIP3   OH246059   3.401   4.162  13.925 -0.0359 -0.1758  0.4027
 8215TIP3    H146060   3.489   4.181  13.957 -0.0584  0.1243  0.2839
 8215TIP3    H246061   3.342   4.201  13.990 -0.0887 -1.4221  1.1162
 8216TIP3   OH246062   0.138   2.845  14.645 -0.6486  0.0229 -0.0170
 8216TIP3    H146063   0.210   2.799  14.690 -1.1076 -1.6009 -0.9299
 8216TIP3    H246064   0.089   2.887  14.716 -1.4564 -2.6562  1.0619
 8217TIP3   OH246065   1.369   4.872  13.969 -0.1200  0.1038  0.5809
 8217TIP3    H146066   1.448   4.923  13.958 -0.4545  0.6358  0.6467
 8217TIP3    H246067   1.316   4.891  13.891  0.6770 -1.8096 -0.4791
 8218TIP3   OH246068   0.695   6.663  13.242 -0.6001 -0.4864 -0.2129
 8218TIP3    H146069   0.651   6.596  13.295 -0.7510  1.1687  1.8397
 8218TIP3    H246070   0.770   6.690  13.295 -0.3219  0.6792 -1.1792
 8219TIP3   OH246071   3.867   2.363  15.866 -0.1800  0.5949 -0.0712
 8219TIP3    H146072   3.958   2.347  15.842  0.1911  0.7100  1.2214
 8219TIP3    H246073   3.868   2.373  15.961 -1.3378  1.9836 -0.1839
 8220TIP3   OH246074   0.570   5.742  13.881  0.1183 -0.1545 -0.0295
 8220TIP3    H146075   0.513   5.816  13.902 -0.4786 -0.4906 -0.4370
 8220TIP3    H246076   0.605   5.715  13.965  0.5783  0.7803  0.0856
 8221TIP3   OH246077   0.938   4.834   1.100 -0.1953 -0.2574 -0.4457
 8221TIP3    H146078   0.865   4.896   1.100 -0.0754 -0.0310  2.1787
 8221TIP3    H246079   1.015   4.887   1.081  0.0426  0.6834  2.7559
 8222TIP3   OH246080   1.004   4.444  14.313  0.1144 -0.1073  0.4734
 8222TIP3    H146081   0.982   4.537  14.317 -0.6403 -0.2190 -0.7566
 8222TIP3    H246082   0.930   4.401  14.355  0.3507 -0.1816  0.8203
 8223TIP3   OH246083   2.435   4.241  15.324 -0.1453  0.4765  0.8001
 8223TIP3    H146084   2.509   4.199  15.280 -0.8186  1.3158 -1.2039
 8223TIP3    H246085   2.473   4.317  15.367 -0.1409  2.0723 -1.9487
 8224TIP3   OH246086   1.226   4.590  13.469  0.1238  0.1685 -0.0027
 8224TIP3    H146087   1.135   4.595  13.441 -0.4961 -1.8360  1.5910
 8224TIP3    H246088   1.231   4.645  13.547  0.2077  0.0444  0.0811
 8225TIP3   OH246089   4.122   4.373  14.507  0.7893 -0.3536 -0.8123
 8225TIP3    H146090   4.076   4.299  14.466  2.6159 -1.2405 -1.3280
 8225TIP3    H246091   4.159   4.337  14.587  0.9988  0.2119 -0.6524
 8226TIP3   OH246092   6.897   5.099  10.755  0.3986 -0.1803 -0.3815
 8226TIP3    H146093   6.875   5.060  10.670 -2.5791  0.0950  0.2035
 8226TIP3    H246094   6.931   5.186  10.734 -1.5359  0.3828 -1.2546
 8227TIP3   OH246095   2.276   3.997   0.773 -0.1877  0.6049 -0.2095
 8227TIP3    H146096   2.317   3.912   0.759 -0.2736  0.6817 -0.9185
 8227TIP3    H246097   2.184   3.976   0.790  0.2093  0.3945  1.8825
 8228TIP3   OH246098   0.122   4.070  14.334 -0.5265  0.1046 -0.0634
 8228TIP3    H146099   0.135   4.164  14.330  0.1462 -0.0238 -1.5431
 8228TIP3    H246100   0.104   4.051  14.426 -2.2653  1.8557 -0.0306
 8229TIP3   OH246101   0.320   4.420  15.669  0.7587 -0.0354  0.0171
 8229TIP3    H146102   0.233   4.415  15.628  0.2473  0.7628  1.0045
 8229TIP3    H246103   0.342   4.330  15.690 -0.0183 -0.1951  0.1451
 8230TIP3   OH246104   7.030   6.844   1.635 -0.6054 -0.1169  0.7700
 8230TIP3    H146105   7.070   6.757   1.624 -1.9839 -0.6671 -0.0312
 8230TIP3    H246106   7.080   6.884   1.706  1.0254 -0.9900  0.1643
 8231TIP3   OH246107   0.807   4.887  15.292  0.6810  0.0762  0.2109
 8231TIP3    H146108   0.840   4.817  15.348 -2.0321 -1.4065  0.0825
 8231TIP3    H246109   0.766   4.949  15.353  0.3184 -0.0639  0.1166
 8232TIP3   OH246110   6.387   1.901  13.877 -0.9648  0.6521 -0.0705
 8232TIP3    H146111   6.460   1.853  13.917 -1.7565 -0.1638  0.4176
 8232TIP3    H246112   6.380   1.865  13.789 -0.7972  0.7011 -0.1044
 8233TIP3   OH246113   0.446   5.180  14.361 -0.8466  0.6749 -0.1386
 8233TIP3    H146114   0.526   5.226  14.335 -0.4350 -0.8568 -1.6365
 8233TIP3    H246115   0.378   5.217  14.306 -0.5510 -0.3449 -1.2047
 8234TIP3   OH246116   2.048   4.935  15.082 -0.4705  0.1234  0.0718
 8234TIP3    H146117   2.097   5.015  15.101 -1.4345  0.5000  1.0790
 8234TIP3    H246118   2.002   4.916  15.164 -2.4728  0.1374 -1.0207
 8235TIP3   OH246119   2.734   5.633  14.352  0.3877  0.0900 -0.4270
 8235TIP3    H146120   2.687   5.598  14.428  0.9465  0.2880  0.0157
 8235TIP3    H246121   2.820   5.657  14.387 -0.1954  2.4808 -0.5555
 8236TIP3   OH246122   1.623   5.370  15.063  0.5498 -0.3154  0.2907
 8236TIP3    H146123   1.567   5.303  15.103 -1.4093  0.2123 -1.4703
 8236TIP3    H246124   1.692   5.320  15.019  0.8577 -1.0256  1.5464
 8237TIP3   OH246125   6.555   0.762  14.387  0.2627 -0.7278 -0.3308
 8237TIP3    H146126   6.545   0.739  14.479 -1.1878 -0.5829 -0.4404
 8237TIP3    H246127   6.627   0.708  14.356  2.2265  0.8125  1.4268
 8238TIP3   OH246128   0.112   5.161  15.373 -0.0116 -0.5612 -0.0016
 8238TIP3    H146129   0.121   5.170  15.278  0.1970 -2.7434 -0.2160
 8238TIP3    H246130   0.175   5.093  15.397 -0.2861 -0.2569  1.6516
 8239TIP3   OH246131   0.905   0.518  13.736  0.1225  0.2898  0.1005
 8239TIP3    H146132   0.830   0.509  13.677 -0.7727  0.1026  1.2476
 8239TIP3    H246133   0.920   0.612  13.743 -1.6836  0.4618  1.9292
 8240TIP3   OH246134   7.060   4.296   0.577 -0.2061 -0.4692  0.2293
 8240TIP3    H146135   7.143   4.258   0.546 -1.9838 -2.9973 -1.6081
 8240TIP3    H246136   7.018   4.226   0.625 -2.3155  0.0323 -0.8278
 8241TIP3   OH246137   7.186   5.681  15.425 -0.4975 -0.0926 -0.5845
 8241TIP3    H146138   7.190   5.586  15.410  1.4534 -0.1130 -0.0263
 8241TIP3    H246139   7.258   5.716  15.374  1.2038  0.6704  2.2013
 8242TIP3   OH246140   2.191   3.693  15.325 -0.6021 -0.5278  0.1318
 8242TIP3    H146141   2.275   3.732  15.347 -0.5117 -0.6732  0.0363
 8242TIP3    H246142   2.190   3.609  15.370 -0.9973 -0.2125  0.7373
 8243TIP3   OH246143   0.891   5.278  14.690 -0.1208 -0.0964 -0.5802
 8243TIP3    H146144   0.819   5.216  14.704  0.0673 -0.1609  0.0980
 8243TIP3    H246145   0.909   5.314  14.776 -0.4359  1.1430 -1.0290
 8244TIP3   OH246146   1.892   4.036  12.472  0.0526  0.3293 -0.2087
 8244TIP3    H146147   1.881   3.949  12.436  0.7345  0.3130 -0.3793
 8244TIP3    H246148   1.886   4.095  12.397 -0.6670  0.4552 -0.0609
 8245TIP3   OH246149   0.201   4.159  15.073 -0.3414 -0.8992 -0.9315
 8245TIP3    H146150   0.282   4.185  15.116  0.4489 -2.8772 -1.1805
 8245TIP3    H246151   0.133   4.214  15.114  0.8156 -0.6894  0.7349
 8246TIP3   OH246152   0.353   3.574  12.762  0.0632  0.0825 -0.1154
 8246TIP3    H146153   0.433   3.571  12.710 -0.2859 -1.5003 -0.5630
 8246TIP3    H246154   0.372   3.520  12.839 -0.5527 -0.2161 -0.1737
 8247TIP3   OH246155   6.240   4.361  12.248  0.3654 -0.1631 -0.2782
 8247TIP3    H146156   6.163   4.328  12.202 -0.4013  1.2255 -0.0485
 8247TIP3    H246157   6.284   4.284  12.282 -0.6016 -1.0101 -0.9367
 8248TIP3   OH246158   6.092   5.496  13.749 -0.2503  0.1187 -0.2408
 8248TIP3    H146159   6.160   5.429  13.743 -1.3679 -1.1022  0.5582
 8248TIP3    H246160   6.140   5.579  13.746  1.0375 -0.6461 -3.0736
 8249TIP3   OH246161   3.717   3.216  13.977 -0.7182 -0.2894 -0.2778
 8249TIP3    H146162   3.722   3.143  13.915  0.9698 -0.2420 -0.2051
 8249TIP3    H246163   3.803   3.258  13.972 -0.9176  0.3350  1.3452
 8250TIP3   OH246164   3.128   4.102  14.462  0.2038 -0.3654  0.3154
 8250TIP3    H146165   3.175   4.134  14.386 -0.2549  0.6820  0.4614
 8250TIP3    H246166   3.179   4.134  14.537 -1.7886  2.5231  0.5170
 8251TIP3   OH246167   5.308   5.949  15.288  0.0882  0.1989 -0.6024
 8251TIP3    H146168   5.383   5.911  15.335 -0.0931 -2.1233 -2.1205
 8251TIP3    H246169   5.341   6.032  15.255  1.3715  0.1507  0.4752
 8252TIP3   OH246170   6.192   2.798  15.304  0.6375 -0.4131 -0.0520
 8252TIP3    H146171   6.109   2.821  15.345  0.6947 -1.4354  0.6618
 8252TIP3    H246172   6.248   2.875  15.317 -0.3731  0.5011 -1.0535
 8253TIP3   OH246173   0.815   2.253  13.122  0.3936  0.0587  0.4569
 8253TIP3    H146174   0.878   2.320  13.149 -0.9436  1.5679 -0.1274
 8253TIP3    H246175   0.764   2.235  13.201 -0.8845  1.5672  0.0007
 8254TIP3   OH246176   4.245   5.742  14.358  0.1675  0.5230  0.1985
 8254TIP3    H146177   4.336   5.767  14.377  0.6832  0.5478 -2.1147
 8254TIP3    H246178   4.252   5.684  14.282 -1.7615  0.5440 -0.0182
 8255TIP3   OH246179   6.342   7.115  13.638 -1.2282 -0.0787 -0.1851
 8255TIP3    H146180   6.353   7.119  13.733  2.9022  0.5998 -0.5760
 8255TIP3    H246181   6.341   7.021  13.617  0.9943 -0.2243  0.2803
 8256TIP3   OH246182   0.556   4.127  14.426 -0.3979  0.1692  0.5918
 8256TIP3    H146183   0.572   4.081  14.509  0.9090 -1.3240 -0.4721
 8256TIP3    H246184   0.489   4.075  14.382  0.2185 -0.0554 -0.0890
 8257TIP3   OH246185   1.058   4.864  15.762 -0.2848 -0.1610  0.1593
 8257TIP3    H146186   0.971   4.844  15.727 -0.5265 -1.9525  1.7353
 8257TIP3    H246187   1.044   4.935  15.825 -0.3029  0.8629 -0.9722
 8258TIP3   OH246188   0.515   3.222  13.604  0.6987  0.1118  0.3372
 8258TIP3    H146189   0.498   3.217  13.510 -0.3913  0.3866  0.5161
 8258TIP3    H246190   0.609   3.240  13.610  0.6093  0.9682 -0.7103
 8259TIP3   OH246191   1.655   5.019  14.459 -0.2148 -0.0324 -0.5925
 8259TIP3    H146192   1.690   4.949  14.405 -1.2445 -2.0421  1.2831
 8259TIP3    H246193   1.560   5.012  14.449 -0.3488  0.7514  0.0311
 8260TIP3   OH246194   2.424   0.398  15.995 -0.1270 -0.3813 -0.1502
 8260TIP3    H146195   2.441   0.337  15.923  0.3969  0.8376 -1.0708
 8260TIP3    H246196   2.481   0.473  15.978 -2.1515  1.2200 -0.1038
 8261TIP3   OH246197   1.885   4.421  11.854  0.2443  0.2263 -0.4335
 8261TIP3    H146198   1.896   4.492  11.918 -0.2282  0.2122 -0.3343
 8261TIP3    H246199   1.802   4.381  11.877  1.0074 -1.0333  0.1629
 8262TIP3   OH246200   2.899   3.235  12.966  0.6283 -0.0021 -0.0584
 8262TIP3    H146201   2.835   3.270  12.904 -1.0601 -1.0063  1.1060
 8262TIP3    H246202   2.874   3.271  13.051  0.6373 -1.6539  0.6680
 8263TIP3   OH246203   1.562   2.054  13.497  0.3591  0.7657  0.2391
 8263TIP3    H146204   1.544   1.990  13.428 -1.7268  1.7319 -0.1541
 8263TIP3    H246205   1.618   2.119  13.456 -0.1769  0.8895 -0.2960
 8264TIP3   OH246206   4.040   3.790  15.672  0.5662  0.1430  0.2127
 8264TIP3    H146207   4.108   3.851  15.640 -1.5153  2.4395  0.0197
 8264TIP3    H246208   3.986   3.772  15.596 -0.7955  0.7293  1.0207
 8265TIP3   OH246209   3.364   5.822   0.514 -0.4976  0.1500 -0.3344
 8265TIP3    H146210   3.420   5.793   0.441  0.4894  1.4778 -0.1238
 8265TIP3    H246211   3.275   5.822   0.478 -0.4062 -2.2330 -0.5986
 8266TIP3   OH246212   2.880   3.840  13.872 -0.1591  0.2862  0.3828
 8266TIP3    H146213   2.912   3.764  13.921  1.8615  0.4855 -0.5922
 8266TIP3    H246214   2.949   3.905  13.880 -2.3538  2.4871  2.1392
 8267TIP3   OH246215   5.070   3.762  13.859 -0.4280 -0.3301  0.2650
 8267TIP3    H146216   5.006   3.804  13.916 -0.2328  1.2226 -0.6269
 8267TIP3    H246217   5.048   3.669  13.862 -1.1912 -0.1143  1.8698
 8268TIP3   OH246218   4.005   4.169  14.370  0.5761 -0.1626  0.2502
 8268TIP3    H146219   4.017   4.204  14.281  0.1779  1.7811  0.9462
 8268TIP3    H246220   3.930   4.111  14.362  0.5237  0.0160 -0.6798
 8269TIP3   OH246221   2.428   6.793  14.145 -0.6931 -0.3778  0.4467
 8269TIP3    H146222   2.480   6.769  14.222  0.8239  0.8379 -0.1530
 8269TIP3    H246223   2.476   6.755  14.072 -1.0584  0.1237 -0.0529
 8270TIP3   OH246224   1.224   6.440  14.237  0.0542  0.0608  0.5405
 8270TIP3    H146225   1.245   6.421  14.328  1.6754 -1.0102 -0.0453
 8270TIP3    H246226   1.274   6.376  14.186  0.8292  1.9690 -1.1982
 8271TIP3   OH246227   2.842   3.823  15.092 -0.5980  0.7227 -0.1303
 8271TIP3    H146228   2.777   3.867  15.036 -0.9610  0.7347  0.2980
 8271TIP3    H246229   2.918   3.881  15.090 -0.5718  0.6736 -0.6923
 8272TIP3   OH246230   4.070   3.746  13.913  0.6017 -0.3402 -0.3036
 8272TIP3    H146231   4.135   3.705  13.857  1.9570 -1.1307  1.7889
 8272TIP3    H246232   4.118   3.812  13.963 -0.9443  1.6450 -1.3674
 8273TIP3   OH246233   1.444   4.128  12.078 -0.7427 -0.3414  0.0972
 8273TIP3    H146234   1.442   4.186  12.155  0.9018  0.0214 -0.1233
 8273TIP3    H246235   1.365   4.074  12.088 -2.5005  2.1235  0.1379
 8274TIP3   OH246236   1.519   3.014  14.640  0.1013 -0.4094 -0.2466
 8274TIP3    H146237   1.551   3.023  14.550  0.0698 -2.4844 -0.4761
 8274TIP3    H246238   1.530   2.922  14.661 -1.0123 -0.1777  1.4792
 8275TIP3   OH246239   4.791   4.380  14.470  0.1781  0.2311  0.3171
 8275TIP3    H146240   4.703   4.345  14.481  0.4416 -0.4942  0.1491
 8275TIP3    H246241   4.846   4.325  14.526  0.4114  1.1586  1.0144
 8276TIP3   OH246242   3.133   1.859  14.208  0.4472  0.5712 -0.5466
 8276TIP3    H146243   3.151   1.873  14.301 -0.0542 -0.1737 -0.3320
 8276TIP3    H246244   3.077   1.932  14.183 -0.6837 -0.0687  0.1185
 8277TIP3   OH246245   2.637   4.496  15.186 -0.1788  0.3083  0.3934
 8277TIP3    H146246   2.568   4.511  15.250  0.0451 -0.7575  0.9092
 8277TIP3    H246247   2.718   4.519  15.233  0.0565 -1.2437  0.7829
 8278TIP3   OH246248   5.149   4.246  13.338 -0.0771 -0.1041  0.2003
 8278TIP3    H146249   5.067   4.225  13.382  0.4129 -0.7224  0.8183
 8278TIP3    H246250   5.184   4.161  13.312 -1.3610  0.3200 -3.2322
 8279TIP3   OH246251   3.024   5.406  14.487 -0.2682 -0.6705  0.4454
 8279TIP3    H146252   2.987   5.324  14.456 -2.5578  0.2152  0.7179
 8279TIP3    H246253   3.049   5.388  14.578 -0.2104 -1.2275  0.3222
 8280TIP3   OH246254   2.251   1.594  14.437 -0.1248  0.3196 -0.2612
 8280TIP3    H146255   2.299   1.652  14.377  0.8627 -0.6306 -0.4030
 8280TIP3    H246256   2.159   1.605  14.412  0.0775  1.5899 -0.4870
 8281TIP3   OH246257   5.641   5.517  15.468 -0.7483 -0.2111  0.0240
 8281TIP3    H146258   5.678   5.521  15.380 -1.6733  0.6330 -0.3365
 8281TIP3    H246259   5.564   5.460  15.460 -0.8397 -0.1264  0.2861
 8282TIP3   OH246260   0.607   5.285  14.084  0.0706  0.2461 -0.4620
 8282TIP3    H146261   0.583   5.199  14.117  0.3854  0.5729  0.6722
 8282TIP3    H246262   0.619   5.273  13.990 -0.5237 -0.7955 -0.4089
 8283TIP3   OH246263   2.758   5.871  12.072  0.2901  0.0044 -0.4009
 8283TIP3    H146264   2.831   5.809  12.072  0.1172 -0.2185 -1.7465
 8283TIP3    H246265   2.798   5.955  12.052  0.4647  0.2625  0.9929
 8284TIP3   OH246266   3.851   6.062  14.562  0.3617  0.4116 -0.7406
 8284TIP3    H146267   3.824   6.093  14.648 -1.6251 -0.7708 -0.9046
 8284TIP3    H246268   3.842   6.138  14.504 -4.6388 -0.3801 -1.1858
 8285TIP3   OH246269   3.567   6.372  13.389 -0.0868  0.4264  0.0019
 8285TIP3    H146270   3.584   6.342  13.478 -0.5263  0.5142  0.1150
 8285TIP3    H246271   3.485   6.420  13.394 -1.1366 -1.2069 -0.8065
 8286TIP3   OH246272   3.510   2.962  14.054 -0.4517  0.4027 -0.3027
 8286TIP3    H146273   3.524   3.050  14.019 -0.6748  0.5744  0.0357
 8286TIP3    H246274   3.596   2.934  14.085  0.1271 -0.4548 -2.5879
 8287TIP3   OH246275   3.600   5.601  15.113 -0.6298 -0.4580  0.1790
 8287TIP3    H146276   3.606   5.640  15.026  0.9810 -0.5899  0.2137
 8287TIP3    H246277   3.642   5.664  15.171 -0.1483 -1.1435  0.5952
 8288TIP3   OH246278   4.451   5.604  13.769 -0.3311 -0.6296  0.4238
 8288TIP3    H146279   4.425   5.690  13.736 -2.8885 -0.9720  1.4236
 8288TIP3    H246280   4.529   5.621  13.821 -0.1802  0.9203 -0.2626
 8289TIP3   OH246281   1.905   5.992   0.322 -0.1685  0.2382  0.2430
 8289TIP3    H146282   1.945   6.037   0.247 -2.0706  1.1930 -0.2201
 8289TIP3    H246283   1.896   5.901   0.292  0.4291  0.2937 -0.1318
 8290TIP3   OH246284   3.160   4.908  12.417 -0.5409 -0.0003 -0.4359
 8290TIP3    H146285   3.162   4.927  12.323 -1.1628 -2.2411 -0.9404
 8290TIP3    H246286   3.141   4.814  12.422 -0.3116  0.0462  1.9320
 8291TIP3   OH246287   2.190   4.536  13.562  0.0384 -0.0536 -0.1256
 8291TIP3    H146288   2.281   4.565  13.557 -0.1978  1.1714  1.9172
 8291TIP3    H246289   2.191   4.465  13.626 -0.3931 -0.1638 -0.2430
 8292TIP3   OH246290   3.595   4.574   0.276 -0.1589  0.1213  0.4030
 8292TIP3    H146291   3.614   4.585   0.183  0.0281 -0.2633  0.3975
 8292TIP3    H246292   3.542   4.651   0.298 -0.2929  0.1592 -0.0416
 8293TIP3   OH246293   5.061   6.312  14.407 -0.4062  0.4401  0.0676
 8293TIP3    H146294   5.036   6.402  14.423  0.1824  0.3328  1.6836
 8293TIP3    H246295   5.064   6.272  14.494 -0.5444 -1.0970 -0.6182
 8294TIP3   OH246296   5.643   4.343  14.231 -0.7725 -0.5652 -1.0975
 8294TIP3    H146297   5.629   4.412  14.297  0.0497 -0.6509 -0.8282
 8294TIP3    H246298   5.586   4.367  14.159 -0.9927  0.0409 -0.7257
 8295TIP3   OH246299   4.844   5.668  11.947 -0.0593  0.3454  0.1250
 8295TIP3    H146300   4.914   5.616  11.986 -1.0050  0.1823  1.6205
 8295TIP3    H246301   4.765   5.616  11.959 -0.4430  0.4805 -1.6548
 8296TIP3   OH246302   4.658   4.062  14.862 -0.0869  0.5062 -0.0044
 8296TIP3    H146303   4.598   4.002  14.905 -1.1831  1.4072 -0.2453
 8296TIP3    H246304   4.743   4.045  14.901 -0.5108 -0.7781  0.3499
 8297TIP3   OH246305   3.883   4.610   0.136 -0.0693 -0.1113  0.1166
 8297TIP3    H146306   3.904   4.677   0.202  0.6051  0.3012 -0.5205
 8297TIP3    H246307   3.800   4.639   0.098 -0.2996 -0.1829  0.5608
 8298TIP3   OH246308   2.471   6.485  14.563  0.3028  0.3996 -0.2059
 8298TIP3    H146309   2.397   6.523  14.516 -0.4987  1.2168  1.6554
 8298TIP3    H246310   2.435   6.462  14.649  1.8355 -0.6261  0.1792
 8299TIP3   OH246311   1.526   3.644  14.742 -0.2042  0.9621  0.7025
 8299TIP3    H146312   1.574   3.598  14.674  2.0132  1.0925  2.1203
 8299TIP3    H246313   1.462   3.697  14.695 -2.0183 -2.5939 -1.0000
 8300TIP3   OH246314   4.214   4.629  12.724  0.4371  0.4660 -0.4738
 8300TIP3    H146315   4.189   4.543  12.688  2.0725 -0.0144 -0.5044
 8300TIP3    H246316   4.254   4.608  12.808  0.9011  1.2066 -0.5140
 8301TIP3   OH246317   0.739   3.319   0.724  0.4868 -0.4978 -0.5140
 8301TIP3    H146318   0.812   3.309   0.663 -2.5130  0.2095 -4.4366
 8301TIP3    H246319   0.690   3.237   0.716  0.5115 -0.7567  1.6704
 8302TIP3   OH246320   0.570   5.954  13.030 -0.0255 -0.1929 -0.4661
 8302TIP3    H146321   0.557   5.995  12.945 -1.3639 -0.5543 -0.4393
 8302TIP3    H246322   0.498   5.986  13.084  0.5163 -0.3726  0.3805
 8303TIP3   OH246323   0.930   4.233  14.114  0.0753 -0.0996  0.2256
 8303TIP3    H146324   0.984   4.277  14.180  0.9850 -1.2244  0.2416
 8303TIP3    H246325   0.840   4.247  14.144  0.2818  2.4945 -0.2273
 8304TIP3   OH246326   3.349   3.954  13.751 -0.1264  0.0941  0.5974
 8304TIP3    H146327   3.372   4.027  13.808 -0.6861  0.9198 -0.2220
 8304TIP3    H246328   3.430   3.932  13.705  0.2679 -0.4146  1.5046
 8305TIP3   OH246329   4.696   3.002  13.109  0.1790  0.2083 -0.3132
 8305TIP3    H146330   4.786   2.979  13.132 -0.5689 -1.7887  0.7153
 8305TIP3    H246331   4.657   3.031  13.192 -1.5953 -3.9326  0.4371
 8306TIP3   OH246332   3.529   4.900  14.790 -0.3219 -0.5292  0.0167
 8306TIP3    H146333   3.591   4.973  14.794 -0.7809 -0.1501  0.2476
 8306TIP3    H246334   3.582   4.823  14.810 -0.1687 -0.0681  1.4458
 8307TIP3   OH246335   3.952   1.487  15.762 -0.1040 -0.2890 -0.2573
 8307TIP3    H146336   4.005   1.561  15.733  0.6106 -0.3436  0.8910
 8307TIP3    H246337   3.872   1.526  15.796  1.3436  0.1851  2.7840
 8308TIP3   OH246338   1.772   0.194   0.421 -0.4452 -0.5750  0.6140
 8308TIP3    H146339   1.825   0.214   0.498  0.0464 -1.0084  0.3910
 8308TIP3    H246340   1.828   0.139   0.366 -0.3460  0.7249 -0.6290
 8309TIP3   OH246341   3.702   6.038   0.370  0.2097 -0.0583 -0.7724
 8309TIP3    H146342   3.618   6.003   0.340  0.1840 -1.2202  0.5628
 8309TIP3    H246343   3.768   5.977   0.335  0.4032  0.2645 -0.9634
 8310TIP3   OH246344   2.081   4.806  13.743  0.3400 -0.2056 -0.5286
 8310TIP3    H146345   2.093   4.726  13.691  0.9238  0.3743 -1.2903
 8310TIP3    H246346   2.120   4.784  13.828  0.7229 -0.6493 -0.8110
 8311TIP3   OH246347   1.783   0.085  15.129 -0.3556  0.3101  0.0474
 8311TIP3    H146348   1.878   0.080  15.120 -0.2591  1.8551  0.0830
 8311TIP3    H246349   1.751   0.084  15.038 -0.4196 -1.7646  0.0619
 8312TIP3   OH246350   2.879   5.929  14.762  0.1848 -0.1293  0.0206
 8312TIP3    H146351   2.939   5.859  14.787  1.2806  1.2095  1.2547
 8312TIP3    H246352   2.793   5.887  14.759  0.7094 -1.3607  1.4925
 8313TIP3   OH246353   1.665   4.971  12.353 -0.1124  0.1280  0.9176
 8313TIP3    H146354   1.727   4.907  12.317 -0.5550 -0.4361  1.1669
 8313TIP3    H246355   1.637   5.022  12.277  0.3282  0.1002  0.7380
 8314TIP3   OH246356   4.986   1.807  14.836 -0.1544  0.3197  0.2732
 8314TIP3    H146357   4.951   1.727  14.797  0.3569  0.0534  0.3550
 8314TIP3    H246358   5.067   1.824  14.787 -1.7014  2.3468 -1.6355
 8315TIP3   OH246359   2.176   3.785  15.672 -0.1484 -0.1978  0.5096
 8315TIP3    H146360   2.167   3.881  15.677 -0.9113 -0.2578  0.2412
 8315TIP3    H246361   2.207   3.760  15.759  0.6944  0.3639  0.3777
 8316TIP3   OH246362   3.615   3.283  15.561  0.3094 -0.4200 -0.0035
 8316TIP3    H146363   3.644   3.238  15.482 -1.1610  1.5346 -1.6810
 8316TIP3    H246364   3.526   3.250  15.576  0.5925 -0.8045  0.8735
 8317TIP3   OH246365   1.467   2.761  15.136  0.4858  0.2649  0.4671
 8317TIP3    H146366   1.412   2.786  15.210 -1.8048 -2.2522 -0.2986
 8317TIP3    H246367   1.483   2.667  15.148  0.5386 -0.0617 -1.9014
 8318TIP3   OH246368   2.522   3.557  15.912 -0.2263  0.4261  0.1740
 8318TIP3    H146369   2.449   3.543  15.852 -0.8344 -0.2487  1.0617
 8318TIP3    H246370   2.513   3.488  15.978  0.2737  1.3282  1.2096
 8319TIP3   OH246371   4.505   4.734  15.003  0.6626  0.0094  0.1558
 8319TIP3    H146372   4.496   4.813  15.056  0.2955 -0.0052  0.1163
 8319TIP3    H246373   4.416   4.700  14.995  0.7182 -0.0082 -0.4382
 8320TIP3   OH246374   1.579   3.904  12.916  0.0586 -0.0730 -0.7922
 8320TIP3    H146375   1.516   3.950  12.860  0.6437 -1.1326 -2.3580
 8320TIP3    H246376   1.657   3.895  12.861  1.0766 -0.0359  0.6367
 8321TIP3   OH246377   1.807   6.086  11.313 -0.1828 -0.2081 -0.2692
 8321TIP3    H146378   1.747   6.111  11.383  0.7316 -0.9640  0.8149
 8321TIP3    H246379   1.754   6.090  11.233 -1.9893 -1.9198  0.7798
 8322TIP3   OH246380   3.180   3.373  13.344 -0.7142  0.4913  0.4951
 8322TIP3    H146381   3.209   3.343  13.259 -1.7920 -0.3640  0.4221
 8322TIP3    H246382   3.241   3.333  13.406 -0.6935  0.1039  0.2242
 8323TIP3   OH246383   2.113   5.281  14.603 -0.1119 -0.0605  0.3840
 8323TIP3    H146384   2.038   5.331  14.634 -0.2581  0.1670 -0.3398
 8323TIP3    H246385   2.090   5.190  14.619 -1.1513 -0.0801 -1.1741
 8324TIP3   OH246386   1.825   4.633  13.455  0.1441 -0.0284  0.3161
 8324TIP3    H146387   1.792   4.550  13.420 -0.7496  1.2344 -1.9485
 8324TIP3    H246388   1.753   4.668  13.507 -0.3414  0.4290 -0.6531
 8325TIP3   OH246389   2.969   3.828  15.898 -0.1650 -0.9196 -0.2245
 8325TIP3    H146390   2.890   3.778  15.918 -0.4202 -0.2988  0.3118
 8325TIP3    H246391   2.938   3.917  15.883  0.4547 -0.6307  0.1880
 8326TIP3   OH246392   3.949   5.012  13.635 -0.1060 -0.8502 -0.7465
 8326TIP3    H146393   4.011   5.010  13.708  0.3691  0.3315 -1.1060
 8326TIP3    H246394   3.864   5.022  13.678  0.2891  1.2345 -0.3693
 8327TIP3   OH246395   2.584   4.701  13.149 -0.5501 -0.4223  0.6584
 8327TIP3    H146396   2.538   4.784  13.136 -0.1868 -0.5658 -1.9160
 8327TIP3    H246397   2.644   4.718  13.221 -0.5340  1.5492  0.2264
 8328TIP3   OH246398   2.340   6.309  12.888 -0.2702  0.1237 -0.6892
 8328TIP3    H146399   2.433   6.291  12.901 -0.2903  1.0241  0.9417
 8328TIP3    H246400   2.299   6.223  12.878  0.8849 -0.2202 -2.6415
 8329TIP3   OH246401   1.835   5.077  12.159  0.1780  0.0402 -0.1822
 8329TIP3    H146402   1.890   5.085  12.237  0.4887  2.3642 -0.5942
 8329TIP3    H246403   1.880   5.012  12.105  0.7639 -0.4796  0.9105
 8330TIP3   OH246404   1.791   3.283  14.906  0.3483 -0.0465 -0.3859
 8330TIP3    H146405   1.716   3.271  14.965 -0.7473 -0.4387 -1.8380
 8330TIP3    H246406   1.863   3.238  14.949 -0.3453 -0.0047  0.8365
 8331TIP3   OH246407   2.313   4.681  14.289 -0.1783 -0.3600  0.4816
 8331TIP3    H146408   2.332   4.603  14.237  1.2484  0.6188 -0.4985
 8331TIP3    H246409   2.224   4.706  14.264 -0.7285 -1.7948  0.9756
 8332TIP3   OH246410   5.440   3.583  15.208  0.0222 -0.3197  0.1654
 8332TIP3    H146411   5.412   3.639  15.281  1.6921  1.1628 -0.3052
 8332TIP3    H246412   5.378   3.510  15.209 -2.2041  1.5016  0.8238
 8333TIP3   OH246413   2.442   3.617   0.313  0.1481  0.0737 -0.0804
 8333TIP3    H146414   2.432   3.533   0.268 -0.0627  0.5587 -0.9233
 8333TIP3    H246415   2.489   3.594   0.394  1.2316 -0.6816 -0.9000
 8334TIP3   OH246416   0.558   3.094  12.569 -0.5151  0.4444  0.0126
 8334TIP3    H146417   0.620   3.023  12.583  0.1017  0.8468 -0.6454
 8334TIP3    H246418   0.582   3.130  12.484 -0.5321  1.7200  0.5337
 8335TIP3   OH246419   2.974   5.831  12.571  0.0056  0.2901  0.0122
 8335TIP3    H146420   3.003   5.854  12.483  0.6367 -3.1997 -0.7806
 8335TIP3    H246421   3.052   5.842  12.626  0.6514 -1.1420 -0.5930
 8336TIP3   OH246422   4.801   6.892  14.797 -0.9070  0.4217  0.2330
 8336TIP3    H146423   4.863   6.866  14.865 -0.6174  0.4286 -0.0263
 8336TIP3    H246424   4.797   6.988  14.805  1.5255  0.7461 -1.7862
 8337TIP3   OH246425   4.200   5.932  12.708 -0.1901 -0.3213  0.2220
 8337TIP3    H146426   4.126   5.988  12.730 -0.3550 -0.9465  1.2939
 8337TIP3    H246427   4.177   5.846  12.744  0.6022 -0.7755 -0.3305
 8338TIP3   OH246428   2.886   6.983  15.754 -0.6803  0.1046  0.1914
 8338TIP3    H146429   2.848   6.928  15.822 -2.3534  2.1980  1.0015
 8338TIP3    H246430   2.825   7.056  15.745 -0.3901 -0.0045 -3.4265
 8339TIP3   OH246431   4.738   5.089  13.973  0.0430  0.0789  0.5893
 8339TIP3    H146432   4.772   5.118  14.058  2.0940  0.2581 -0.2501
 8339TIP3    H246433   4.776   5.002  13.960 -2.3105 -1.0304  0.9795
 8340TIP3   OH246434   1.857   4.704  13.164 -0.0922  0.1919 -0.1357
 8340TIP3    H146435   1.769   4.734  13.183 -0.8342 -0.2947 -2.5580
 8340TIP3    H246436   1.887   4.763  13.094  0.4457 -1.3150 -1.2132
 8341TIP3   OH246437   3.940   3.525  14.159 -0.2864 -0.3500  0.0685
 8341TIP3    H146438   3.922   3.439  14.197  0.8190 -0.3570  0.5964
 8341TIP3    H246439   4.033   3.525  14.141 -0.0470  1.1526  1.1543
 8342TIP3   OH246440   1.444   4.571  12.065  0.0214  0.3968 -0.1987
 8342TIP3    H146441   1.472   4.652  12.023 -1.4206  0.4866 -1.0045
 8342TIP3    H246442   1.471   4.502  12.005 -0.4535  0.4120 -0.4352
 8343TIP3   OH246443   3.591   5.385  14.075  0.1242 -0.0020 -0.4231
 8343TIP3    H146444   3.654   5.455  14.054  0.2097  0.1371  0.2814
 8343TIP3    H246445   3.542   5.419  14.150 -0.7678 -0.1340 -0.9422
 8344TIP3   OH246446   0.995   4.244  10.962 -0.1918  0.3376  0.5425
 8344TIP3    H146447   1.025   4.272  11.049  0.1520 -0.6982  0.7658
 8344TIP3    H246448   0.900   4.239  10.971 -0.1145 -0.3440  1.0418
 8345TIP3   OH246449   3.986   5.042  14.976  0.6779  0.1401  0.2603
 8345TIP3    H146450   4.044   4.992  15.034  0.0441 -0.0650  0.7219
 8345TIP3    H246451   4.015   5.133  14.986  0.0140  0.2200  1.5677
 8346TIP3   OH246452   3.092   3.337  12.426  0.0089  0.8472 -0.4460
 8346TIP3    H146453   3.186   3.354  12.419  0.0322  0.4062 -1.2902
 8346TIP3    H246454   3.052   3.409  12.378  0.0731 -0.9425 -3.2880
 8347TIP3   OH246455   0.266   5.609  14.526 -0.1697  0.0860  0.8190
 8347TIP3    H146456   0.306   5.631  14.441  1.1862 -1.1027  1.1278
 8347TIP3    H246457   0.203   5.540  14.505 -0.6188  0.5521  0.6230
 8348TIP3   OH246458   0.688   5.704  14.117  0.8525 -0.2215  0.0657
 8348TIP3    H146459   0.755   5.636  14.126  0.7535 -0.0794  2.0555
 8348TIP3    H246460   0.725   5.781  14.160  0.0100  0.2751 -0.0816
 8349TIP3   OH246461   3.980   4.513  15.667  0.1977 -0.1718 -0.2739
 8349TIP3    H146462   3.912   4.544  15.606  0.7907  0.4094 -0.6373
 8349TIP3    H246463   3.931   4.483  15.743 -0.3723  1.9464  0.2196
 8350TIP3   OH246464   2.710   5.060  15.041  0.0968 -0.1043  0.3715
 8350TIP3    H146465   2.705   5.076  15.136 -0.1998  0.7347  0.2173
 8350TIP3    H246466   2.677   4.971  15.030  2.7176 -1.2573  1.3584
 8351TIP3   OH246467   2.003   5.701   1.235  0.5021  0.1551  0.4127
 8351TIP3    H146468   1.933   5.745   1.284  0.1695 -0.7398  0.7684
 8351TIP3    H246469   2.077   5.699   1.295  0.1239 -0.8580  0.8731
 8352TIP3   OH246470   4.995   5.438  14.455  0.3127 -0.1388  0.0122
 8352TIP3    H146471   4.956   5.414  14.539  0.3860  1.0239  0.3873
 8352TIP3    H246472   5.081   5.473  14.477  0.9116 -1.1420 -0.6747
 8353TIP3   OH246473   2.354   6.091  13.891  0.4825 -0.8105 -0.7620
 8353TIP3    H146474   2.388   6.052  13.972  2.8709  0.3560 -1.1517
 8353TIP3    H246475   2.402   6.173  13.882  0.0391 -0.7835 -3.2174
 8354TIP3   OH246476   2.029   6.134  14.077  0.1048 -0.5553 -0.0316
 8354TIP3    H146477   1.988   6.099  14.156  0.3270 -1.7303 -0.4371
 8354TIP3    H246478   1.992   6.222  14.069 -1.0895 -0.9914  0.5276
 8355TIP3   OH246479   4.464   4.921  12.239 -0.7172 -0.3339 -0.3469
 8355TIP3    H146480   4.539   4.873  12.204 -0.8700 -1.6464  1.0873
 8355TIP3    H246481   4.496   5.011  12.249  1.0110 -1.0822  1.2098
 8356TIP3   OH246482   1.510   6.178  13.735  0.1603  0.0212  0.1591
 8356TIP3    H146483   1.523   6.218  13.820 -0.0461  0.6265 -0.0925
 8356TIP3    H246484   1.425   6.212  13.705 -0.0162 -0.5963 -0.0540
 8357TIP3   OH246485   2.045   4.821  11.658  0.1690  0.5908  0.2319
 8357TIP3    H146486   1.971   4.767  11.631  2.0251 -3.2033  2.3616
 8357TIP3    H246487   2.094   4.838  11.577 -0.0518 -1.5947 -0.3813
 8358TIP3   OH246488   0.682   6.039  15.145 -0.9771  0.1977 -0.5471
 8358TIP3    H146489   0.629   6.118  15.136 -2.1784 -0.6399 -0.8406
 8358TIP3    H246490   0.665   5.989  15.066 -0.3837 -0.4646 -0.2609
 8359TIP3   OH246491   2.502   6.710  12.818 -0.4620  0.4330  0.1398
 8359TIP3    H146492   2.501   6.798  12.779 -1.9706  1.6573  2.7877
 8359TIP3    H246493   2.423   6.708  12.872 -1.5178 -3.3013 -1.4009
 8360TIP3   OH246494   3.216   6.660  15.692 -0.4620 -0.1525  0.3206
 8360TIP3    H146495   3.271   6.621  15.624 -0.4535 -1.3811  1.0131
 8360TIP3    H246496   3.269   6.732  15.727  0.1960 -0.5323  0.1163
 8361TIP3   OH246497   2.704   5.432  14.554  0.1873  0.6460 -0.5958
 8361TIP3    H146498   2.796   5.407  14.547  0.2076  0.2833  0.8055
 8361TIP3    H246499   2.688   5.439  14.648 -1.2769  0.4661 -0.8185
 8362TIP3   OH246500   4.219   5.314  13.494  0.4591  0.3074  0.2002
 8362TIP3    H146501   4.127   5.339  13.485  0.5011  1.0216  1.6737
 8362TIP3    H246502   4.232   5.248  13.426 -1.2912 -0.2178  0.3511
 8363TIP3   OH246503   3.868   4.834   0.326 -0.6677 -0.1040 -0.0551
 8363TIP3    H146504   3.860   4.930   0.324 -1.4025 -0.1519  0.3816
 8363TIP3    H246505   3.798   4.806   0.386 -0.2870 -0.8937  0.0175
 8364TIP3   OH246506   3.885   4.326  12.076  0.4053 -0.1017  0.1230
 8364TIP3    H146507   3.864   4.306  12.167  1.5527  0.0740  0.4265
 8364TIP3    H246508   3.801   4.318  12.030 -0.4413  1.0997  1.4096
 8365TIP3   OH246509   1.681   3.316  14.285  0.3331 -0.5829  0.7116
 8365TIP3    H146510   1.626   3.394  14.295 -0.3906 -0.8532 -0.9708
 8365TIP3    H246511   1.737   3.336  14.210 -0.5529 -2.0528 -0.3758
 8366TIP3   OH246512   1.884   5.066  13.350  0.2704 -0.2752 -0.9018
 8366TIP3    H146513   1.904   5.022  13.433  1.9208  0.3856 -0.9314
 8366TIP3    H246514   1.963   5.116  13.330 -0.1734 -0.3277 -2.8240
 8367TIP3   OH246515   0.323   5.634  14.258  0.3665  0.8086 -0.2040
 8367TIP3    H146516   0.341   5.726  14.238 -0.2086  0.8609 -0.4970
 8367TIP3    H246517   0.407   5.589  14.246  0.4499  1.1494 -0.9212
 8368TIP3   OH246518   0.677   4.489  14.152  0.7824 -0.0981 -0.1855
 8368TIP3    H146519   0.645   4.548  14.221  2.7817  1.1811 -0.2937
 8368TIP3    H246520   0.666   4.401  14.188 -1.9323  0.3306  0.1336
 8369TIP3   OH246521   0.601   7.232  15.259 -0.7385 -0.6267  0.0253
 8369TIP3    H146522   0.624   7.215  15.168 -0.7083 -0.9084  0.0837
 8369TIP3    H246523   0.506   7.218  15.263 -0.8367 -0.0130 -0.0958
 8370TIP3   OH246524   3.323   4.991  13.600  0.4720 -0.1555 -0.4544
 8370TIP3    H146525   3.391   4.946  13.651  0.7888 -1.9663 -2.4216
 8370TIP3    H246526   3.368   5.022  13.522 -0.6332  0.0413 -1.0213
 8371TIP3   OH246527   5.329   4.734  14.119  0.2934 -0.3153 -0.1812
 8371TIP3    H146528   5.319   4.802  14.186  0.0355 -0.8601  0.3436
 8371TIP3    H246529   5.263   4.755  14.053 -0.3432 -0.5117  0.3797
 8372TIP3   OH246530   3.495   3.937   0.057  0.0303  0.5732  0.2839
 8372TIP3    H146531   3.522   3.859   0.008  0.9631  2.1121 -1.7324
 8372TIP3    H246532   3.432   3.981  -0.000 -0.2410  1.4623  1.2503
 8373TIP3   OH246533   2.271   6.082  12.742 -0.3417 -0.6822 -0.2537
 8373TIP3    H146534   2.276   6.071  12.647 -1.6866 -1.1265 -0.2849
 8373TIP3    H246535   2.275   5.993  12.777  0.0632 -0.5254  0.0996
 8374TIP3   OH246536   2.897   5.112  14.851  0.6753 -0.0980 -0.0678
 8374TIP3    H146537   2.820   5.122  14.907  0.7908 -0.5793  0.1795
 8374TIP3    H246538   2.887   5.024  14.813  0.6545  0.1779 -0.7153
 8375TIP3   OH246539   4.002   4.497  15.153  0.8564 -0.0891 -0.6868
 8375TIP3    H146540   3.927   4.472  15.099 -1.8584 -1.0719  3.3366
 8375TIP3    H246541   4.066   4.427  15.139  0.2997 -0.2122 -2.7498
 8376TIP3   OH246542   3.308   4.008  12.825 -0.3700 -0.2494 -0.2450
 8376TIP3    H146543   3.350   4.094  12.836  0.2396 -0.3392 -1.8189
 8376TIP3    H246544   3.278   4.008  12.734 -1.2698 -1.3165  0.0475
 8377TIP3   OH246545   3.298   6.265   0.346 -0.8927 -0.1933  0.6887
 8377TIP3    H146546   3.324   6.284   0.255 -2.5734  2.4642  0.7145
 8377TIP3    H246547   3.239   6.191   0.339 -1.8557  0.6603 -0.5476
 8378TIP3   OH246548   3.361   4.336  13.688  0.2566  0.0656  0.1570
 8378TIP3    H146549   3.364   4.263  13.750 -0.4609  0.1968  0.3527
 8378TIP3    H246550   3.452   4.367  13.683  0.3998 -0.2419  0.7903
 8379TIP3   OH246551   4.104   4.085  13.731  0.1431 -0.4045 -0.2694
 8379TIP3    H146552   4.017   4.052  13.754 -0.3427 -0.2075 -1.7500
 8379TIP3    H246553   4.128   4.036  13.653  1.7844 -1.1313  0.6893
 8380TIP3   OH246554   4.288   5.068  14.205  0.4987  0.3968 -0.1036
 8380TIP3    H146555   4.284   5.074  14.110 -0.0248  0.9568 -0.0429
 8380TIP3    H246556   4.246   4.984  14.225 -0.0971  0.6376 -0.3152
 8381TIP3   OH246557   6.954   6.246  13.467  0.3014  0.2450  0.5939
 8381TIP3    H146558   6.871   6.287  13.494 -0.1580 -0.1619 -0.1668
 8381TIP3    H246559   7.021   6.308  13.494 -0.2695  0.6760  1.0439
 8382TIP3   OH246560   6.207   4.486  12.533 -0.8669  0.4001  0.9437
 8382TIP3    H146561   6.270   4.449  12.595 -1.1405 -0.9717  0.4120
 8382TIP3    H246562   6.234   4.451  12.448 -0.7682  1.9156  0.3400
 8383TIP3   OH246563   4.421   6.450  15.774 -0.2865  0.9825  0.5142
 8383TIP3    H146564   4.418   6.541  15.804 -0.3214  0.7715  1.1498
 8383TIP3    H246565   4.414   6.398  15.854 -2.5169  0.4059 -0.0112
 8384TIP3   OH246566   1.023   3.621  14.607  0.0816 -0.3560 -0.0611
 8384TIP3    H146567   0.937   3.582  14.621  0.3492 -1.2529 -0.8960
 8384TIP3    H246568   1.072   3.555  14.558  0.3354  1.2744 -2.0486
 8385TIP3   OH246569   1.540   0.047  14.567 -0.1163  0.0136 -0.0044
 8385TIP3    H146570   1.574   0.092  14.490 -1.1359  0.4675 -0.2065
 8385TIP3    H246571   1.457   0.091  14.585 -0.3101 -0.6770  0.8214
 8386TIP3   OH246572   0.373   6.833  14.279  0.2655 -0.3543  0.2302
 8386TIP3    H146573   0.350   6.895  14.210  0.9824 -0.1536  0.1620
 8386TIP3    H246574   0.314   6.759  14.266  2.0558 -1.4541 -2.2043
 8387TIP3   OH246575   2.171   5.188  15.035  0.7075 -0.2373  0.2689
 8387TIP3    H146576   2.257   5.149  15.024  1.0823  1.1376 -1.8900
 8387TIP3    H246577   2.186   5.266  15.087  0.5224 -0.7870  1.1686
 8388TIP3   OH246578   1.735   6.701  14.306 -0.0155 -0.0533  0.1393
 8388TIP3    H146579   1.824   6.669  14.316  0.1183  0.0345 -0.7877
 8388TIP3    H246580   1.737   6.790  14.343  0.4365  0.1960 -0.4810
 8389TIP3   OH246581   1.461   3.299   0.183  0.5019 -0.0265  0.4637
 8389TIP3    H146582   1.550   3.271   0.162  0.4911  0.2459  0.0475
 8389TIP3    H246583   1.470   3.393   0.202  0.1715  0.1936 -0.4151
 8390TIP3   OH246584   2.267   5.804  12.801 -0.7446 -0.4761  0.5829
 8390TIP3    H146585   2.197   5.746  12.770 -0.2121 -0.8124  0.0082
 8390TIP3    H246586   2.346   5.770  12.761 -0.1039 -0.6442  1.9877
 8391TIP3   OH246587   1.283   3.708   0.469 -0.1072 -0.0120 -0.5282
 8391TIP3    H146588   1.372   3.712   0.434  0.0739  1.8595  0.1016
 8391TIP3    H246589   1.292   3.737   0.560 -1.2974 -0.1936 -0.3507
 8392TIP3   OH246590   3.039   6.135   0.425  0.1461 -0.3214 -0.4775
 8392TIP3    H146591   2.958   6.172   0.389 -0.7652 -0.8400  1.0046
 8392TIP3    H246592   3.017   6.111   0.515  2.3611  0.8088  0.3959
 8393TIP3   OH246593   0.946   5.882  14.420  0.7943 -0.0793 -0.3629
 8393TIP3    H146594   0.969   5.806  14.474  1.9806  0.5271  0.0262
 8393TIP3    H246595   1.028   5.906  14.377 -0.0669 -0.3315 -2.1648
 8394TIP3   OH246596   2.293   5.009  11.929 -0.7939  0.0826 -0.4839
 8394TIP3    H146597   2.373   5.047  11.965  0.4972 -1.7166 -1.4013
 8394TIP3    H246598   2.267   5.069  11.859  0.5872 -0.1032 -1.1634
 8395TIP3   OH246599   3.796   2.649  15.163 -0.4069  0.0491 -0.0556
 8395TIP3    H146600   3.789   2.744  15.152  0.1405  0.2868  1.6214
 8395TIP3    H246601   3.757   2.631  15.248 -2.0238 -1.4477 -1.0715
 8396TIP3   OH246602   5.596   5.422  14.415 -0.1931 -0.4090  0.5126
 8396TIP3    H146603   5.672   5.480  14.419  0.5340 -1.4357  1.9614
 8396TIP3    H246604   5.527   5.476  14.376  0.9177  0.9132  0.3185
 8397TIP3   OH246605   3.123   3.529  14.961 -0.4484  0.0016 -0.9926
 8397TIP3    H146606   3.082   3.598  14.910  1.9186  2.8354  0.7991
 8397TIP3    H246607   3.204   3.509  14.915 -0.9422 -1.3498 -1.2976
 8398TIP3   OH246608   2.120   5.531  14.113  0.1921  0.4609  0.5265
 8398TIP3    H146609   2.168   5.611  14.135  0.6288  0.0755  0.9931
 8398TIP3    H246610   2.127   5.477  14.192 -0.7881  0.2910  0.5030
 8399TIP3   OH246611   2.315   4.042  11.812  0.2564  0.0707 -0.0942
 8399TIP3    H146612   2.256   4.117  11.824  0.7304  0.1579  1.8186
 8399TIP3    H246613   2.295   3.984  11.886  0.9180 -1.0107 -0.7567
 8400TIP3   OH246614   1.887   3.272  14.647  0.2587 -0.5601 -0.6057
 8400TIP3    H146615   1.832   3.194  14.642 -0.8779  0.0569  1.8588
 8400TIP3    H246616   1.878   3.303  14.737  1.4003  1.9154 -1.2880
 8401TIP3   OH246617   2.638   6.093  15.648  0.5947  0.0075 -1.0171
 8401TIP3    H146618   2.693   6.127  15.578  1.9142 -0.7354 -0.3508
 8401TIP3    H246619   2.569   6.044  15.602  1.5931 -0.6944 -1.7983
 8402TIP3   OH246620   2.120   4.073  14.386 -0.6036 -0.3159 -0.2134
 8402TIP3    H146621   2.131   3.978  14.374 -0.4522 -0.5164  1.4423
 8402TIP3    H246622   2.208   4.108  14.383 -0.7256 -0.1032 -1.7150
 8403TIP3   OH246623   2.613   2.543  15.309 -0.2185 -0.3808 -0.0646
 8403TIP3    H146624   2.654   2.617  15.263  1.2391 -1.1538 -0.0237
 8403TIP3    H246625   2.543   2.515  15.251 -0.3229  0.5780 -0.4160
 8404TIP3   OH246626   0.725   5.749  13.420 -0.2787  0.1435 -0.0419
 8404TIP3    H146627   0.749   5.841  13.419  0.2195  0.0213  0.2349
 8404TIP3    H246628   0.723   5.724  13.328 -1.0167  0.5808 -0.1457
 8405TIP3   OH246629   4.426   3.556  15.432  0.6767  0.1076  0.0545
 8405TIP3    H146630   4.423   3.462  15.452 -1.7385  0.0090 -0.5518
 8405TIP3    H246631   4.372   3.596  15.500  0.9743  0.9458 -0.2043
 8406TIP3   OH246632   2.832   7.101  14.388 -0.0514  0.5573  0.2580
 8406TIP3    H146633   2.894   7.162  14.346 -2.1129  1.1509 -2.0159
 8406TIP3    H246634   2.876   7.016  14.383  0.3804  0.8736 -1.8106
 8407TIP3   OH246635   4.710   3.063  15.522 -0.1521  0.3200 -0.7090
 8407TIP3    H146636   4.678   3.003  15.455  2.6333  0.3096 -2.1035
 8407TIP3    H246637   4.714   3.010  15.602 -2.9671  0.1829 -0.6226
 8408TIP3   OH246638   3.632   3.406  14.917  0.3062  0.0981  0.4750
 8408TIP3    H146639   3.632   3.407  14.821 -1.1010  1.0708  0.4712
 8408TIP3    H246640   3.718   3.440  14.941 -0.2492  2.2179 -0.4470
 8409TIP3   OH246641   2.238   4.129   4.158  0.2196 -0.1567 -0.1754
 8409TIP3    H146642   2.203   4.084   4.235 -0.0390  1.3006  0.5832
 8409TIP3    H246643   2.310   4.182   4.193  0.9203 -0.4313 -1.1569
 8410TIP3   OH246644   2.833   5.053  15.799 -0.8139 -0.5371  0.2467
 8410TIP3    H146645   2.818   5.028  15.890  2.8336 -2.8465  0.2908
 8410TIP3    H246646   2.833   4.970  15.751 -3.5440  0.7027 -2.0797
 8411TIP3   OH246647   6.495   2.922  13.604  0.3945  1.0242 -0.3440
 8411TIP3    H146648   6.587   2.894  13.609  0.2725  0.8267  1.0079
 8411TIP3    H246649   6.472   2.945  13.694 -1.4815 -0.8388 -0.3076
 8412TIP3   OH246650   1.263   4.655  15.730 -0.4947 -0.1415 -0.0630
 8412TIP3    H146651   1.202   4.727  15.746  1.5661  1.1824  2.3311
 8412TIP3    H246652   1.226   4.581  15.777 -1.2241  0.1193 -0.2243
 8413TIP3   OH246653   2.416   2.862  14.888  0.0874 -0.2000  0.1178
 8413TIP3    H146654   2.379   2.878  14.801  2.0494  1.3274 -0.4722
 8413TIP3    H246655   2.413   2.767  14.898  1.5429 -0.5677 -2.4341
 8414TIP3   OH246656   2.280   1.625  15.679  0.0536  0.1460 -0.1388
 8414TIP3    H146657   2.341   1.569  15.631 -0.4384 -0.4603 -0.0709
 8414TIP3    H246658   2.228   1.667  15.611 -2.1963 -2.4653 -0.1459
 8415TIP3   OH246659   3.598   4.475  15.070 -0.0982 -0.1137  0.1074
 8415TIP3    H146660   3.504   4.492  15.073 -0.1340 -0.2543 -0.2862
 8415TIP3    H246661   3.636   4.542  15.128 -0.5801 -1.0641  1.5490
 8416TIP3   OH246662   2.801   4.535  13.647 -0.1454  0.6545  0.5186
 8416TIP3    H146663   2.895   4.522  13.662  0.0003  0.9379 -0.1274
 8416TIP3    H246664   2.760   4.457  13.684  0.4844 -0.2700 -0.6815
 8417TIP3   OH246665   0.238   6.418  15.289 -0.0227  0.6130  0.0362
 8417TIP3    H146666   0.321   6.455  15.318  0.3062  0.1465 -0.2989
 8417TIP3    H246667   0.263   6.344  15.234 -0.6617  0.4466 -0.0336
 8418TIP3   OH246668   0.010   5.402  12.592 -0.0157  0.1034  0.0108
 8418TIP3    H146669   0.042   5.314  12.570  1.2783  1.0790 -2.1536
 8418TIP3    H246670   0.007   5.449  12.508 -2.3574  1.6206  0.8832
 8419TIP3   OH246671   3.896   3.188   1.547 -0.1923  0.1295  0.0313
 8419TIP3    H146672   3.925   3.243   1.620 -2.0375 -1.3460  1.9466
 8419TIP3    H246673   3.841   3.122   1.588  0.3334 -1.9299 -2.4879
 8420TIP3   OH246674   3.188   4.782  14.481  0.0995  0.2641  0.2608
 8420TIP3    H146675   3.181   4.810  14.390 -1.0321  0.7922  0.4994
 8420TIP3    H246676   3.204   4.688  14.476  2.1184  0.6282 -0.5179
 8421TIP3   OH246677   1.219   4.819  15.301 -0.8444  0.4710 -0.1557
 8421TIP3    H146678   1.212   4.878  15.376 -0.0522  0.0841  0.2255
 8421TIP3    H246679   1.178   4.867  15.229  0.8096  1.9774 -0.1166
 8422TIP3   OH246680   3.258   4.798  13.268  0.1068  0.3652 -0.0033
 8422TIP3    H146681   3.183   4.857  13.268  0.4379  0.7976  1.4448
 8422TIP3    H246682   3.267   4.771  13.176 -3.0438 -1.3207  0.1294
 8423TIP3   OH246683   2.340   3.979   1.646  0.2738 -0.3671 -0.3704
 8423TIP3    H146684   2.432   3.988   1.673  0.2191 -0.7844 -0.0351
 8423TIP3    H246685   2.320   4.061   1.600 -0.2501  1.3455  2.7410
 8424TIP3   OH246686   4.086   6.890  15.726 -0.1373  0.3869 -0.7842
 8424TIP3    H146687   4.179   6.901  15.708 -0.2591 -0.6962 -2.1541
 8424TIP3    H246688   4.074   6.795  15.728 -0.8173  0.4752  1.5314
 8425TIP3   OH246689   2.453   5.104  14.900  0.1025 -0.0572  0.8838
 8425TIP3    H146690   2.525   5.060  14.946  0.5278 -0.7450 -0.4086
 8425TIP3    H246691   2.493   5.134  14.818 -0.9228  0.1627  0.4625
 8426TIP3   OH246692   4.586   3.113  13.329  0.2271  0.2168 -0.2646
 8426TIP3    H146693   4.616   3.078  13.413  1.4417  0.3068 -0.6416
 8426TIP3    H246694   4.495   3.138  13.344  0.2292 -0.3914  0.8304
 8427TIP3   OH246695   5.248   4.683  11.219  0.2291 -0.1730 -0.5233
 8427TIP3    H146696   5.296   4.752  11.173 -1.4048  1.1858 -0.2498
 8427TIP3    H246697   5.177   4.659  11.159  0.0783 -0.7792 -0.1070
 8428TIP3   OH246698   2.870   4.177  14.426 -0.0093 -0.3122  0.2738
 8428TIP3    H146699   2.830   4.092  14.407  0.0052 -0.7494  2.1465
 8428TIP3    H246700   2.960   4.156  14.452 -0.0656  0.2605  0.9440
 8429TIP3   OH246701   3.467   6.305  14.199  0.0425  0.0020 -0.0103
 8429TIP3    H146702   3.531   6.375  14.212  1.3212 -1.2078  0.3730
 8429TIP3    H246703   3.519   6.230  14.172 -1.2228 -0.9990  0.2883
 8430TIP3   OH246704   3.408   2.741  15.360  0.5960  0.4242 -0.1022
 8430TIP3    H146705   3.410   2.662  15.415 -1.4441  0.6608  0.3387
 8430TIP3    H246706   3.489   2.737  15.310  1.3378 -1.0689  1.1665
 8431TIP3   OH246707   2.912   5.135   0.195 -0.9936 -0.7975 -0.3088
 8431TIP3    H146708   2.950   5.055   0.159  0.4413 -0.3540  0.1499
 8431TIP3    H246709   2.828   5.108   0.232 -1.3211 -1.7375 -1.7078
 8432TIP3   OH246710   4.075   4.134  12.783 -0.0258  0.1986  0.0657
 8432TIP3    H146711   4.091   4.059  12.841  1.9817 -0.1049 -0.8613
 8432TIP3    H246712   4.054   4.094  12.698 -0.3783  0.6690 -0.0676
 8433TIP3   OH246713   3.925   3.809  14.997 -0.2555  0.0973 -0.5095
 8433TIP3    H146714   3.841   3.848  15.021  0.3768  0.4361  1.1704
 8433TIP3    H246715   3.939   3.838  14.906 -1.3665  1.0512 -0.3900
 8434TIP3   OH246716   5.037   3.497  13.829  0.0926 -0.2409 -0.2974
 8434TIP3    H146717   4.949   3.481  13.794  0.0803  0.7909 -0.7517
 8434TIP3    H246718   5.095   3.475  13.756  0.1783 -0.2210 -0.2349
 8435TIP3   OH246719   4.102   4.964  12.761 -0.1538 -0.2054  0.1196
 8435TIP3    H146720   4.088   4.960  12.856  1.2430  0.6542  0.3800
 8435TIP3    H246721   4.189   5.004  12.752  0.6750 -2.2929 -1.4637
 8436TIP3   OH246722   1.908   4.450  14.842 -0.2324 -0.3516 -0.3773
 8436TIP3    H146723   2.002   4.469  14.840 -0.1749 -0.4140  1.0687
 8436TIP3    H246724   1.890   4.405  14.760  0.6031  1.5237 -1.6154
 8437TIP3   OH246725   5.100   3.548   0.081 -0.1696  0.1839 -0.1967
 8437TIP3    H146726   5.024   3.502   0.048  0.9636 -0.8225 -1.4464
 8437TIP3    H246727   5.167   3.538   0.013  0.9643  1.3751  0.6931
 8438TIP3   OH246728   3.660   3.129  14.598 -0.0792 -0.6438  0.2383
 8438TIP3    H146729   3.740   3.126  14.547 -1.2127  0.2371 -1.6371
 8438TIP3    H246730   3.591   3.104  14.537 -1.7210  2.3235  0.7809
 8439TIP3   OH246731   0.889   3.674  15.291  0.4593  0.1759  0.3326
 8439TIP3    H146732   0.839   3.645  15.368 -0.9879 -0.5897 -0.8643
 8439TIP3    H246733   0.975   3.697  15.326 -0.1120 -0.3374  2.1571
 8440TIP3   OH246734   1.646   4.426  13.940 -0.3093  0.0892  0.0817
 8440TIP3    H146735   1.576   4.462  13.885 -1.2698 -1.3866  0.2868
 8440TIP3    H246736   1.643   4.478  14.020 -1.5969 -0.3441  0.3330
 8441TIP3   OH246737   3.395   4.330  15.581  0.3360  0.0937 -0.2557
 8441TIP3    H146738   3.337   4.254  15.587  1.9896 -1.1354  0.5507
 8441TIP3    H246739   3.483   4.293  15.576  1.2203  1.9606  0.8479
 8442TIP3   OH246740   4.917   3.881  14.046 -0.1559 -0.1977  0.0907
 8442TIP3    H146741   4.978   3.874  14.119  0.3452  0.2131 -0.2877
 8442TIP3    H246742   4.885   3.972  14.049 -0.2402 -0.2184 -0.1160
 8443TIP3   OH246743   0.841   3.671  15.719  0.0130 -0.1567 -0.4750
 8443TIP3    H146744   0.773   3.650  15.783  2.4982  1.1687  2.7193
 8443TIP3    H246745   0.796   3.666  15.634 -4.7958  3.2669  1.6222
 8444TIP3   OH246746   4.568   6.007  15.040 -0.6104 -0.2258 -0.3087
 8444TIP3    H146747   4.635   6.004  14.972  0.5733  1.6797  0.7348
 8444TIP3    H246748   4.607   5.962  15.115 -0.7531  0.2731  0.0711
 8445TIP3   OH246749   2.632   3.276  14.324 -0.1955 -0.0113  0.3773
 8445TIP3    H146750   2.540   3.304  14.332 -0.3445 -0.6843  1.1047
 8445TIP3    H246751   2.627   3.182  14.306  0.3659 -0.2331  1.3664
 8446TIP3   OH246752   2.951   5.852   2.549  0.3341 -0.2753  0.7807
 8446TIP3    H146753   2.991   5.767   2.568 -1.8025 -1.3774  0.5264
 8446TIP3    H246754   2.956   5.859   2.453 -0.5896 -0.7163  0.6858
 8447TIP3   OH246755   3.039   6.058  15.362 -0.0967  0.1353  0.0609
 8447TIP3    H146756   3.109   6.013  15.315 -0.2375 -0.1117  0.0822
 8447TIP3    H246757   2.974   5.990  15.378 -1.6840  0.9715 -2.5444
 8448TIP3   OH246758   3.619   5.193  15.595 -0.2945 -0.0023  0.2119
 8448TIP3    H146759   3.538   5.194  15.544  0.2255 -1.4229 -0.6881
 8448TIP3    H246760   3.686   5.221  15.532  0.1254 -0.2836  0.5330
 8449TIP3   OH246761   3.282   5.117  14.555  0.3732 -0.4512 -0.1168
 8449TIP3    H146762   3.253   5.160  14.474 -0.7124  1.5749  1.2805
 8449TIP3    H246763   3.330   5.186  14.601 -1.0337 -0.8507  1.9871
 8450TIP3   OH246764   1.074   0.158  14.750  0.1174  0.4305  0.4628
 8450TIP3    H146765   0.983   0.181  14.734 -0.3238 -1.8133 -0.4882
 8450TIP3    H246766   1.073   0.115  14.836 -0.1697 -1.7929 -0.6103
 8451TIP3   OH246767   0.266   2.738  15.833  0.9971  0.3537  0.2336
 8451TIP3    H146768   0.250   2.781  15.749  4.2298  0.1252 -0.5936
 8451TIP3    H246769   0.233   2.649  15.821  1.2600  0.3819 -0.7481
 8452TIP3   OH246770   3.797   5.342  13.840 -0.2519 -0.3602  0.4095
 8452TIP3    H146771   3.751   5.408  13.892  1.1708  0.7694  0.2435
 8452TIP3    H246772   3.886   5.374  13.833  0.1650 -1.7097 -0.7066
 8453TIP3   OH246773   2.008   6.591   0.239 -0.5902 -0.1089 -0.5719
 8453TIP3    H146774   2.049   6.560   0.158 -1.8921 -1.4917 -0.7193
 8453TIP3    H246775   1.966   6.673   0.214  3.6026  2.3499  0.0223
 8454TIP3   OH246776   2.630   5.213   0.142 -0.3166  0.3436  0.1686
 8454TIP3    H146777   2.620   5.160   0.063  1.9670 -0.3574  0.3299
 8454TIP3    H246778   2.625   5.304   0.111 -0.9277  0.0657 -0.5522
 8455TIP3   OH246779   1.583   6.161  15.405  0.1714 -0.5932  0.2537
 8455TIP3    H146780   1.623   6.180  15.320 -0.0494  0.2884  0.3378
 8455TIP3    H246781   1.489   6.173  15.391  0.0847 -1.0013  0.4803
 8456TIP3   OH246782   2.756   6.526  15.655  0.1972 -0.2801  0.0475
 8456TIP3    H146783   2.828   6.552  15.712  0.2817  0.3734 -0.3621
 8456TIP3    H246784   2.770   6.432  15.640  1.7453  0.1397 -1.1832
 8457TIP3   OH246785   2.693   5.466  12.188  0.7330 -0.0574 -0.1261
 8457TIP3    H146786   2.626   5.498  12.127 -0.1246  1.0264  1.3611
 8457TIP3    H246787   2.663   5.378  12.211  0.4730 -0.0489 -0.4159
 8458TIP3   OH246788   4.269   7.153  15.852 -0.1799 -0.2816  0.7860
 8458TIP3    H146789   4.316   7.109  15.922  0.6919  0.0800  0.4274
 8458TIP3    H246790   4.189   7.100  15.841  1.8169 -3.0558 -1.0772
 8459TIP3   OH246791   0.553   4.597  14.395 -0.4633  0.0508  0.0535
 8459TIP3    H146792   0.522   4.507  14.403  0.3734 -0.2421  0.0101
 8459TIP3    H246793   0.480   4.650  14.428  0.3295 -0.7895  3.3392
 8460TIP3   OH246794   4.952   4.738  15.605  0.1928  0.0079  0.5467
 8460TIP3    H146795   4.889   4.723  15.534  3.0931 -2.2278 -1.6904
 8460TIP3    H246796   4.932   4.670  15.669 -0.3430 -0.0158  0.3616
 8461TIP3   OH246797   5.237   4.236  14.850 -0.5760  0.2309 -0.3377
 8461TIP3    H146798   5.213   4.204  14.763 -1.0650 -2.5341  0.7732
 8461TIP3    H246799   5.283   4.163  14.891  0.4769  1.8253  1.4245
 8462TIP3   OH246800   1.965   2.559  14.683  0.7793 -0.2928  0.3452
 8462TIP3    H146801   2.012   2.583  14.763  1.5942 -1.4330  0.2060
 8462TIP3    H246802   1.886   2.613  14.685 -0.0255 -1.5071  2.7619
 8463TIP3   OH246803   3.243   2.892   0.098 -0.1826 -0.6320  0.2134
 8463TIP3    H146804   3.151   2.904   0.120 -0.3437 -0.1915 -0.6716
 8463TIP3    H246805   3.287   2.879   0.182 -0.4892  2.7456  0.9619
 8464TIP3   OH246806   3.108   4.673  12.725  0.0718  0.0710  0.4712
 8464TIP3    H146807   3.093   4.583  12.756 -0.2116  0.1456  0.5532
 8464TIP3    H246808   3.035   4.723  12.761  0.0469  0.2701  0.1437
 8465TIP3   OH246809   3.607   3.365   0.126  0.0176  0.1686 -0.8524
 8465TIP3    H146810   3.516   3.335   0.128 -0.1161  0.6509  1.0744
 8465TIP3    H246811   3.658   3.284   0.118 -0.5340 -0.2294 -0.4562
 8466TIP3   OH246812   1.539   5.899  13.730  0.5141 -0.2307 -0.3072
 8466TIP3    H146813   1.548   5.994  13.728  4.0536 -0.4816  0.4944
 8466TIP3    H246814   1.616   5.866  13.683  0.2217 -2.6942  0.8315
 8467TIP3   OH246815   2.410   4.203  13.530 -0.1918 -0.0823 -0.8457
 8467TIP3    H146816   2.388   4.292  13.504 -0.3363  0.2153  0.2816
 8467TIP3    H246817   2.337   4.150  13.498 -0.8781  0.4278 -0.1292
 8468TIP3   OH246818   3.658   3.612  15.379  0.2086 -0.0167  0.3648
 8468TIP3    H146819   3.596   3.596  15.308  0.3450 -1.5394  0.5823
 8468TIP3    H246820   3.604   3.633  15.455  0.0791  2.4621 -0.3560
 8469TIP3   OH246821   3.448   5.498  12.020 -0.6316  0.5998  0.3653
 8469TIP3    H146822   3.410   5.428  11.967 -0.6517  1.6300 -1.0009
 8469TIP3    H246823   3.373   5.545  12.056 -0.6263  0.7863  0.1294
 8470TIP3   OH246824   4.407   4.295  13.778 -0.9964  0.0120  0.2217
 8470TIP3    H146825   4.423   4.214  13.827  0.4094 -0.4232 -0.9417
 8470TIP3    H246826   4.347   4.345  13.834 -0.4586 -1.0462  1.7793
 8471TIP3   OH246827   4.519   5.285  12.561  0.0962 -0.3665  0.1676
 8471TIP3    H146828   4.567   5.202  12.552 -0.7515 -1.0817  2.1104
 8471TIP3    H246829   4.560   5.343  12.497  1.3728 -1.9788 -0.5070
 8472TIP3   OH246830   4.340   3.468  15.685 -0.1617  0.2252 -0.1979
 8472TIP3    H146831   4.367   3.444  15.774  0.3646  0.3138 -0.3353
 8472TIP3    H246832   4.257   3.420  15.672 -0.9825  1.3255  0.8578
 8473TIP3   OH246833   3.623   1.844   0.003  0.4940 -0.4027 -0.0655
 8473TIP3    H146834   3.642   1.906  -0.067  0.1460 -0.9993 -0.6949
 8473TIP3    H246835   3.574   1.895   0.068  0.2223 -0.0148 -0.5701
 8474TIP3   OH246836   4.460   3.666  13.095 -0.5031 -0.3886 -0.1986
 8474TIP3    H146837   4.444   3.730  13.026  0.9517 -1.4740 -1.5516
 8474TIP3    H246838   4.375   3.623  13.108 -1.1204  0.7617 -0.3195
 8475TIP3   OH246839   2.883   1.705  15.950 -0.0986  0.6011 -0.3456
 8475TIP3    H146840   2.849   1.684  15.863  0.4942  2.6441 -1.0977
 8475TIP3    H246841   2.835   1.648  16.009 -1.4902  0.1599 -1.8767
 8476TIP3   OH246842   1.965   5.016  13.607  0.0443  0.5205  0.2054
 8476TIP3    H146843   2.013   5.097  13.623  1.2047 -0.0702 -0.1370
 8476TIP3    H246844   1.999   4.955  13.673  2.3874 -0.9331 -2.2056
 8477TIP3   OH246845   5.221   4.572  14.320  0.5998  0.0763 -0.2615
 8477TIP3    H146846   5.295   4.530  14.364  0.6582 -0.1077 -0.5361
 8477TIP3    H246847   5.258   4.617  14.245  0.3492 -0.5731 -0.7814
 8478TIP3   OH246848   5.972   5.805  12.233  0.4307  0.0759 -0.1290
 8478TIP3    H146849   6.018   5.823  12.316  0.5243  1.6447 -0.5031
 8478TIP3    H246850   5.898   5.865  12.233 -1.0098 -1.6770 -0.0492
 8479TIP3   OH246851   3.406   4.779  15.051 -0.4814 -0.1975 -0.0692
 8479TIP3    H146852   3.443   4.754  14.966 -0.9093  1.3606 -0.7362
 8479TIP3    H246853   3.313   4.757  15.044 -0.5389  0.0375 -0.0490
 8480TIP3   OH246854   5.564   3.158  11.880 -0.3620 -0.5265 -0.5443
 8480TIP3    H146855   5.652   3.192  11.896 -0.4714 -0.5199  0.0584
 8480TIP3    H246856   5.576   3.063  11.876 -0.5302 -0.6308  0.9634
 8481TIP3   OH246857   6.484   5.583   0.554 -0.0357  0.2436 -0.4772
 8481TIP3    H146858   6.505   5.591   0.647  0.2575 -0.3493 -0.4860
 8481TIP3    H246859   6.412   5.519   0.551 -0.2996  0.5501 -0.6252
 8482TIP3   OH246860   2.751   5.156  13.477 -0.1484 -0.0689 -0.0080
 8482TIP3    H146861   2.703   5.073  13.478 -0.8014  0.3195  1.2148
 8482TIP3    H246862   2.835   5.134  13.437 -0.7485 -1.0799 -0.7306
 8483TIP3   OH246863   5.866   2.980   0.493 -0.1083 -0.5922  0.5687
 8483TIP3    H146864   5.774   3.006   0.487 -0.2274 -1.0945  0.2256
 8483TIP3    H246865   5.876   2.909   0.429  1.1763  1.2828 -1.3847
 8484TIP3   OH246866   3.674   6.076  14.772 -0.3722  0.0891  0.1494
 8484TIP3    H146867   3.698   6.161  14.808 -0.4683  0.2027 -0.0537
 8484TIP3    H246868   3.645   6.025  14.848  0.0714  0.1026  0.3257
 8485TIP3   OH246869   4.325   5.506  14.119  0.1176 -0.0749 -0.0621
 8485TIP3    H146870   4.373   5.449  14.059  0.9455 -0.6220  1.0875
 8485TIP3    H246871   4.308   5.585  14.069  0.0379 -0.8565 -1.2839
 8486TIP3   OH246872   5.270   5.298   0.353  0.3452  0.1810 -0.1972
 8486TIP3    H146873   5.362   5.295   0.380  0.4796  0.7679 -0.5877
 8486TIP3    H246874   5.241   5.385   0.377 -0.6055 -0.5840  1.5120
 8487TIP3   OH246875   1.223   2.225  14.793 -0.0342 -0.1166 -0.4186
 8487TIP3    H146876   1.289   2.283  14.830 -0.3064 -0.6718  0.9457
 8487TIP3    H246877   1.270   2.146  14.769  0.1216  0.2009 -1.1878
 8488TIP3   OH246878   3.728   3.737  14.155 -0.4418  1.0711  0.5815
 8488TIP3    H146879   3.819   3.710  14.157 -0.8011 -0.1370  0.7196
 8488TIP3    H246880   3.701   3.736  14.247 -1.4976 -1.6976  0.2777
 8489TIP3   OH246881   4.434   3.431  15.021  0.0292 -0.5284  0.5589
 8489TIP3    H146882   4.373   3.465  15.087 -0.5567 -0.1047 -0.1932
 8489TIP3    H246883   4.410   3.339  15.012  1.1330 -0.9756  2.0651
 8490TIP3   OH246884   3.043   3.587   2.651  0.1749  0.1316  0.0746
 8490TIP3    H146885   2.967   3.529   2.643  0.6481 -0.6111  0.9691
 8490TIP3    H246886   3.054   3.624   2.563 -0.4404 -0.7419 -0.3728
 8491TIP3   OH246887   4.324   5.226  12.069  0.3477  0.5188  0.0610
 8491TIP3    H146888   4.394   5.202  12.007 -0.4700  0.6732 -0.9411
 8491TIP3    H246889   4.334   5.321  12.080  2.1184  0.1088  2.2083
 8492TIP3   OH246890   4.534   5.317  14.622 -0.5033 -0.4942  0.0493
 8492TIP3    H146891   4.467   5.256  14.592 -0.4656 -1.0729  1.1016
 8492TIP3    H246892   4.611   5.297  14.569 -0.4406 -1.4904  0.5102
 8493TIP3   OH246893   5.356   5.000  15.043  0.5970  0.1719 -0.4121
 8493TIP3    H146894   5.424   5.065  15.030  0.7659 -0.0634 -0.7177
 8493TIP3    H246895   5.386   4.923  14.994  0.9442 -0.5110  0.8494
 8494TIP3   OH246896   3.381   6.615  15.488  0.3350  0.0173 -0.1924
 8494TIP3    H146897   3.467   6.652  15.468  0.4841  0.6481  1.5292
 8494TIP3    H246898   3.321   6.659  15.428  1.3305 -1.2150 -2.1724
 8495TIP3   OH246899   4.477   6.491  14.127 -0.3845  0.0561 -0.0960
 8495TIP3    H146900   4.389   6.521  14.103 -1.1302 -2.9444 -1.3765
 8495TIP3    H246901   4.462   6.412  14.178  1.5962 -1.0960 -1.2368
 8496TIP3   OH246902   5.012   4.244  12.079  0.2274  0.1505  0.6013
 8496TIP3    H146903   4.981   4.154  12.083  2.7926 -0.8082 -0.2429
 8496TIP3    H246904   4.976   4.279  11.997 -0.5909 -0.1647  0.8247
 8497TIP3   OH246905   4.217   5.075  15.348  0.1050  0.2420 -0.1602
 8497TIP3    H146906   4.306   5.060  15.381  0.0294  0.1613  0.0115
 8497TIP3    H246907   4.218   5.164  15.315  0.6467 -0.2396 -1.4555
 8498TIP3   OH246908   3.767   6.240  15.780  0.9140  0.5454  0.2215
 8498TIP3    H146909   3.724   6.325  15.792 -0.4566  0.0320 -0.8921
 8498TIP3    H246910   3.705   6.190  15.728  1.3886 -1.4135  1.5139
 8499TIP3   OH246911   4.686   4.051  13.505  0.4926 -0.2046 -0.7344
 8499TIP3    H146912   4.736   4.023  13.581 -0.2048 -1.2849 -0.6551
 8499TIP3    H246913   4.685   3.974  13.448  0.0114  0.2181 -1.2925
 8500TIP3   OH246914   4.090   5.185  14.324  0.2421 -0.5278  0.2702
 8500TIP3    H146915   4.022   5.120  14.305 -0.2394  0.2377 -0.6480
 8500TIP3    H246916   4.170   5.145  14.290 -0.1145 -0.4749 -0.6343
 8501TIP3   OH246917   6.187   1.555  13.765  0.5169  0.2947  0.0250
 8501TIP3    H146918   6.140   1.631  13.729 -2.1530 -1.7377 -0.9345
 8501TIP3    H246919   6.238   1.522  13.691  1.7124  1.1362  0.4538
 8502TIP3   OH246920   4.786   2.001  14.636 -0.1537  0.2002 -0.5772
 8502TIP3    H146921   4.854   1.935  14.645 -1.9011 -1.5249  0.4457
 8502TIP3    H246922   4.715   1.957  14.590 -1.1703  1.5020 -0.2964
 8503TIP3   OH246923   6.375   6.002  13.094 -0.0233  0.1436 -0.3777
 8503TIP3    H146924   6.426   5.956  13.160 -0.4193 -0.5973 -0.5864
 8503TIP3    H246925   6.343   6.080  13.139  1.2704  0.6093 -0.2450
 8504TIP3   OH246926   5.884   6.625  13.842 -0.0293 -0.2899 -0.7867
 8504TIP3    H146927   5.963   6.575  13.860  0.9809  1.8289  0.9238
 8504TIP3    H246928   5.813   6.572  13.878  1.1517  0.0441  2.1545
 8505TIP3   OH246929   6.693   6.535  15.095  0.4085  0.0012 -0.3487
 8505TIP3    H146930   6.709   6.445  15.124  1.0754  1.1961  3.2362
 8505TIP3    H246931   6.599   6.538  15.075  0.4504 -1.5333 -0.8424
 8506TIP3   OH246932   4.191   3.730  14.738  0.2676 -0.2187 -0.6000
 8506TIP3    H146933   4.242   3.653  14.712 -0.2736 -0.9176  0.3576
 8506TIP3    H246934   4.200   3.791  14.665  0.2834 -1.3917 -1.5902
 8507TIP3   OH246935   3.208   3.268  13.774 -0.2520 -0.2305 -0.8121
 8507TIP3    H146936   3.134   3.329  13.779  0.5592  0.5906  2.7466
 8507TIP3    H246937   3.177   3.198  13.716 -3.2411  0.8471 -0.6238
 8508TIP3   OH246938   4.955   4.821  13.233  0.0245 -0.2962 -1.1878
 8508TIP3    H146939   4.868   4.785  13.251 -0.8033  1.7836 -0.8797
 8508TIP3    H246940   4.940   4.884  13.163  0.9192  1.5633  0.2633
 8509TIP3   OH246941   6.889   5.284  13.596 -0.2874 -0.2422  0.0839
 8509TIP3    H146942   6.946   5.210  13.573 -2.3089 -1.3385 -1.6877
 8509TIP3    H246943   6.826   5.288  13.524 -0.9896  2.4357  0.8051
 8510TIP3   OH246944   4.633   6.515  12.428 -0.2218  0.1329  0.2589
 8510TIP3    H146945   4.588   6.462  12.362  0.7322 -1.4220  0.8249
 8510TIP3    H246946   4.680   6.581  12.377  0.2843 -0.8897 -0.6138
 8511TIP3   OH246947   4.805   5.640  14.316  0.3984 -0.4389 -0.5291
 8511TIP3    H146948   4.723   5.591  14.322 -0.1694  0.5257 -0.3390
 8511TIP3    H246949   4.868   5.589  14.368  0.1497 -1.6243 -1.3639
 8512TIP3   OH246950   5.052   4.165  12.347 -0.0023  0.3425 -0.0771
 8512TIP3    H146951   5.064   4.226  12.274 -0.0994 -0.7830 -1.0463
 8512TIP3    H246952   4.992   4.099  12.313  2.1880 -1.7810  0.0310
 8513TIP3   OH246953   4.736   5.273  15.087 -0.0741  0.2025 -0.3547
 8513TIP3    H146954   4.704   5.206  15.027 -1.6495 -0.7178  1.4616
 8513TIP3    H246955   4.798   5.226  15.144 -0.4007  0.5156  0.2600
 8514TIP3   OH246956   3.860   2.377  15.106  0.4376 -0.5872  0.2775
 8514TIP3    H146957   3.842   2.464  15.143 -2.0088 -0.9428  0.0395
 8514TIP3    H246958   3.929   2.341  15.161  1.5369  1.5434  0.3301
 8515TIP3   OH246959   4.203   1.904  15.782 -0.2645 -0.1445 -0.1340
 8515TIP3    H146960   4.245   1.819  15.793 -0.6132 -0.2876  0.1126
 8515TIP3    H246961   4.260   1.965  15.828  0.6896 -0.0330 -1.4423
 8516TIP3   OH246962   6.034   5.950  11.203  0.5071  0.5772 -0.1197
 8516TIP3    H146963   6.052   5.941  11.109 -1.6629 -1.1923 -0.4172
 8516TIP3    H246964   5.997   6.037  11.212 -0.1324  0.4152 -1.0697
 8517TIP3   OH246965   5.102   5.379   0.991  0.2037 -0.2196  0.3432
 8517TIP3    H146966   5.026   5.396   1.047  1.2222  1.1365  1.3611
 8517TIP3    H246967   5.176   5.412   1.042  1.2959 -0.1869 -1.2597
 8518TIP3   OH246968   7.268   5.178  11.982  0.5329  0.1121 -0.3585
 8518TIP3    H146969   7.251   5.101  11.927  2.3799  1.1260 -2.4388
 8518TIP3    H246970   7.204   5.171  12.053  0.1753 -2.9312 -0.9089
 8519TIP3   OH246971   5.277   1.005  14.406  0.1725  0.1586  0.3516
 8519TIP3    H146972   5.244   1.067  14.471 -1.0674 -0.3425  0.2129
 8519TIP3    H246973   5.262   1.049  14.322  0.6412  0.2862  0.3325
 8520TIP3   OH246974   6.501   6.270  13.977  0.1893  0.0848  0.0288
 8520TIP3    H146975   6.514   6.302  13.887  0.4814 -0.6317 -0.1848
 8520TIP3    H246976   6.589   6.243  14.005 -0.3546 -2.1835 -0.4191
 8521TIP3   OH246977   0.982   5.688  12.041  0.2532  0.2500  0.5984
 8521TIP3    H146978   0.997   5.676  11.948 -0.2926 -0.7866  0.6377
 8521TIP3    H246979   1.042   5.758  12.067  2.6054 -1.5454  0.1122
 8522TIP3   OH246980   5.937   4.634  13.803 -0.2205  0.1804  0.1056
 8522TIP3    H146981   5.849   4.600  13.791 -0.4517  0.7882  0.1032
 8522TIP3    H246982   5.930   4.728  13.787  0.3002  0.3335  0.7314
 8523TIP3   OH246983   6.352   3.772   1.419 -0.1867 -0.0814  0.1139
 8523TIP3    H146984   6.353   3.809   1.507 -0.9995 -0.1861  0.1631
 8523TIP3    H246985   6.281   3.709   1.419  1.0527 -1.5064 -0.0424
 8524TIP3   OH246986   3.781   6.547  14.659  0.7177 -0.8209 -0.0135
 8524TIP3    H146987   3.818   6.626  14.619  0.4686 -1.4301 -1.4552
 8524TIP3    H246988   3.784   6.565  14.753  0.8056  0.8595 -0.3120
 8525TIP3   OH246989   6.106   5.678   0.769  0.0597 -0.8729 -0.7045
 8525TIP3    H146990   6.121   5.772   0.775 -0.8253 -0.8280  1.0203
 8525TIP3    H246991   6.180   5.639   0.816 -0.3287 -0.9778 -0.1723
 8526TIP3   OH246992   4.343   4.940  14.689 -0.1926 -0.0118  0.2671
 8526TIP3    H146993   4.340   4.973  14.778  1.0022 -0.2920  0.4197
 8526TIP3    H246994   4.280   4.868  14.688 -0.5823  0.3214  0.7416
 8527TIP3   OH246995   4.935   5.121  12.741 -0.1577 -0.1983  0.2265
 8527TIP3    H146996   4.906   5.179  12.671 -0.8408 -3.0213 -1.9170
 8527TIP3    H246997   4.856   5.103  12.792 -0.6767 -1.9100 -1.1417
 8528TIP3   OH246998   3.000   3.289  14.920 -0.4402 -0.5412 -0.2195
 8528TIP3    H146999   2.964   3.294  14.831  0.2814 -1.2974 -0.5619
 8528TIP3    H247000   3.026   3.378  14.940  0.6888 -0.6005 -1.3259
 8529TIP3   OH247001   3.383   6.362  12.981  0.5341 -0.1305  0.2554
 8529TIP3    H147002   3.344   6.441  13.018  1.5707  1.1131 -1.2280
 8529TIP3    H247003   3.421   6.316  13.056  0.2742  0.9708  1.0657
 8530TIP3   OH247004   5.983   3.398  14.353  0.2638  0.3314 -0.0560
 8530TIP3    H147005   5.926   3.448  14.296 -0.3525  1.3889  1.4424
 8530TIP3    H247006   6.055   3.459  14.373  1.3208 -0.5917 -1.0102
 8531TIP3   OH247007   6.716   5.321  14.751  0.0446  0.0997  0.1719
 8531TIP3    H147008   6.699   5.372  14.672  1.0594  0.6735  0.3148
 8531TIP3    H247009   6.632   5.280  14.772 -0.2905  0.1355 -1.0636
 8532TIP3   OH247010   5.673   4.529  13.717  0.5248  0.0962  0.2711
 8532TIP3    H147011   5.628   4.453  13.753 -1.6657  0.5166 -1.4051
 8532TIP3    H247012   5.611   4.564  13.653  2.6966  1.5808 -1.0753
 8533TIP3   OH247013   3.954   3.039  15.167  0.6770 -0.8708 -0.2845
 8533TIP3    H147014   4.015   2.991  15.111  0.7255 -1.0005 -0.1187
 8533TIP3    H247015   3.988   3.028  15.256  0.4060 -0.9532 -0.1895
 8534TIP3   OH247016   6.680   5.369   0.395  0.2337 -0.4579  0.5329
 8534TIP3    H147017   6.604   5.394   0.448 -0.8542 -1.3660 -0.5761
 8534TIP3    H247018   6.648   5.372   0.304  1.5316 -0.8080  0.0516
 8535TIP3   OH247019   3.663   6.731  15.353  0.1740  0.0278  0.1555
 8535TIP3    H147020   3.604   6.755  15.282 -1.4531 -0.6524  1.2458
 8535TIP3    H247021   3.661   6.807  15.412  0.9827  0.3125 -0.1827
 8536TIP3   OH247022   5.677   4.930  15.086 -0.4424 -0.2507 -0.5183
 8536TIP3    H147023   5.767   4.901  15.101 -0.4602  0.6863  1.4684
 8536TIP3    H247024   5.623   4.858  15.119 -0.4544 -0.8177 -1.7200
 8537TIP3   OH247025   5.997   4.084  15.525  0.6044 -0.5885 -0.1830
 8537TIP3    H147026   5.913   4.126  15.511  0.3456 -0.6931  1.0179
 8537TIP3    H247027   6.053   4.117  15.454 -0.0863  0.4422 -0.2544
 8538TIP3   OH247028   6.454   4.554  14.491  0.1855 -0.1242 -0.2269
 8538TIP3    H147029   6.483   4.585  14.577  1.6392 -2.2715  0.1017
 8538TIP3    H247030   6.359   4.545  14.500 -0.0129  2.1877  0.2973
 8539TIP3   OH247031   2.130   4.032  15.834  0.5385  0.6183 -0.3614
 8539TIP3    H147032   2.050   4.046  15.884 -0.0568  0.0704 -1.1492
 8539TIP3    H247033   2.194   4.000  15.898 -0.0937  0.3182  0.1202
 8540TIP3   OH247034   5.760   5.083  13.509 -0.6354  0.4430  0.4688
 8540TIP3    H147035   5.814   5.136  13.567 -0.4171  1.3097 -0.5096
 8540TIP3    H247036   5.800   5.094  13.423 -2.1558  0.8116 -0.2036
 8541TIP3   OH247037   4.970   5.651  15.331 -0.3729  0.0835  0.2101
 8541TIP3    H147038   5.027   5.574  15.326 -0.7150 -0.3407  2.5336
 8541TIP3    H247039   5.027   5.724  15.306  0.5599 -0.6345  0.2031
 8542TIP3   OH247040   3.119   3.019  13.628 -0.0391  0.0293 -0.4660
 8542TIP3    H147041   3.121   2.923  13.625  2.0774  0.0261  0.4169
 8542TIP3    H247042   3.047   3.043  13.570  2.3274 -1.8994 -4.3720
 8543TIP3   OH247043   4.259   3.656  13.703  0.6056  0.3756  0.3731
 8543TIP3    H147044   4.292   3.745  13.706 -0.9486  1.0615 -1.8432
 8543TIP3    H247045   4.287   3.622  13.618  0.1283 -0.8087  0.6710
 8544TIP3   OH247046   5.505   3.782  12.862  0.6732 -0.0727  0.4241
 8544TIP3    H147047   5.417   3.813  12.887  1.2348  2.2991 -0.3988
 8544TIP3    H247048   5.564   3.831  12.919  1.7205  2.2416 -2.5331
 8545TIP3   OH247049   4.271   2.837  12.987  0.2351  0.5949  0.1444
 8545TIP3    H147050   4.223   2.762  12.952 -0.0830  1.5904 -1.6251
 8545TIP3    H247051   4.217   2.869  13.058  0.0985 -0.5128  0.5545
 8546TIP3   OH247052   4.437   2.715  13.390  0.1115  0.0100 -0.6939
 8546TIP3    H147053   4.491   2.679  13.320  1.8973 -0.5628  0.9291
 8546TIP3    H247054   4.500   2.756  13.449 -1.3144 -0.0021  0.8484
 8547TIP3   OH247055   5.553   5.801  15.390 -0.0976  0.2349  0.5471
 8547TIP3    H147056   5.599   5.726  15.427 -1.5560  0.1571  2.2335
 8547TIP3    H247057   5.594   5.877  15.433  0.1927  0.3231  0.1238
 8548TIP3   OH247058   5.490   2.275  13.212  0.1041 -0.2175 -0.1343
 8548TIP3    H147059   5.421   2.310  13.156  0.2673  0.3636  0.0234
 8548TIP3    H247060   5.447   2.257  13.296 -0.0427 -0.6792 -0.3040
 8549TIP3   OH247061   4.808   3.309  15.581  0.0994 -0.2111  1.1677
 8549TIP3    H147062   4.778   3.218  15.587 -1.7308  0.3391  0.7482
 8549TIP3    H247063   4.794   3.345  15.669  1.4105 -0.5030  1.5005
 8550TIP3   OH247064   5.134   4.685  11.959 -0.6174 -0.4593  0.0331
 8550TIP3    H147065   5.046   4.676  11.924  0.0157 -1.4963 -1.3186
 8550TIP3    H247066   5.191   4.684  11.882  0.6789 -1.2712  0.9784
 8551TIP3   OH247067   4.970   2.023  14.990  0.0715  1.1679  0.2144
 8551TIP3    H147068   4.972   1.948  14.931 -1.5541  0.0688  1.5110
 8551TIP3    H247069   4.966   2.100  14.932  0.7628  0.2272 -1.1056
 8552TIP3   OH247070   5.167   5.066  15.240  0.7442 -0.3855 -0.4156
 8552TIP3    H147071   5.211   5.141  15.281  0.1731  0.4263 -1.2691
 8552TIP3    H247072   5.235   5.026  15.185  1.2610 -0.9483  0.6297
 8553TIP3   OH247073   0.959   3.489   0.259  0.9989 -0.4817  0.1924
 8553TIP3    H147074   0.887   3.464   0.317  0.1935  0.3014 -0.4621
 8553TIP3    H247075   0.939   3.445   0.177  1.0384  0.0855 -0.1209
 8554TIP3   OH247076   5.202   5.618  15.931 -0.3014 -0.2778  0.6153
 8554TIP3    H147077   5.264   5.673  15.980  0.5623 -0.5727 -0.1307
 8554TIP3    H247078   5.213   5.531  15.968 -0.6469 -0.2270  0.8357
 8555TIP3   OH247079   3.720   3.173  15.314  0.0587  0.0408  0.1035
 8555TIP3    H147080   3.664   3.208  15.245 -0.4103  0.2630  0.5928
 8555TIP3    H247081   3.793   3.132  15.267 -0.4205 -0.0941 -0.5306
 8556TIP3   OH247082   4.705   4.640  13.505  0.0861 -0.7241 -0.8881
 8556TIP3    H147083   4.670   4.700  13.439  0.2820 -0.3929 -0.6907
 8556TIP3    H247084   4.628   4.609  13.553  0.1760  1.2005  0.5654
 8557TIP3   OH247085   1.853   6.601  15.376 -0.2093 -0.2947  0.3512
 8557TIP3    H147086   1.910   6.678  15.379  0.5320 -0.8445  0.5379
 8557TIP3    H247087   1.777   6.630  15.325  0.4047  0.3313 -0.2361
 8558TIP3   OH247088   5.906   3.836  10.636 -0.5081  0.4797 -0.0907
 8558TIP3    H147089   5.926   3.816  10.544 -2.2110  1.9294 -0.8073
 8558TIP3    H247090   5.852   3.914  10.632  0.4566  1.2943  2.2622
 8559TIP3   OH247091   4.792   5.065  11.622  0.7749  0.1003  0.4672
 8559TIP3    H147092   4.770   5.146  11.668 -2.0393 -0.1355 -0.3773
 8559TIP3    H247093   4.798   5.091  11.530 -1.8538 -0.8988 -0.0336
 8560TIP3   OH247094   4.485   3.304  13.604  0.2083 -0.4201  0.1146
 8560TIP3    H147095   4.424   3.251  13.553 -0.4875  1.5861 -1.1908
 8560TIP3    H247096   4.525   3.364  13.541  0.1174  1.4023  1.7188
 8561TIP3   OH247097   6.350   4.846   1.169  0.0528 -0.0755  0.0442
 8561TIP3    H147098   6.444   4.861   1.177 -0.1288  1.1957 -0.0401
 8561TIP3    H247099   6.335   4.836   1.075  0.0589  0.1010  0.0234
 8562TIP3   OH247100   5.808   6.149  15.325  0.4370 -0.4468  0.1029
 8562TIP3    H147101   5.812   6.087  15.397 -1.7610  1.4924  1.9982
 8562TIP3    H247102   5.848   6.229  15.360 -1.2469  0.7204 -0.5592
 8563TIP3   OH247103   4.292   6.663  13.965  0.1232  0.0779 -0.0673
 8563TIP3    H147104   4.218   6.691  13.911 -1.4463 -2.7571  0.4869
 8563TIP3    H247105   4.321   6.581  13.925  2.1490  0.4908  0.5075
 8564TIP3   OH247106   5.554   6.238  14.230 -0.2044  0.3921  0.3504
 8564TIP3    H147107   5.637   6.197  14.253  0.6218  1.5274 -0.5693
 8564TIP3    H247108   5.526   6.192  14.151  1.0669  2.0369 -1.0817
 8565TIP3   OH247109   5.040   5.931  15.186 -0.4094 -0.4423  0.0238
 8565TIP3    H147110   5.043   5.878  15.106  0.8276 -2.1601  1.1614
 8565TIP3    H247111   5.130   5.929  15.218 -1.1228 -0.7001  2.0430
 8566TIP3   OH247112   4.259   5.691  14.651 -0.2342  0.0129  0.2810
 8566TIP3    H147113   4.231   5.701  14.560  0.0091  0.1763  0.2234
 8566TIP3    H247114   4.347   5.728  14.653 -0.0651 -0.4026  0.4857
 8567TIP3   OH247115   5.601   4.940  14.748 -0.5384 -0.2017 -0.1657
 8567TIP3    H147116   5.603   5.028  14.786  0.5569 -0.9237  1.5094
 8567TIP3    H247117   5.508   4.918  14.745 -0.6415 -0.6851  3.5795
 8568TIP3   OH247118   5.984   4.496  14.276 -0.1093 -0.0057  1.1828
 8568TIP3    H147119   5.909   4.485  14.218 -1.0018  0.4833  2.2258
 8568TIP3    H247120   6.022   4.580  14.251 -1.5425  1.0506  2.4594
 8569TIP3   OH247121   4.670   4.700  14.788  0.5085  0.1062  1.0257
 8569TIP3    H147122   4.719   4.619  14.774 -0.0550 -0.3142  1.4575
 8569TIP3    H247123   4.613   4.681  14.863 -0.1012  0.6856  0.7108
 8570TIP3   OH247124   7.015   5.598  15.670 -0.4135  0.9590  0.0827
 8570TIP3    H147125   7.036   5.609  15.763 -1.1646 -0.8270  0.4878
 8570TIP3    H247126   7.037   5.682  15.630  1.2314  1.2987  1.6302
 8571TIP3   OH247127   4.035   4.645  13.037 -0.5865 -0.3649 -0.4698
 8571TIP3    H147128   3.969   4.679  13.098  0.8444 -0.0651  0.9196
 8571TIP3    H247129   4.057   4.559  13.071 -1.7929 -1.3515 -2.1344
 8572TIP3   OH247130   0.118   4.102  11.956 -0.1019  0.1810 -0.5182
 8572TIP3    H147131   0.096   4.170  12.020 -0.2883 -0.8093  0.4882
 8572TIP3    H247132   0.210   4.080  11.975 -0.7289 -1.4646  0.6872
 8573TIP3   OH247133   4.762   4.614  12.878 -0.3273  0.2368  0.0320
 8573TIP3    H147134   4.799   4.594  12.792  0.8831 -0.6450  0.7297
 8573TIP3    H247135   4.686   4.668  12.860  0.6665  1.1576 -1.5335
 8574TIP3   OH247136   6.526   5.271  15.279 -0.1190  0.8424  0.6702
 8574TIP3    H147137   6.574   5.353  15.289  0.2010  0.6542  0.7006
 8574TIP3    H247138   6.569   5.211  15.339  1.4411 -0.1384 -1.3462
 8575TIP3   OH247139   3.721   4.732   1.944 -0.0155  0.4326  0.3771
 8575TIP3    H147140   3.626   4.733   1.930  0.0622 -1.5099 -0.4941
 8575TIP3    H247141   3.739   4.644   1.977  1.5637  0.5994  0.0089
 8576TIP3   OH247142   5.275   6.923  14.523  0.4013  0.6041  0.4913
 8576TIP3    H147143   5.293   7.010  14.559 -0.5873  1.2545 -0.5689
 8576TIP3    H247144   5.304   6.929  14.432 -0.4129  0.0721  0.1946
 8577TIP3   OH247145   4.375   3.894  13.747  0.1619  0.2874 -0.0119
 8577TIP3    H147146   4.398   3.951  13.821  2.6493 -0.2221 -0.3354
 8577TIP3    H247147   4.398   3.945  13.670  0.0428 -0.1981 -0.3677
 8578TIP3   OH247148   4.307   3.530  12.412 -0.2494  0.0429  0.2220
 8578TIP3    H147149   4.337   3.492  12.495  0.8018  0.7891  0.1858
 8578TIP3    H247150   4.367   3.496  12.346 -1.4337 -1.0055 -0.3302
 8579TIP3   OH247151   6.998   4.651   0.424  0.5515 -0.4691  0.2681
 8579TIP3    H147152   7.017   4.718   0.358  0.8027  0.9650  1.7630
 8579TIP3    H247153   7.083   4.633   0.464  0.3068 -0.9053  0.5842
 8580TIP3   OH247154   4.335   6.279  13.029  0.6119  0.0666 -0.4015
 8580TIP3    H147155   4.367   6.343  12.965  0.1878  2.8382  2.0029
 8580TIP3    H247156   4.411   6.261  13.085  0.2556 -0.1193  0.0228
 8581TIP3   OH247157   3.618   4.398   0.583 -0.2277 -0.4370  0.7576
 8581TIP3    H147158   3.684   4.434   0.643 -0.2178  0.6434  0.0959
 8581TIP3    H247159   3.601   4.468   0.521  0.3007 -1.7905 -0.9577
 8582TIP3   OH247160   1.596   4.338  14.262 -0.5994  0.0489 -0.0338
 8582TIP3    H147161   1.514   4.317  14.216 -0.8861  0.8715  0.0948
 8582TIP3    H247162   1.575   4.321  14.354 -0.5643  0.0724 -0.0220
 8583TIP3   OH247163   4.751   3.724   0.576 -0.7003 -0.1941  0.0215
 8583TIP3    H147164   4.697   3.794   0.613 -1.5933 -0.6339 -0.4475
 8583TIP3    H247165   4.731   3.725   0.483  1.0290  0.4518 -0.3700
 8584TIP3   OH247166   2.084   5.853  13.970 -0.1133  0.1956  0.4431
 8584TIP3    H147167   2.109   5.944  13.956  1.8963 -0.2981  0.7427
 8584TIP3    H247168   2.138   5.824  14.044 -1.0309 -1.1178  0.6248
 8585TIP3   OH247169   5.640   4.972  14.221 -0.7882 -0.6902  0.1017
 8585TIP3    H147170   5.601   4.904  14.275 -1.2108 -1.9826 -1.7880
 8585TIP3    H247171   5.728   4.941  14.201  0.0879  0.7064  1.6371
 8586TIP3   OH247172   6.036   4.885  12.631  0.6215 -0.0433 -0.2724
 8586TIP3    H147173   6.021   4.872  12.724  0.2341  0.8681 -0.2045
 8586TIP3    H247174   6.021   4.799  12.592 -1.1829  0.0210  0.2458
 8587TIP3   OH247175   5.954   2.394  15.797  0.1269 -0.0770 -0.4194
 8587TIP3    H147176   5.901   2.448  15.739  0.3115 -1.4492 -1.9124
 8587TIP3    H247177   5.971   2.449  15.873  0.0281  1.8224 -1.7496
 8588TIP3   OH247178   5.546   4.913  13.177  0.2151  0.2676 -0.0860
 8588TIP3    H147179   5.459   4.874  13.169  0.0259  0.2886  1.6465
 8588TIP3    H247180   5.596   4.849  13.229  1.5487 -0.2244 -1.9268
 8589TIP3   OH247181   3.994   4.950   0.032 -0.7936 -0.3654  0.1136
 8589TIP3    H147182   4.066   5.013   0.028 -2.0539  1.0153 -1.8129
 8589TIP3    H247183   4.036   4.864   0.024  0.6253  0.4437 -1.2626
 8590TIP3   OH247184   5.544   2.935   0.027 -0.1708 -0.2213  0.3561
 8590TIP3    H147185   5.540   3.029   0.010  0.3145 -0.4913 -1.3591
 8590TIP3    H247186   5.467   2.917   0.081 -1.5204  0.7973 -1.1652
 8591TIP3   OH247187   5.636   3.778  13.847 -0.2439 -0.2374 -0.2206
 8591TIP3    H147188   5.575   3.705  13.851 -0.8242  0.2912  0.6247
 8591TIP3    H247189   5.627   3.822  13.931  0.3728  0.5852 -0.5764
 8592TIP3   OH247190   5.959   1.757  13.960  0.1248  0.0830  0.3038
 8592TIP3    H147191   5.893   1.822  13.935  0.6382  0.7463  0.6537
 8592TIP3    H247192   6.006   1.739  13.880  0.4053  0.6360  0.3403
 8593TIP3   OH247193   5.719   3.951   0.257 -0.5733  0.4226 -0.7307
 8593TIP3    H147194   5.676   3.940   0.342  2.6084  1.3509  1.0986
 8593TIP3    H247195   5.731   3.862   0.225 -0.5901 -0.0197  0.4560
 8594TIP3   OH247196   5.391   5.634  15.665  0.4294  0.0190 -0.0283
 8594TIP3    H147197   5.452   5.647  15.738 -0.9601  0.0708  1.1649
 8594TIP3    H247198   5.337   5.713  15.665 -0.4940 -0.6019 -0.2056
 8595TIP3   OH247199   4.952   3.866  13.492 -0.2680 -0.0963  0.4636
 8595TIP3    H147200   5.045   3.862  13.515 -0.3033 -2.1422  0.4004
 8595TIP3    H247201   4.908   3.892  13.572  0.1768 -1.2505  1.0958
 8596TIP3   OH247202   4.987   5.731  14.628 -0.0660  0.3597 -0.5585
 8596TIP3    H147203   5.052   5.680  14.580  2.1547  1.1647  1.5098
 8596TIP3    H247204   4.945   5.668  14.686  1.9782  0.6030  1.2665
 8597TIP3   OH247205   3.172   5.782  13.396  0.2297 -0.5828  0.0261
 8597TIP3    H147206   3.131   5.767  13.481  0.4413 -2.8949 -0.2513
 8597TIP3    H247207   3.258   5.739  13.403 -0.2768 -1.9616 -1.7826
 8598TIP3   OH247208   3.757   5.895  14.308 -0.4036 -0.1362  0.4104
 8598TIP3    H147209   3.722   5.927  14.391 -1.8640 -1.7545  0.4435
 8598TIP3    H247210   3.692   5.832  14.277  1.6714 -1.9811 -0.3482
 8599TIP3   OH247211   2.582   0.309   0.908 -0.0836  0.1709  0.4083
 8599TIP3    H147212   2.570   0.215   0.917  0.0771  0.0807 -0.3262
 8599TIP3    H247213   2.652   0.330   0.970 -0.6425 -0.0668  1.1325
 8600TIP3   OH247214   4.304   4.873  13.391  0.1666  0.0402  0.3619
 8600TIP3    H147215   4.394   4.840  13.395 -0.9802 -3.3058 -0.0260
 8600TIP3    H247216   4.308   4.957  13.437  3.4333 -0.1170  0.5216
 8601TIP3   OH247217   3.530   7.142  14.723  0.2615 -0.5104  0.0183
 8601TIP3    H147218   3.570   7.156  14.638 -2.6896 -0.5579 -1.4348
 8601TIP3    H247219   3.518   7.047  14.729 -0.9646 -0.3728 -0.1973
 8602TIP3   OH247220   3.586   5.519   0.162 -0.0135 -0.5611  0.0811
 8602TIP3    H147221   3.568   5.565   0.080 -0.0121  0.2367  0.5165
 8602TIP3    H247222   3.537   5.437   0.156 -1.7044  0.4136  0.1521
 8603TIP3   OH247223   3.369   4.823  15.930  0.0271 -0.1633 -0.2188
 8603TIP3    H147224   3.409   4.877  15.861  1.3684 -1.4787 -0.5092
 8603TIP3    H247225   3.277   4.817  15.906 -0.5235  3.4591  0.7950
 8604TIP3   OH247226   4.789   4.903  13.020 -0.5401 -0.0412 -0.7193
 8604TIP3    H147227   4.730   4.843  13.065 -1.7135 -0.9689 -3.3466
 8604TIP3    H247228   4.731   4.955  12.964  0.8589  0.8355 -1.3767
 8605TIP3   OH247229   5.519   5.206  12.848  0.3131  0.1192 -0.1418
 8605TIP3    H147230   5.552   5.285  12.804  0.8120 -0.5968 -1.0715
 8605TIP3    H247231   5.424   5.212  12.842  0.2120  2.1537  2.4616
 8606TIP3   OH247232   5.052   6.034  10.986  0.3140 -0.2314 -0.8644
 8606TIP3    H147233   5.078   6.087  11.061 -0.8870  3.4573 -2.9045
 8606TIP3    H247234   4.957   6.027  10.993  0.2650 -0.4461 -1.6472
 8607TIP3   OH247235   2.845   6.439  13.643 -0.1007 -0.4804  0.1187
 8607TIP3    H147236   2.836   6.421  13.549  2.2160  0.0367 -0.2387
 8607TIP3    H247237   2.804   6.525  13.655 -0.4864 -0.5887 -0.3900
 8608TIP3   OH247238   6.830   4.822  14.521 -0.1165  0.6610  0.3223
 8608TIP3    H147239   6.881   4.787  14.447 -1.7061 -0.4829 -0.2616
 8608TIP3    H247240   6.887   4.809  14.597  0.8314  0.2548 -0.4373
 8609TIP3   OH247241   4.287   2.626   1.505  0.1971  0.6355 -0.1177
 8609TIP3    H147242   4.212   2.684   1.518  1.4231  1.9104  1.5016
 8609TIP3    H247243   4.287   2.570   1.584  1.7538  1.5895  0.5757
 8610TIP3   OH247244   4.836   5.555  11.546  0.6677 -0.2904  0.0714
 8610TIP3    H147245   4.816   5.640  11.506 -2.0104 -0.9999 -0.1474
 8610TIP3    H247246   4.929   5.562  11.569  0.4129  2.8570  0.4490
 8611TIP3   OH247247   3.853   6.674  13.579  0.2787 -0.1093 -0.6011
 8611TIP3    H147248   3.872   6.722  13.497  1.5293  0.2451 -0.1152
 8611TIP3    H247249   3.861   6.582  13.555  2.4010  0.0164 -0.4924
 8612TIP3   OH247250   5.468   5.042   0.638  0.4076 -0.2541 -0.5698
 8612TIP3    H147251   5.407   5.087   0.696  0.6750 -1.8584  1.0118
 8612TIP3    H247252   5.552   5.044   0.685  0.6804 -1.3477 -0.9996
 8613TIP3   OH247253   3.325   3.187  13.500 -0.6023  0.2264 -0.2815
 8613TIP3    H147254   3.270   3.121  13.541 -1.7914  1.7774  0.6281
 8613TIP3    H247255   3.385   3.215  13.569  0.5791 -0.6148 -0.9466
 8614TIP3   OH247256   2.433   5.964  15.433  0.1262  0.5276  0.3015
 8614TIP3    H147257   2.392   5.908  15.367 -0.4104 -0.0671  1.1176
 8614TIP3    H247258   2.404   6.053  15.411  1.9797  0.6638 -1.7366
 8615TIP3   OH247259   2.240   3.248  11.153  0.1902  0.1497 -0.2618
 8615TIP3    H147260   2.256   3.157  11.125 -1.7572  0.3179 -1.9972
 8615TIP3    H247261   2.152   3.267  11.122  0.7125  2.7635 -0.2044
 8616TIP3   OH247262   6.925   6.837  14.173 -0.5647  0.0727 -0.2188
 8616TIP3    H147263   6.860   6.873  14.232 -1.5643 -1.7902 -0.1399
 8616TIP3    H247264   7.005   6.830  14.225 -0.6391  1.1990  0.0467
 8617TIP3   OH247265   4.740   3.967  11.632  0.1216 -0.1089 -0.6844
 8617TIP3    H147266   4.704   3.883  11.604 -0.9794  0.6532 -1.5960
 8617TIP3    H247267   4.833   3.949  11.649  0.0874 -1.3109 -1.6831
 8618TIP3   OH247268   0.127   4.716  13.784 -0.3704  0.3099  0.2021
 8618TIP3    H147269   0.128   4.653  13.712 -2.1886 -0.3633  0.7535
 8618TIP3    H247270   0.177   4.673  13.853 -1.8301 -0.6759  0.6726
 8619TIP3   OH247271   2.885   5.692   0.412  0.5364 -0.8202 -0.2717
 8619TIP3    H147272   2.969   5.738   0.413  0.2841 -0.2773 -2.2478
 8619TIP3    H247273   2.849   5.710   0.326 -2.7431  0.9407  1.3836
 8620TIP3   OH247274   6.403   4.258  15.840 -0.0749 -0.5033  0.1506
 8620TIP3    H147275   6.487   4.226  15.874  0.7378 -1.0471 -2.2580
 8620TIP3    H247276   6.342   4.185  15.855 -0.0889 -0.1934  1.7025
 8621TIP3   OH247277   5.604   1.172   1.206 -0.2514  0.1737  0.6985
 8621TIP3    H147278   5.649   1.207   1.129 -1.6467  0.4132 -0.0249
 8621TIP3    H247279   5.641   1.220   1.279  1.4450 -0.4033  0.2324
 8622TIP3   OH247280   5.214   7.209  14.605  0.5313  0.7139  0.1335
 8622TIP3    H147281   5.142   7.263  14.573 -2.0993 -1.8808  1.4130
 8622TIP3    H247282   5.188   7.187  14.695  2.0836 -1.7128  0.0061
 8623TIP3   OH247283   5.361   2.511   0.098 -0.0473 -0.3446  0.2015
 8623TIP3    H147284   5.358   2.475   0.186 -0.7140 -0.9178 -0.0522
 8623TIP3    H247285   5.270   2.536   0.080 -0.1464 -1.4370 -0.8217
 8624TIP3   OH247286   4.937   3.528   0.621  0.3766 -0.3512 -0.2684
 8624TIP3    H147287   4.986   3.576   0.555  1.9123  0.5697  1.5006
 8624TIP3    H247288   4.853   3.574   0.627  0.3995 -0.1803 -1.2471
 8625TIP3   OH247289   3.879   5.983  13.192 -0.2151 -0.7378 -0.5425
 8625TIP3    H147290   3.959   6.031  13.214 -0.7021 -1.4291  2.9982
 8625TIP3    H247291   3.897   5.945  13.106  1.9851  1.7899 -1.2897
 8626TIP3   OH247292   4.069   3.686   0.405  0.6176 -0.1546 -0.0557
 8626TIP3    H147293   4.035   3.661   0.319  1.9657  0.2778 -0.7388
 8626TIP3    H247294   3.992   3.705   0.457 -0.2069 -0.0276 -1.3032
 8627TIP3   OH247295   2.707   4.863  13.365 -0.0391  0.6303  0.0049
 8627TIP3    H147296   2.754   4.920  13.305  1.0184 -0.7013 -0.4590
 8627TIP3    H247297   2.767   4.791  13.382 -2.4508 -1.9577 -1.8767
 8628TIP3   OH247298   3.277   1.614   1.233  0.1374 -0.6375  0.6081
 8628TIP3    H147299   3.364   1.651   1.217  0.0457 -1.4876 -2.0685
 8628TIP3    H247300   3.236   1.675   1.295  1.7915  1.0428  0.0962
 8629TIP3   OH247301   5.372   1.900   2.379  0.2899  0.3407 -0.0935
 8629TIP3    H147302   5.297   1.932   2.430 -0.1870 -0.5664 -0.2146
 8629TIP3    H247303   5.347   1.811   2.353  1.7779 -0.3034  0.6032
 8630TIP3   OH247304   5.945   4.799  15.023 -0.8158  0.7489 -0.3009
 8630TIP3    H147305   5.950   4.707  15.047 -2.2819  0.2923 -1.6489
 8630TIP3    H247306   6.026   4.838  15.056 -0.4523 -0.9013  0.7627
 8631TIP3   OH247307   5.654   5.177  13.845  0.3939  0.0493 -0.4262
 8631TIP3    H147308   5.641   5.256  13.793  1.1013 -0.7338 -1.8129
 8631TIP3    H247309   5.745   5.182  13.874  0.8765 -0.9447 -1.7174
 8632TIP3   OH247310   0.884   5.958  12.796 -0.2868  0.1550  0.1382
 8632TIP3    H147311   0.882   5.981  12.888  1.3004 -0.1216  0.2603
 8632TIP3    H247312   0.797   5.982  12.763 -1.4678 -1.3479  2.0690
 8633TIP3   OH247313   2.742   2.424  14.414  0.1773  0.1919  0.1632
 8633TIP3    H147314   2.722   2.333  14.436  0.0630  0.5050  1.3952
 8633TIP3    H247315   2.658   2.461  14.386  0.8079 -0.9324 -3.5949
 8634TIP3   OH247316   2.999   5.680  13.611 -0.3351 -0.3920  0.4644
 8634TIP3    H147317   3.007   5.596  13.657  0.2416 -1.0356 -0.7925
 8634TIP3    H247318   3.021   5.745  13.677 -0.9965 -1.2099  1.5207
 8635TIP3   OH247319   4.445   3.573  14.303  0.1707 -0.1581  0.1502
 8635TIP3    H147320   4.466   3.563  14.396 -0.8784 -0.5419  0.3588
 8635TIP3    H247321   4.517   3.530  14.257  0.8770  0.3534  0.7758
 8636TIP3   OH247322   0.257   4.867  13.370  0.2167  0.3567 -0.5100
 8636TIP3    H147323   0.322   4.806  13.336  0.4110  1.7547 -2.7744
 8636TIP3    H247324   0.173   4.821  13.361  0.1204  1.0664 -4.0091
 8637TIP3   OH247325   6.280   6.337  14.098  0.2790  0.0629  0.0332
 8637TIP3    H147326   6.272   6.321  14.193 -0.0554  1.1896  0.1985
 8637TIP3    H247327   6.369   6.309  14.077 -0.3056 -2.0892  0.2970
 8638TIP3   OH247328   4.103   6.984  15.226  0.1046  0.4015 -0.1770
 8638TIP3    H147329   4.140   7.042  15.160 -1.6257  2.1289  0.3014
 8638TIP3    H247330   4.055   7.043  15.286 -1.7117 -1.4954  0.3181
 8639TIP3   OH247331   0.859   5.440  14.088 -0.3616  0.2692 -0.5059
 8639TIP3    H147332   0.893   5.452  14.176  0.7228  0.2032 -0.9140
 8639TIP3    H247333   0.768   5.413  14.101 -0.4256  0.9635  0.5753
 8640TIP3   OH247334   6.258   2.836  14.107  0.3087  0.3845  0.6145
 8640TIP3    H147335   6.234   2.750  14.073  0.7887  1.1575 -1.7268
 8640TIP3    H247336   6.179   2.868  14.150 -0.2850 -0.6229  0.2716
 8641TIP3   OH247337   6.247   6.191  13.778 -0.5142 -0.5635 -0.0226
 8641TIP3    H147338   6.220   6.259  13.716 -2.5773 -1.1650  0.1608
 8641TIP3    H247339   6.289   6.238  13.850  0.9536  0.2318 -1.3723
 8642TIP3   OH247340   5.081   2.738  11.050 -1.0079 -0.3399  0.1491
 8642TIP3    H147341   5.070   2.711  10.958  0.9816  0.8117 -0.4615
 8642TIP3    H247342   5.073   2.834  11.047  0.4486 -0.1849  0.9431
 8643TIP3   OH247343   2.284   3.871  12.019  0.3107  0.3494  0.4092
 8643TIP3    H147344   2.314   3.888  12.108  0.9057 -2.7791  0.8772
 8643TIP3    H247345   2.193   3.842  12.030  0.3243  0.1415 -0.0268
 8644TIP3   OH247346   6.214   4.023  14.083 -0.2682  0.4005 -0.0921
 8644TIP3    H147347   6.270   4.005  14.158  2.8480  2.1588 -1.8843
 8644TIP3    H247348   6.159   4.097  14.110  0.5431  0.7436  0.6155
 8645TIP3   OH247349   6.047   4.854  15.624  0.0340  0.3773 -0.0476
 8645TIP3    H147350   6.113   4.810  15.678 -0.2305 -0.3180 -0.2865
 8645TIP3    H247351   5.994   4.902  15.687  0.1626  0.1436  0.2475
 8646TIP3   OH247352   5.670   5.372   0.693 -0.3910  0.5349 -0.2331
 8646TIP3    H147353   5.594   5.350   0.746 -0.8139 -0.2892 -1.1563
 8646TIP3    H247354   5.634   5.406   0.611  0.2563  2.3687  0.2257
 8647TIP3   OH247355   4.334   4.797  13.672 -0.3794 -0.5318 -0.6957
 8647TIP3    H147356   4.301   4.739  13.603  0.1821 -2.5098  0.6457
 8647TIP3    H247357   4.255   4.827  13.717 -0.7666  0.9873 -2.3335
 8648TIP3   OH247358   5.268   4.822  13.241 -0.0898  0.1230  0.3805
 8648TIP3    H147359   5.176   4.846  13.226 -0.2858 -1.0818 -0.3919
 8648TIP3    H247360   5.268   4.783  13.329 -0.5776 -1.1117 -0.1506
 8649TIP3   OH247361   6.532   4.836  13.497 -0.2388  0.2969  0.7353
 8649TIP3    H147362   6.601   4.888  13.538  0.0582  0.5813 -0.1310
 8649TIP3    H247363   6.551   4.839  13.403  0.0634 -1.7697  0.7133
 8650TIP3   OH247364   4.119   3.778  15.197  0.3808  0.2845 -0.4969
 8650TIP3    H147365   4.055   3.808  15.260 -0.3654 -0.2543 -0.9873
 8650TIP3    H247366   4.075   3.786  15.112  0.8733 -0.3049 -0.8158
 8651TIP3   OH247367   5.914   3.304  14.039  0.2774  0.0743  0.1464
 8651TIP3    H147368   5.931   3.336  13.951 -0.0117  0.6922  0.3146
 8651TIP3    H247369   5.963   3.222  14.044 -0.1227 -0.2286 -0.7672
 8652TIP3   OH247370   6.018   3.718  15.226  0.2482 -0.3519  0.7679
 8652TIP3    H147371   6.009   3.728  15.321 -0.3680  0.9262  0.5885
 8652TIP3    H247372   5.981   3.631  15.208 -1.5798  0.2439  1.4663
 8653TIP3   OH247373   6.634   1.888  14.955  0.1880  0.4282 -0.0948
 8653TIP3    H147374   6.687   1.809  14.943  0.1386  0.7588 -2.6678
 8653TIP3    H247375   6.547   1.862  14.925 -0.0447  1.2114 -0.0971
 8654TIP3   OH247376   4.243   5.352  13.086 -0.0433 -0.4410 -0.2040
 8654TIP3    H147377   4.301   5.383  13.016  0.1046  1.3288  0.6738
 8654TIP3    H247378   4.231   5.428  13.143 -0.8282 -1.6285  1.2559
 8655TIP3   OH247379   3.406   2.809  14.293 -0.5269  0.1353 -0.6047
 8655TIP3    H147380   3.383   2.777  14.206  0.2931 -1.9106 -0.0820
 8655TIP3    H247381   3.322   2.833  14.333 -1.0878 -0.8077 -1.2133
 8656TIP3   OH247382   3.724   6.278   1.004 -0.3528 -0.3650  0.2739
 8656TIP3    H147383   3.770   6.264   1.087 -0.6289  0.9538  0.6526
 8656TIP3    H247384   3.688   6.192   0.982  1.0737 -1.0875  0.7003
 8657TIP3   OH247385   6.837   5.765  14.447  0.3641 -0.1794  0.3772
 8657TIP3    H147386   6.770   5.783  14.381  0.0385 -1.7249  0.2748
 8657TIP3    H247387   6.872   5.679  14.423  0.3111 -0.7134  2.1747
 8658TIP3   OH247388   7.144   3.471  13.457  0.6052  0.2227  0.0963
 8658TIP3    H147389   7.194   3.505  13.383 -0.3941  4.3606  1.1916
 8658TIP3    H247390   7.136   3.546  13.517 -1.8226 -1.9616  2.6441
 8659TIP3   OH247391   4.959   4.621  14.517  0.3763 -0.0273  0.2740
 8659TIP3    H147392   4.972   4.602  14.610 -0.5915 -0.7238  0.2710
 8659TIP3    H247393   4.884   4.568  14.491  0.2707  0.6022 -0.7719
 8660TIP3   OH247394   4.892   5.472  14.759  0.6786  0.2048  0.5957
 8660TIP3    H147395   4.807   5.438  14.787  2.0641 -1.9109  2.4039
 8660TIP3    H247396   4.948   5.465  14.837  2.4101  1.9523 -0.4382
 8661TIP3   OH247397   3.424   2.030  15.635  0.2099 -0.6063  0.2101
 8661TIP3    H147398   3.466   2.115  15.628 -1.8181  0.2944 -2.0398
 8661TIP3    H247399   3.413   2.001  15.544 -4.4671 -0.4508  0.5557
 8662TIP3   OH247400   2.559   5.600  11.691 -0.4622  0.0768 -0.4429
 8662TIP3    H147401   2.594   5.639  11.772 -0.8686  1.4769 -0.9311
 8662TIP3    H247402   2.511   5.523  11.721  1.9322 -1.1628  0.3702
 8663TIP3   OH247403   3.907   0.511   1.739 -0.2324  0.4941 -0.1389
 8663TIP3    H147404   3.897   0.606   1.747  0.8048  0.5673  0.4487
 8663TIP3    H247405   3.973   0.500   1.671 -0.4706  0.1905 -0.3208
 8664TIP3   OH247406   5.425   5.939  15.896 -0.0945  0.1390  0.3636
 8664TIP3    H147407   5.398   5.882  15.968  0.1068 -0.3640  0.0412
 8664TIP3    H247408   5.364   5.919  15.826  0.3251 -0.0722  0.0621
 8665TIP3   OH247409   4.415   5.007  15.595 -0.3128 -0.3037  0.1720
 8665TIP3    H147410   4.475   5.032  15.665  0.2306 -0.9786 -0.0500
 8665TIP3    H247411   4.470   4.991  15.519 -0.7571 -1.0126 -0.0119
 8666TIP3   OH247412   4.820   4.782  15.025 -0.1704  0.0916 -0.2401
 8666TIP3    H147413   4.789   4.763  14.936  1.1724  0.1826 -0.7401
 8666TIP3    H247414   4.757   4.740  15.082 -1.4599  0.6338 -1.2309
 8667TIP3   OH247415   4.116   4.746  15.944 -0.0959 -0.8396  0.1278
 8667TIP3    H147416   4.200   4.790  15.930  0.1407 -0.8609  1.3997
 8667TIP3    H247417   4.121   4.668  15.888  0.9145 -1.0608  0.4980
 8668TIP3   OH247418   3.828   4.379   0.326 -0.0326 -0.2909  0.7186
 8668TIP3    H147419   3.834   4.467   0.288  0.9987  0.3098  2.2519
 8668TIP3    H247420   3.738   4.373   0.358 -0.5647 -0.3736 -0.7358
 8669TIP3   OH247421   5.620   6.231   0.312  0.3161  0.4385 -0.7795
 8669TIP3    H147422   5.547   6.170   0.321  1.2361 -0.5626 -0.0199
 8669TIP3    H247423   5.597   6.286   0.237 -0.8092 -0.4372 -1.0747
 8670TIP3   OH247424   0.505   6.628  14.908 -0.4608 -0.1007 -0.2381
 8670TIP3    H147425   0.565   6.570  14.955 -0.8236 -0.5488 -0.3227
 8670TIP3    H247426   0.418   6.601  14.937 -0.6995 -0.5019 -1.3108
 8671TIP3   OH247427   6.453   6.712   0.595  0.2785 -0.3645  0.2533
 8671TIP3    H147428   6.497   6.695   0.511  0.8042 -0.9673  0.6476
 8671TIP3    H247429   6.515   6.765   0.645 -1.2758  2.6570 -0.8882
 8672TIP3   OH247430   4.893   4.261  14.701  0.0808  0.0034  0.0914
 8672TIP3    H147431   4.982   4.243  14.669  1.2490 -0.9551  3.6682
 8672TIP3    H247432   4.848   4.176  14.696 -0.4068  0.3053 -0.8957
 8673TIP3   OH247433   5.922   6.067  13.284  1.0585 -0.1495 -0.3021
 8673TIP3    H147434   5.924   6.121  13.364  1.3715 -0.6603  0.0382
 8673TIP3    H247435   5.861   5.996  13.305  1.1917 -0.3186 -0.4948
 8674TIP3   OH247436   5.488   6.387   0.121  0.2978 -0.1109 -0.3723
 8674TIP3    H147437   5.438   6.322   0.073 -0.1530 -0.2215  0.2356
 8674TIP3    H247438   5.505   6.457   0.058 -1.6375  0.4633 -0.2760
 8675TIP3   OH247439   5.108   1.830  15.613  0.2147 -0.1467  0.0084
 8675TIP3    H147440   5.201   1.849  15.624 -0.1673  1.9721 -0.1397
 8675TIP3    H247441   5.070   1.848  15.698 -0.2366  0.1724 -0.2602
 8676TIP3   OH247442   5.010   4.108  11.663  0.1078 -0.1678  0.0820
 8676TIP3    H147443   5.007   4.150  11.577 -1.9894 -1.6809 -0.6619
 8676TIP3    H247444   4.986   4.177  11.724  1.0477  0.7895 -0.6024
 8677TIP3   OH247445   6.586   4.953  12.580 -0.0412  0.0030 -0.1328
 8677TIP3    H147446   6.557   4.990  12.496 -1.4111 -0.8776 -0.0679
 8677TIP3    H247447   6.557   4.862  12.576  0.0762 -0.0913  1.2257
 8678TIP3   OH247448   2.609   2.848  15.442  0.5230 -0.3371  0.3171
 8678TIP3    H147449   2.582   2.939  15.457 -0.9928 -0.5999 -0.7258
 8678TIP3    H247450   2.585   2.830  15.351  2.5054 -1.2099 -0.0710
 8679TIP3   OH247451   4.555   4.717  13.849  0.1929 -0.6664 -0.4756
 8679TIP3    H147452   4.526   4.714  13.940 -2.0103 -0.2043 -1.1366
 8679TIP3    H247453   4.476   4.736  13.799  1.6339  0.6415 -2.3561
 8680TIP3   OH247454   4.492   4.379  14.137 -0.9116 -0.4064 -0.6913
 8680TIP3    H147455   4.483   4.438  14.211 -0.1425  1.6554 -2.1833
 8680TIP3    H247456   4.412   4.394  14.085 -1.8402 -2.4381  0.1266
 8681TIP3   OH247457   4.752   1.542  14.366  0.6572  0.4108  0.5344
 8681TIP3    H147458   4.790   1.532  14.279 -0.2431  1.6374 -0.0071
 8681TIP3    H247459   4.822   1.517  14.426  1.1728 -0.7836 -0.5430
 8682TIP3   OH247460   2.985   3.554  13.629  0.0571  0.3375 -0.3384
 8682TIP3    H147461   3.046   3.627  13.643 -0.6319  0.5319  1.8412
 8682TIP3    H247462   2.988   3.505  13.710  0.0696 -1.7802 -1.5843
 8683TIP3   OH247463   3.937   6.348  15.535  0.8488 -0.0056  0.5821
 8683TIP3    H147464   3.901   6.435  15.514  0.2321  0.0247  1.6787
 8683TIP3    H247465   3.866   6.304  15.581  0.5397 -1.7676 -1.5277
 8684TIP3   OH247466   2.169   4.002  13.916 -0.1833 -0.1704 -0.2103
 8684TIP3    H147467   2.225   3.948  13.860 -0.0569 -0.9143  0.6255
 8684TIP3    H247468   2.100   4.033  13.857  0.9938  0.5906 -1.1921
 8685TIP3   OH247469   4.421   3.530  14.716 -0.5035  0.5204  0.2113
 8685TIP3    H147470   4.504   3.489  14.696 -0.7303  0.4226 -0.5349
 8685TIP3    H247471   4.412   3.522  14.811  0.5482  0.9384  0.3560
 8686TIP3   OH247472   4.104   4.149   1.377  0.2643  0.2780  0.4068
 8686TIP3    H147473   4.188   4.183   1.346  0.4720  0.1099  0.7841
 8686TIP3    H247474   4.098   4.061   1.340  0.4022  0.1689  0.6404
 8687TIP3   OH247475   6.573   4.595  12.209 -0.2885  0.4910 -0.2016
 8687TIP3    H147476   6.668   4.600  12.225  0.1894 -3.4807 -1.1881
 8687TIP3    H247477   6.562   4.634  12.122  0.7822 -1.0605 -1.0464
 8688TIP3   OH247478   2.348   1.139   0.865 -0.5159 -0.4712 -0.1470
 8688TIP3    H147479   2.267   1.145   0.916 -1.3623 -1.6334 -1.3177
 8688TIP3    H247480   2.379   1.229   0.857 -1.7975 -0.0001  0.1458
 8689TIP3   OH247481   2.733   6.525   0.775 -0.1822  0.1239 -0.5918
 8689TIP3    H147482   2.695   6.454   0.723 -0.5373  0.4158 -0.7310
 8689TIP3    H247483   2.716   6.604   0.724 -0.2879  0.3800 -0.1622
 8690TIP3   OH247484   3.761   5.062  15.986  0.0885  0.7393  0.2346
 8690TIP3    H147485   3.800   5.146  16.010  3.9908 -0.1807 -2.3585
 8690TIP3    H247486   3.828   4.998  16.009 -2.3969 -1.5804  1.1544
 8691TIP3   OH247487   5.473   4.837  14.424  0.3263 -0.2174 -0.1241
 8691TIP3    H147488   5.435   4.908  14.476 -0.8457  0.2318 -1.5646
 8691TIP3    H247489   5.432   4.757  14.458  1.2467 -0.1697  1.1348
 8692TIP3   OH247490   4.077   0.412   1.546  0.2943  0.1111  0.3475
 8692TIP3    H147491   4.134   0.406   1.470  0.4474  1.4634  0.3382
 8692TIP3    H247492   4.000   0.360   1.523  1.5445 -1.8107  0.4063
 8693TIP3   OH247493   1.071   3.114  13.469  0.6036 -0.4613  0.4858
 8693TIP3    H147494   1.130   3.189  13.482  0.2069 -0.3726  1.8296
 8693TIP3    H247495   1.113   3.063  13.399  1.1027  0.7769 -0.1469
 8694TIP3   OH247496   5.471   4.181  13.182  0.0133 -0.8307 -0.1379
 8694TIP3    H147497   5.553   4.226  13.202 -0.8714  0.4317  0.7315
 8694TIP3    H247498   5.408   4.252  13.164 -1.2439 -1.7277  0.6082
 8695TIP3   OH247499   4.570   6.206  15.307 -0.4511  0.2456  0.1742
 8695TIP3    H147500   4.603   6.117  15.289  0.5214  0.7156 -0.4275
 8695TIP3    H247501   4.644   6.263  15.286 -0.2435  1.0540  2.9366
 8696TIP3   OH247502   1.157   5.050  14.660  0.0702  0.2696 -0.1388
 8696TIP3    H147503   1.162   5.145  14.659  1.2415  0.2160 -0.0069
 8696TIP3    H247504   1.091   5.029  14.594 -0.4880  1.1899  0.1218
 8697TIP3   OH247505   6.586   3.942  15.381 -0.0675  0.2856 -0.0867
 8697TIP3    H147506   6.601   4.031  15.414 -0.1118  0.3251 -0.1743
 8697TIP3    H247507   6.665   3.894  15.407  0.5266  0.6698 -1.1695
 8698TIP3   OH247508   6.080   4.825  14.721  0.0815  0.3453 -0.2444
 8698TIP3    H147509   6.035   4.743  14.741  2.3854 -0.5337  1.4833
 8698TIP3    H247510   6.072   4.877  14.800  2.5275 -0.0375  0.2821
 8699TIP3   OH247511   6.388   5.995  14.452 -0.8616 -0.1439 -0.1340
 8699TIP3    H147512   6.449   6.050  14.501  0.0236 -0.9850 -0.2672
 8699TIP3    H247513   6.389   5.911  14.498 -1.1350 -0.4903 -0.7478
 8700TIP3   OH247514   7.086   3.868  15.297  0.4165 -0.2413  0.0011
 8700TIP3    H147515   7.031   3.852  15.374 -2.5036  1.2830 -1.6519
 8700TIP3    H247516   7.152   3.931  15.326 -0.5142  0.1302  1.3307
 8701TIP3   OH247517   6.026   5.608  12.599 -0.0670 -0.3556  0.3544
 8701TIP3    H147518   6.045   5.686  12.548 -0.6273 -0.5552 -0.1678
 8701TIP3    H247519   6.111   5.574  12.625  0.2696 -0.8468 -1.3382
 8702TIP3   OH247520   0.194   3.973  15.878 -0.3216 -0.1951 -0.0396
 8702TIP3    H147521   0.254   3.914  15.833 -0.3999 -1.4749  1.4646
 8702TIP3    H247522   0.130   3.914  15.919 -0.6577  0.9714  1.1364
 8703TIP3   OH247523   1.567   4.080  12.481  0.4327 -0.1688 -0.0617
 8703TIP3    H147524   1.638   4.023  12.452 -0.2132  0.0819 -2.2522
 8703TIP3    H247525   1.548   4.051  12.570  2.6375 -0.8555  0.2139
 8704TIP3   OH247526   6.659   3.619  15.418 -0.4638  0.0543 -0.3799
 8704TIP3    H147527   6.571   3.583  15.421 -0.4246  0.0032  0.4557
 8704TIP3    H247528   6.713   3.549  15.380 -1.1928  0.9988 -3.2270
 8705TIP3   OH247529   5.269   4.872  10.321  0.2379  0.8295  0.3147
 8705TIP3    H147530   5.306   4.853  10.407 -0.0294  0.1268  0.2798
 8705TIP3    H247531   5.298   4.800  10.265 -0.1849  0.9005 -0.0042
 8706TIP3   OH247532   5.691   6.390  13.930 -0.2077  0.2599 -0.5599
 8706TIP3    H147533   5.627   6.322  13.912  2.0085 -1.9927 -0.0894
 8706TIP3    H247534   5.762   6.346  13.977  0.5801  3.1904  1.1110
 8707TIP3   OH247535   5.836   4.245  15.170 -0.2945 -0.1323 -0.0787
 8707TIP3    H147536   5.906   4.198  15.215  0.7423  2.4130  1.0768
 8707TIP3    H247537   5.854   4.230  15.077  0.4793 -1.3221  0.2482
 8708TIP3   OH247538   1.284   5.901  13.615 -0.1446 -0.1557  0.2091
 8708TIP3    H147539   1.358   5.886  13.674  1.7434 -2.4677 -2.5729
 8708TIP3    H247540   1.290   5.993  13.591  0.0169  0.4068  2.3241
 8709TIP3   OH247541   7.094   6.693  13.656 -0.1254  0.3067 -0.2086
 8709TIP3    H147542   7.127   6.767  13.707 -1.0200  0.4814  0.1308
 8709TIP3    H247543   6.999   6.694  13.671 -0.2006 -0.6228 -0.5824
 8710TIP3   OH247544   0.251   3.762  15.378  0.4095  0.5229  0.2330
 8710TIP3    H147545   0.202   3.815  15.315  0.0657  1.7277  1.4838
 8710TIP3    H247546   0.191   3.751  15.452  1.1652 -0.0437  0.7664
 8711TIP3   OH247547   0.605   5.316  12.570  0.0061  0.4082 -0.2190
 8711TIP3    H147548   0.592   5.408  12.551 -0.3702  0.0147 -1.9520
 8711TIP3    H247549   0.611   5.274  12.484 -0.6140 -1.2795  0.5385
 8712TIP3   OH247550   3.763   0.440  14.997  0.0294  0.0876  0.5267
 8712TIP3    H147551   3.831   0.472  14.938 -0.4870  1.6185  0.7335
 8712TIP3    H247552   3.710   0.382  14.943  0.0491  0.8312 -0.3078
 8713TIP3   OH247553   1.938   5.550  13.051  0.1106 -0.3013  1.1355
 8713TIP3    H147554   1.881   5.507  13.115  1.1215 -1.6799  1.1284
 8713TIP3    H247555   2.003   5.596  13.105 -0.4904  0.5827  1.1274
 8714TIP3   OH247556   0.839   6.068  14.091 -0.0666  0.3983  0.1704
 8714TIP3    H147557   0.779   6.140  14.068 -0.6190  0.2334  1.0660
 8714TIP3    H247558   0.796   6.023  14.164  0.8708 -0.0859  0.4372
 8715TIP3   OH247559   0.669   3.785  15.910  0.6319  0.2913 -0.0920
 8715TIP3    H147560   0.639   3.778  16.000 -2.0328 -0.3776 -1.0021
 8715TIP3    H247561   0.711   3.871  15.905 -1.2520  1.2974  1.1779
 8716TIP3   OH247562   4.803   4.563  13.132  0.5497 -0.3039  0.0544
 8716TIP3    H147563   4.748   4.625  13.180 -0.5919 -0.0176 -1.6130
 8716TIP3    H247564   4.786   4.581  13.040  1.9905 -1.5188 -0.4724
 8717TIP3   OH247565   6.440   5.383   0.120  0.3720  0.3561  0.3790
 8717TIP3    H147566   6.411   5.302   0.079  1.0470 -0.0127  0.6356
 8717TIP3    H247567   6.413   5.375   0.211  0.0895  0.5910  0.3169
 8718TIP3   OH247568   0.492   6.147  15.738  0.0713 -0.1139 -0.3585
 8718TIP3    H147569   0.494   6.058  15.704  1.3355  0.0699 -0.8162
 8718TIP3    H247570   0.494   6.203  15.660 -1.3723  0.3260 -0.0998
 8719TIP3   OH247571   6.909   5.344  15.999 -0.7803 -0.3585 -0.8050
 8719TIP3    H147572   6.842   5.293  16.044 -0.7957 -0.4117 -0.8900
 8719TIP3    H247573   6.861   5.396  15.935 -0.6199 -1.1621 -1.5698
 8720TIP3   OH247574   6.656   2.373  15.045  0.8944 -0.0834  0.2040
 8720TIP3    H147575   6.689   2.288  15.014 -1.2650 -0.1970 -1.9403
 8720TIP3    H247576   6.562   2.370  15.027  0.7126  2.6059  0.5350
 8721TIP3   OH247577   7.194   5.344  12.866  0.2189  0.5370  0.1039
 8721TIP3    H147578   7.258   5.392  12.813 -0.3779  1.4495  0.1865
 8721TIP3    H247579   7.246   5.281  12.916  0.9885  0.9155 -0.2107
 8722TIP3   OH247580   7.040   4.329  14.783 -0.6324 -0.6176 -0.2621
 8722TIP3    H147581   6.969   4.301  14.725  0.2755 -2.8505 -0.3445
 8722TIP3    H247582   7.007   4.409  14.824 -3.0453 -1.4330 -0.5332
 8723TIP3   OH247583   0.478   4.479   2.232 -0.4878  1.1485 -0.2339
 8723TIP3    H147584   0.409   4.544   2.235  0.4518  2.1100  1.0773
 8723TIP3    H247585   0.554   4.523   2.270  0.6559 -0.1102 -1.0266
 8724TIP3   OH247586   6.599   5.200  14.483  0.6403  0.2798  0.0251
 8724TIP3    H147587   6.613   5.170  14.394  1.5978  0.9583 -0.0560
 8724TIP3    H247588   6.527   5.146  14.516  1.5256 -1.2642 -0.5249
 8725TIP3   OH247589   6.930   5.256  14.474  0.1693  0.0611  0.7543
 8725TIP3    H147590   6.910   5.227  14.563  0.5808 -2.8582 -0.0461
 8725TIP3    H247591   6.852   5.233  14.424  1.1154 -1.1436 -0.2021
 8726TIP3   OH247592   7.239   6.667   2.884 -0.3300 -0.5213  0.0448
 8726TIP3    H147593   7.169   6.713   2.931  1.5277  2.4987 -0.0362
 8726TIP3    H247594   7.231   6.698   2.794  0.9958 -0.2791  0.0044
 8727TIP3   OH247595   0.707   5.684  12.768  0.3322 -0.2083 -0.0370
 8727TIP3    H147596   0.716   5.603  12.718 -0.2283  0.4372 -1.2149
 8727TIP3    H247597   0.719   5.753  12.703 -0.7840  0.6519  0.6592
 8728TIP3   OH247598   6.849   6.128  15.465 -0.4716  0.0184 -0.7446
 8728TIP3    H147599   6.820   6.062  15.528  2.1254  0.8238  1.3929
 8728TIP3    H247600   6.778   6.193  15.464  0.1159  0.8220  2.6463
 8729TIP3   OH247601   5.523   4.849  12.151 -0.3146  0.7252  0.0845
 8729TIP3    H147602   5.444   4.796  12.142  0.5469 -0.6384  0.3732
 8729TIP3    H247603   5.531   4.864  12.245  0.7661 -0.7157  0.2379
 8730TIP3   OH247604   0.676   4.201  14.187 -0.5154 -0.2621  0.4330
 8730TIP3    H147605   0.618   4.173  14.116 -0.9292 -1.6503  1.2963
 8730TIP3    H247606   0.622   4.193  14.266  0.5349 -0.5576  1.1222
 8731TIP3   OH247607   5.087   5.490  13.734 -0.8211 -0.2163  0.7744
 8731TIP3    H147608   5.088   5.424  13.804  1.1842  0.0551  1.0515
 8731TIP3    H247609   4.999   5.485  13.698 -0.7999 -2.9198  0.9346
 8732TIP3   OH247610   0.213   4.168   0.785  0.8134  0.7728  0.3239
 8732TIP3    H147611   0.190   4.235   0.849  0.4393  1.1744 -0.2260
 8732TIP3    H247612   0.171   4.197   0.703  0.2328 -0.3680  0.1985
 8733TIP3   OH247613   4.571   3.413  13.200  0.3809 -0.0495 -0.1372
 8733TIP3    H147614   4.535   3.493  13.161  2.4314  0.5815 -0.7775
 8733TIP3    H247615   4.548   3.344  13.138  2.0571  0.6772 -1.6075
 8734TIP3   OH247616   5.928   5.684  13.887 -0.2023 -0.0596 -0.0402
 8734TIP3    H147617   5.922   5.645  13.974 -1.4580  1.7596  0.7137
 8734TIP3    H247618   5.940   5.609  13.828 -3.5272 -1.6920  1.2579
 8735TIP3   OH247619   0.971   6.714  14.030  0.2396  0.0542 -0.2398
 8735TIP3    H147620   0.987   6.648  14.097 -0.6762 -0.0019 -0.0712
 8735TIP3    H247621   0.967   6.665  13.948  1.2768  0.1136 -0.3347
 8736TIP3   OH247622   0.373   6.877  15.329 -0.3354  0.6896  0.6488
 8736TIP3    H147623   0.402   6.968  15.336 -0.2213  0.6948  0.1491
 8736TIP3    H247624   0.376   6.844  15.419  1.6216  0.5624  0.5569
 8737TIP3   OH247625   6.002   0.250  14.319 -0.1325 -0.0903 -0.3348
 8737TIP3    H147626   5.929   0.189  14.323 -0.7714  0.7023  0.2346
 8737TIP3    H247627   5.987   0.302  14.240  1.0257 -1.4087 -1.4623
 8738TIP3   OH247628   6.318   4.709  14.846  0.4690 -0.1320 -0.3387
 8738TIP3    H147629   6.400   4.749  14.875 -0.7071 -0.2698  3.5349
 8738TIP3    H247630   6.278   4.775  14.790  1.7468  1.2862  0.3782
 8739TIP3   OH247631   6.844   6.531  15.851 -0.4116  0.3037  0.1875
 8739TIP3    H147632   6.818   6.620  15.876  0.3021  0.6546 -0.3075
 8739TIP3    H247633   6.920   6.543  15.794 -0.0129 -0.6444  0.5041
 8740TIP3   OH247634   1.427   4.089  14.369  0.2685  0.2158 -0.1689
 8740TIP3    H147635   1.425   4.056  14.279 -1.1100  0.1591 -0.1334
 8740TIP3    H247636   1.337   4.115  14.386  0.5491  0.3123  1.1679
 8741TIP3   OH247637   1.326   4.755   0.094  0.2250  0.4703  0.4935
 8741TIP3    H147638   1.256   4.747   0.029 -0.1249  0.4588  0.8717
 8741TIP3    H247639   1.344   4.666   0.122 -1.4334  0.6804  2.3255
 8742TIP3   OH247640   0.537   4.134  12.858 -0.3677  0.3900 -0.1626
 8742TIP3    H147641   0.472   4.204  12.868 -0.2572  0.3892  0.6134
 8742TIP3    H247642   0.621   4.176  12.878 -0.2194  0.2165 -0.4327
 8743TIP3   OH247643   5.996   2.775  13.777  0.0101  0.1565 -0.0231
 8743TIP3    H147644   5.914   2.726  13.766  0.0686  0.2974 -1.1459
 8743TIP3    H247645   5.968   2.864  13.797 -0.1053 -0.0381  0.6910
 8744TIP3   OH247646   6.463   3.868  14.815  0.3156 -0.8042  0.3586
 8744TIP3    H147647   6.479   3.774  14.824 -2.4283 -1.2793  0.6699
 8744TIP3    H247648   6.442   3.897  14.904 -0.5237 -0.2206 -0.0298
 8745TIP3   OH247649   0.424   4.163  15.692  0.4270  0.3277  0.3887
 8745TIP3    H147650   0.374   4.084  15.714 -1.0479  1.4703  1.2956
 8745TIP3    H247651   0.515   4.138  15.705 -0.0242 -1.1720  0.8525
 8746TIP3   OH247652   0.661   3.040  13.782 -0.1480  0.1837 -0.0871
 8746TIP3    H147653   0.714   3.012  13.708 -0.7742  0.1752 -0.5408
 8746TIP3    H247654   0.571   3.030  13.752 -0.4070  0.2218  0.6631
 8747TIP3   OH247655   5.550   5.645  14.066  0.0988 -0.3662 -0.0306
 8747TIP3    H147656   5.503   5.622  13.986  1.1144 -0.6173 -0.5635
 8747TIP3    H247657   5.481   5.671  14.127 -0.8220 -1.7215 -0.4599
 8748TIP3   OH247658   0.916   4.188  14.593 -0.3660  0.3855  0.2286
 8748TIP3    H147659   0.830   4.177  14.634  0.1970 -0.9826  1.0646
 8748TIP3    H247660   0.911   4.137  14.512 -0.4554  0.6087  0.0914
 8749TIP3   OH247661   4.381   2.571  12.888 -0.1495  0.1020 -0.5628
 8749TIP3    H147662   4.412   2.661  12.899  1.1127 -0.1702 -1.8081
 8749TIP3    H247663   4.460   2.517  12.888 -0.7943 -0.8722 -1.1277
 8750TIP3   OH247664   0.130   3.439  13.885  0.1872 -0.2810 -0.2066
 8750TIP3    H147665   0.048   3.489  13.879  1.4375  1.8280 -0.2111
 8750TIP3    H247666   0.102   3.349  13.903 -2.1597  0.2639 -0.9238
 8751TIP3   OH247667   0.040   4.112  13.052 -0.2761  0.1532  0.2632
 8751TIP3    H147668  -0.030   4.153  13.104  1.0415  0.8156  1.5467
 8751TIP3    H247669   0.031   4.149  12.965 -1.6999  0.0201  0.3374
 8752TIP3   OH247670   0.730   4.006  14.709  0.0438 -0.2011 -0.2507
 8752TIP3    H147671   0.782   3.954  14.647 -0.7291 -0.5512 -0.6037
 8752TIP3    H247672   0.687   3.941  14.765 -1.6333  0.0016 -1.2634
 8753TIP3   OH247673   7.250   4.583   0.536 -0.1171 -0.3980 -0.1349
 8753TIP3    H147674   7.328   4.605   0.486 -0.2697  0.1924 -0.1204
 8753TIP3    H247675   7.276   4.510   0.592  1.4710  2.0479  2.4461
 8754TIP3   OH247676   2.622   4.076  15.225 -0.0943  0.2192  0.0888
 8754TIP3    H147677   2.615   4.003  15.287 -2.2436  0.8336  0.6118
 8754TIP3    H247678   2.600   4.037  15.140 -1.6770  0.3448  0.4365
 8755TIP3   OH247679   0.231   5.551  13.832 -0.3293  0.4482 -0.0896
 8755TIP3    H147680   0.230   5.524  13.740  0.5956 -1.0769  0.3273
 8755TIP3    H247681   0.278   5.634  13.831 -0.5241  0.5613 -1.0214
 8756TIP3   OH247682   0.147   5.332  14.493  0.2523  0.3824  0.5534
 8756TIP3    H147683   0.139   5.265  14.425 -1.5440  1.0374  0.1022
 8756TIP3    H247684   0.228   5.309  14.539  0.2055 -1.4939 -0.2433
 8757TIP3   OH247685   6.614   4.897   1.064 -0.3649  0.1868 -0.3168
 8757TIP3    H147686   6.699   4.875   1.101 -0.5892 -0.4662 -0.1829
 8757TIP3    H247687   6.616   4.992   1.055 -0.3772  0.3992  1.5926
 8758TIP3   OH247688   6.840   4.683  13.658  0.1600 -0.4922 -0.0658
 8758TIP3    H147689   6.753   4.721  13.653 -0.6802 -2.3732 -0.3042
 8758TIP3    H247690   6.835   4.622  13.732  1.5661  0.1189  0.5421
 8759TIP3   OH247691   6.097   3.515  15.470 -0.1627  0.1932 -0.2982
 8759TIP3    H147692   6.060   3.589  15.519 -1.0687 -0.0222 -0.6482
 8759TIP3    H247693   6.026   3.452  15.464  1.1215 -1.4617  1.4881
 8760TIP3   OH247694   5.866   2.428  14.100  0.0708  0.0222 -0.2415
 8760TIP3    H147695   5.914   2.352  14.065 -1.5354 -0.7657 -0.7918
 8760TIP3    H247696   5.916   2.454  14.177 -0.0710 -2.4427  0.7467
 8761TIP3   OH247697   6.199   4.895   1.426 -0.1273  0.3891  0.4906
 8761TIP3    H147698   6.118   4.849   1.405 -0.4022  0.3280  1.6743
 8761TIP3    H247699   6.250   4.892   1.345 -0.8933 -0.4225  0.0339
 8762TIP3   OH247700   5.542   4.502  12.897  0.2328  0.7031  0.0173
 8762TIP3    H147701   5.557   4.408  12.899 -1.7605  0.2874 -2.4500
 8762TIP3    H247702   5.542   4.526  12.805 -0.7254  2.8600  0.5178
 8763TIP3   OH247703   1.022   5.271   0.811  0.4729 -0.7443  1.0219
 8763TIP3    H147704   1.115   5.252   0.807  0.7853  0.6100  1.4085
 8763TIP3    H247705   0.979   5.186   0.813  1.6521 -1.3689 -0.1382
 8764TIP3   OH247706   0.042   3.503   0.048 -0.3125  0.2202  0.2363
 8764TIP3    H147707   0.049   3.436   0.116  0.1219 -1.5559 -1.4972
 8764TIP3    H247708   0.122   3.492  -0.004 -0.8424  1.2626 -0.8172
 8765TIP3   OH247709   5.155   5.729  13.119 -0.3896  0.3923 -0.3966
 8765TIP3    H147710   5.098   5.663  13.080 -0.4547 -0.6442  1.4177
 8765TIP3    H247711   5.241   5.713  13.078 -0.0054 -1.9162  1.2284
 8766TIP3   OH247712   0.459   3.600  14.252 -0.2122 -0.6933  0.1949
 8766TIP3    H147713   0.441   3.657  14.178  0.4798 -0.7129 -0.0001
 8766TIP3    H247714   0.552   3.578  14.243  0.2715  0.5064  1.9094
 8767TIP3   OH247715   6.711   3.603   0.522 -0.5721 -0.0159 -0.0182
 8767TIP3    H147716   6.698   3.672   0.457  0.6896  0.3363  0.0885
 8767TIP3    H247717   6.626   3.594   0.565 -0.5776  1.9687  0.4334
 8768TIP3   OH247718   6.874   5.639  13.630 -0.7155 -0.3718 -0.2882
 8768TIP3    H147719   6.846   5.555  13.666 -0.8439 -1.4517 -2.7640
 8768TIP3    H247720   6.953   5.618  13.580  1.3214  1.6428  1.9803
 8769TIP3   OH247721   6.573   5.493  15.079 -0.0196 -0.1631 -0.1388
 8769TIP3    H147722   6.496   5.495  15.137  0.3480 -0.6576  0.3704
 8769TIP3    H247723   6.548   5.432  15.009 -0.1520 -0.1947 -0.0650
 8770TIP3   OH247724   2.139   3.616  13.994  0.4013  0.7666  0.2118
 8770TIP3    H147725   2.162   3.534  13.950  2.0332  0.9318  0.7165
 8770TIP3    H247726   2.177   3.608  14.082  2.5138  2.9054 -0.4157
 8771TIP3   OH247727   1.867   5.417  14.633  0.4512 -0.5673 -0.0752
 8771TIP3    H147728   1.815   5.496  14.646 -0.3127 -1.0463 -0.1548
 8771TIP3    H247729   1.829   5.354  14.694  0.4585 -1.1501 -0.6657
 8772TIP3   OH247730   0.473   5.662  14.704  0.2490  0.5023  0.0182
 8772TIP3    H147731   0.395   5.638  14.654  0.3517 -1.7754  0.8776
 8772TIP3    H247732   0.529   5.707  14.640  0.1734 -1.9180 -1.8430
 8773TIP3   OH247733   6.970   4.694  14.341 -0.0105  0.0608  0.1114
 8773TIP3    H147734   6.983   4.708  14.247  0.0976  0.2572  0.1557
 8773TIP3    H247735   7.057   4.674  14.375  0.0502  0.5955  0.2750
 8774TIP3   OH247736   6.752   6.393  11.962 -0.0046  0.4558 -0.6655
 8774TIP3    H147737   6.789   6.413  11.876  0.7293 -0.0917 -0.4823
 8774TIP3    H247738   6.774   6.469  12.016 -0.5903  0.8630 -0.9931
 8775TIP3   OH247739   6.643   2.982   1.442  0.3410  0.4593  0.3226
 8775TIP3    H147740   6.683   2.970   1.356  1.8772 -1.1780  1.2406
 8775TIP3    H247741   6.634   3.077   1.452 -1.5538  0.6358 -2.3799
 8776TIP3   OH247742   4.935   5.987  14.677 -0.3671  0.3496  0.1318
 8776TIP3    H147743   4.938   5.895  14.651 -0.8137  0.6554 -1.0655
 8776TIP3    H247744   5.026   6.011  14.692 -0.1168  0.0593 -0.8561
 8777TIP3   OH247745   0.599   5.129   1.841  0.2614 -0.8632  0.6858
 8777TIP3    H147746   0.532   5.196   1.826  0.4943 -0.4286  1.5097
 8777TIP3    H247747   0.554   5.046   1.828  0.3661 -0.5504 -1.9976
 8778TIP3   OH247748   6.950   4.154   1.618  0.0770  0.4204  0.3755
 8778TIP3    H147749   6.996   4.228   1.659 -1.2743  1.6131 -0.2309
 8778TIP3    H247750   6.934   4.093   1.690 -0.5351  1.6099  1.2610
 8779TIP3   OH247751   4.845   5.293  12.555  0.0325  0.5080 -0.0538
 8779TIP3    H147752   4.903   5.274  12.481 -0.8818 -0.1579 -0.6105
 8779TIP3    H247753   4.800   5.373  12.530 -1.3151 -0.4742 -0.8724
 8780TIP3   OH247754   5.473   2.996  14.264  0.2560 -0.1020  0.1531
 8780TIP3    H147755   5.502   3.008  14.173  0.1040  1.6868  0.3124
 8780TIP3    H247756   5.521   2.920  14.295 -0.3282 -1.2612 -1.7036
 8781TIP3   OH247757   6.883   4.827  13.012 -0.0915  0.3942 -0.3541
 8781TIP3    H147758   6.808   4.816  12.952 -0.4466  0.3363  0.1009
 8781TIP3    H247759   6.870   4.759  13.078  0.2885  0.4803 -0.1957
 8782TIP3   OH247760   7.116   6.447  14.233  0.5959  0.1127 -0.5564
 8782TIP3    H147761   7.202   6.420  14.201  0.6944  0.1814 -0.3415
 8782TIP3    H247762   7.078   6.367  14.269  0.4850  0.0355 -0.8360
 8783TIP3   OH247763   1.658   5.381  15.631  0.4598  0.2432 -0.2882
 8783TIP3    H147764   1.680   5.311  15.570  0.7473  1.1561 -1.2601
 8783TIP3    H247765   1.662   5.340  15.717 -0.0379 -1.0942 -0.8795
 8784TIP3   OH247766   6.126   2.464  12.766  0.3251 -0.2165  0.0787
 8784TIP3    H147767   6.032   2.461  12.785  0.1980  0.4266 -0.4330
 8784TIP3    H247768   6.156   2.545  12.807  0.7284 -0.5940  0.5405
 8785TIP3   OH247769   7.087   4.457  13.158 -0.1561  0.0502 -0.5141
 8785TIP3    H147770   7.054   4.374  13.193  0.3742 -0.4143 -1.0972
 8785TIP3    H247771   7.011   4.515  13.157 -1.2218 -1.3095 -2.7800
 8786TIP3   OH247772   0.249   1.349  15.001 -0.2233  0.3012 -0.7860
 8786TIP3    H147773   0.267   1.443  15.007 -0.3282  0.3349 -1.0298
 8786TIP3    H247774   0.313   1.316  14.938  0.5716  0.0127  0.1472
 8787TIP3   OH247775   6.163   2.990  12.816  0.0527 -0.2741  0.4822
 8787TIP3    H147776   6.099   3.058  12.794 -1.1614 -1.5039  0.1255
 8787TIP3    H247777   6.248   3.028  12.793 -0.5280  1.4417  1.1026
 8788TIP3   OH247778   6.555   4.133  13.613 -0.3989  0.2276 -0.3124
 8788TIP3    H147779   6.470   4.096  13.589 -1.0446  0.6816  1.2135
 8788TIP3    H247780   6.597   4.066  13.667  0.1375  0.0877 -0.8932
 8789TIP3   OH247781   6.338   4.386  11.861  0.2411 -0.2489  0.1167
 8789TIP3    H147782   6.318   4.423  11.774 -0.4992 -2.0653 -0.5258
 8789TIP3    H247783   6.324   4.458  11.922  1.4221  1.2415 -1.3365
 8790TIP3   OH247784   5.247   5.666  15.422  0.3749  0.8381 -0.2817
 8790TIP3    H147785   5.270   5.619  15.503  1.7318  0.7933 -0.6763
 8790TIP3    H247786   5.237   5.757  15.450 -0.3438  0.6344  0.1425
 8791TIP3   OH247787   0.014   4.384  14.844 -0.6265  0.4115  0.0703
 8791TIP3    H147788  -0.047   4.400  14.917 -1.1013 -3.7598  0.7341
 8791TIP3    H247789  -0.038   4.335  14.780  1.3642 -1.1264 -0.4203
 8792TIP3   OH247790   4.231   5.144  13.247 -0.0056  0.3057 -0.6636
 8792TIP3    H147791   4.235   5.213  13.180 -0.1234  1.8712  0.8933
 8792TIP3    H247792   4.321   5.113  13.256  0.1770  0.7670 -0.8799
 8793TIP3   OH247793   0.445   4.533  12.397  0.3566 -0.4669  0.4075
 8793TIP3    H147794   0.401   4.505  12.316 -0.0174 -0.2702  0.5413
 8793TIP3    H247795   0.374   4.562  12.454  0.6400 -0.4012  0.7273
 8794TIP3   OH247796   7.082   3.960  13.152  0.2386 -0.2955 -0.0503
 8794TIP3    H147797   7.049   3.946  13.241  0.9341 -1.7955 -0.0030
 8794TIP3    H247798   7.012   4.007  13.107  0.8410  2.6041  1.9486
 8795TIP3   OH247799   0.297   6.340  14.149 -0.6010 -0.2853  0.3414
 8795TIP3    H147800   0.301   6.436  14.141 -0.9951 -0.2892  0.0719
 8795TIP3    H247801   0.341   6.321  14.232 -1.0393  0.1777  0.6901
 8796TIP3   OH247802   5.954   3.862  14.183 -0.6698  0.5593  0.2371
 8796TIP3    H147803   5.951   3.934  14.119 -0.1485 -0.7232 -1.2658
 8796TIP3    H247804   5.867   3.823  14.179  0.0988 -1.0592 -1.5394
 8797TIP3   OH247805   4.474   5.357   0.506  0.2772 -0.5168 -0.0119
 8797TIP3    H147806   4.490   5.266   0.531  0.2862 -0.4964  0.0558
 8797TIP3    H247807   4.394   5.354   0.454 -0.4510 -0.3888  1.0915
 8798TIP3   OH247808   5.385   3.740  13.506 -0.0638 -0.1313  0.1034
 8798TIP3    H147809   5.430   3.820  13.478 -2.0975  0.1401 -2.5712
 8798TIP3    H247810   5.315   3.771  13.564 -0.1353 -0.0492 -0.0247
 8799TIP3   OH247811   6.461   1.228   1.239  0.1873  0.1943  0.7665
 8799TIP3    H147812   6.496   1.142   1.264  2.1752  0.8715  0.4246
 8799TIP3    H247813   6.510   1.289   1.294 -0.8093  1.1551  0.5860
 8800TIP3   OH247814   5.412   3.384  13.746 -0.3005 -0.9069  0.3971
 8800TIP3    H147815   5.468   3.309  13.767  0.5182 -0.4309 -0.0665
 8800TIP3    H247816   5.418   3.392  13.651 -0.8132 -0.5838  0.3914
 8801TIP3   OH247817   1.045   5.028  14.926  0.1684 -0.2192  0.4872
 8801TIP3    H147818   1.093   5.045  14.845 -0.1062 -0.9062  0.1738
 8801TIP3    H247819   0.994   4.949  14.907  0.7672 -0.8955  1.6113
 8802TIP3   OH247820   1.496   4.964  15.420 -0.7722  0.4155 -0.0419
 8802TIP3    H147821   1.424   5.007  15.374  0.6416 -0.5405 -3.2735
 8802TIP3    H247822   1.472   4.871  15.420 -0.9911  0.4594  1.6349
 8803TIP3   OH247823   6.247   6.464  12.161  0.0348  0.6597 -0.0543
 8803TIP3    H147824   6.276   6.552  12.136 -1.2791  1.1720  0.2126
 8803TIP3    H247825   6.325   6.409  12.150  0.1501  1.3244 -2.9199
 8804TIP3   OH247826   4.982   3.905  12.744  0.3072  0.1696 -0.0744
 8804TIP3    H147827   5.050   3.890  12.810  1.4692 -0.0538 -1.2983
 8804TIP3    H247828   4.963   3.999  12.750 -0.8856 -0.1758  1.7883
 8805TIP3   OH247829   0.455   5.404  15.829  0.1628 -0.7058  0.8449
 8805TIP3    H147830   0.463   5.311  15.806 -2.8780 -0.6121 -0.7820
 8805TIP3    H247831   0.378   5.408  15.886  0.7053  0.7398  1.4944
 8806TIP3   OH247832   1.534   4.629  15.805 -0.5320 -0.0179  0.7833
 8806TIP3    H147833   1.583   4.692  15.752 -0.4309 -1.2986 -0.6635
 8806TIP3    H247834   1.443   4.641  15.779 -0.6180  0.1335  1.1487
 8807TIP3   OH247835   4.700   5.058  15.406 -0.0465 -0.1197  0.2739
 8807TIP3    H147836   4.699   4.968  15.439  1.4591 -0.9419 -1.7714
 8807TIP3    H247837   4.771   5.059  15.342 -1.7892  1.7996 -1.7321
 8808TIP3   OH247838   5.698   0.000  15.232  0.4772 -0.0760 -0.0907
 8808TIP3    H147839   5.719  -0.047  15.151  0.5261 -1.0147  0.4608
 8808TIP3    H247840   5.633   0.065  15.206  1.3869  0.4573 -1.1226
 8809TIP3   OH247841   6.828   7.051  15.034 -0.1054  0.1012  0.0359
 8809TIP3    H147842   6.846   6.969  15.080 -1.2634 -0.6179 -0.7511
 8809TIP3    H247843   6.900   7.059  14.971  0.6337  0.2801  0.9032
 8810TIP3   OH247844   6.454   0.400  12.980 -0.5934  0.3788  0.5304
 8810TIP3    H147845   6.392   0.329  12.992  0.2334 -0.2945  0.8946
 8810TIP3    H247846   6.500   0.407  13.063  0.5533  0.1455 -0.0672
 8811TIP3   OH247847   0.126   6.993   0.828  0.6632 -0.0340  0.0942
 8811TIP3    H147848   0.146   6.924   0.892  1.8817 -0.7230 -1.0008
 8811TIP3    H247849   0.212   7.025   0.801  0.0959  2.5094  1.1966
 8812TIP3   OH247850   7.146   4.018  14.946  0.2974 -0.0824  0.8095
 8812TIP3    H147851   7.115   4.106  14.965  0.3872 -0.1220  1.1318
 8812TIP3    H247852   7.070   3.974  14.907  0.8178  0.7513 -1.2506
 8813TIP3   OH247853   6.630   4.563   1.638  0.8863 -0.7319  0.3895
 8813TIP3    H147854   6.585   4.534   1.559  0.5386 -1.2038  0.7591
 8813TIP3    H247855   6.675   4.485   1.670  1.9560 -0.2639  0.0276
 8814TIP3   OH247856   6.994   5.783  15.180 -0.4023 -0.6581  0.6658
 8814TIP3    H147857   6.948   5.753  15.102 -0.2606 -0.2497  0.4239
 8814TIP3    H247858   7.071   5.726  15.186 -0.4530 -0.7379  0.5491
 8815TIP3   OH247859   6.428   4.558  15.921  0.6914  0.9146 -0.1269
 8815TIP3    H147860   6.510   4.574  15.967 -0.1696 -0.1657  1.8565
 8815TIP3    H247861   6.423   4.462  15.914 -0.0543  0.9968 -0.8741
 8816TIP3   OH247862   4.802   5.642  12.874  0.4632  0.1374 -0.1434
 8816TIP3    H147863   4.825   5.568  12.930 -0.6023 -1.2488 -1.4806
 8816TIP3    H247864   4.884   5.670  12.834  0.6699 -1.2351 -0.6887
 8817TIP3   OH247865   6.912   2.824  14.575 -0.4720 -0.0818  0.0216
 8817TIP3    H147866   7.000   2.857  14.559 -0.4648 -0.4936 -0.8240
 8817TIP3    H247867   6.870   2.824  14.489 -1.9921  2.0331  0.7333
 8818TIP3   OH247868   7.102   3.860  15.995 -0.0478 -0.3706  0.0892
 8818TIP3    H147869   7.048   3.939  15.996 -0.1647 -0.4176 -1.4416
 8818TIP3    H247870   7.129   3.850  15.904 -2.3467 -3.6437 -0.3418
 8819TIP3   OH247871   7.005   5.742  13.140  0.1244  0.1742 -0.2031
 8819TIP3    H147872   6.915   5.734  13.108  0.4301 -2.3206 -0.5631
 8819TIP3    H247873   7.059   5.729  13.062  0.8089 -0.7084  0.4053
 8820TIP3   OH247874   6.421   3.538  15.174  0.0839  0.4271 -0.2386
 8820TIP3    H147875   6.457   3.545  15.086  0.4497  0.1962 -0.1107
 8820TIP3    H247876   6.342   3.591  15.172  0.3699  0.8507 -0.5632
 8821TIP3   OH247877   5.515   4.579  11.483  0.0695 -0.3806  0.8960
 8821TIP3    H147878   5.516   4.488  11.453  1.5278 -0.1312  0.1097
 8821TIP3    H247879   5.566   4.626  11.417  1.2334  0.6117  2.4539
 8822TIP3   OH247880   1.133   4.806   0.872 -0.1794 -0.4349 -0.4555
 8822TIP3    H147881   1.180   4.817   0.790  1.7474 -0.8568  0.5789
 8822TIP3    H247882   1.135   4.893   0.913 -0.1110 -0.5026 -0.3145
 8823TIP3   OH247883   5.592   2.760  14.469  0.4972 -0.3421  0.0170
 8823TIP3    H147884   5.651   2.686  14.478 -0.0073 -0.7157  0.2561
 8823TIP3    H247885   5.543   2.743  14.389 -0.5440 -0.9285  0.7679
 8824TIP3   OH247886   0.765   5.350  15.247  0.0227  0.0301  0.0986
 8824TIP3    H147887   0.756   5.327  15.340  0.2967 -1.7217 -0.2879
 8824TIP3    H247888   0.709   5.426  15.236  1.6820  1.6488  2.1954
 8825TIP3   OH247889   7.211   4.341  13.681  0.1135 -0.2811 -0.4455
 8825TIP3    H147890   7.257   4.425  13.678 -0.6086  0.1390  0.4158
 8825TIP3    H247891   7.155   4.342  13.603 -0.1873  0.2024 -0.2241
 8826TIP3   OH247892   6.497   4.685  15.670  0.1975 -0.0582  0.1416
 8826TIP3    H147893   6.483   4.623  15.599 -1.0956  0.6087 -0.1986
 8826TIP3    H247894   6.481   4.635  15.749 -2.5218  0.2486 -0.1821
 8827TIP3   OH247895   6.359   5.332   0.375 -0.1384 -0.5931 -0.2656
 8827TIP3    H147896   6.279   5.358   0.421  1.4201 -0.9723  2.7638
 8827TIP3    H247897   6.357   5.237   0.375 -0.9436 -0.6149 -2.5587
 8828TIP3   OH247898   1.225   3.447  14.229 -0.5845  0.2417  0.0683
 8828TIP3    H147899   1.211   3.485  14.142  1.8387  0.1136 -0.4315
 8828TIP3    H247900   1.306   3.487  14.259 -1.4658  0.3702  2.3481
 8829TIP3   OH247901   6.674   5.957  15.930  0.0069  0.4163  0.9885
 8829TIP3    H147902   6.615   5.910  15.870  0.4113  0.4377  0.5720
 8829TIP3    H247903   6.757   5.962  15.882 -0.1145  1.8092  0.9201
 8830TIP3   OH247904   6.116   2.130  15.467  0.4179  0.0403 -0.1398
 8830TIP3    H147905   6.029   2.165  15.487  0.8117  1.0269 -0.1264
 8830TIP3    H247906   6.169   2.156  15.542  0.8618 -0.0689 -0.4179
 8831TIP3   OH247907   1.202   3.695  14.802  0.4135 -0.3360 -0.1027
 8831TIP3    H147908   1.134   3.659  14.744 -0.4015  0.6117  0.2513
 8831TIP3    H247909   1.252   3.618  14.831  0.4128 -0.8864 -1.5249
 8832TIP3   OH247910   5.697   2.139  14.579  0.2539 -0.4902 -0.0994
 8832TIP3    H147911   5.745   2.206  14.628 -0.4654  0.6167 -0.8712
 8832TIP3    H247912   5.689   2.176  14.491 -0.0789 -1.6404 -0.5516
 8833TIP3   OH247913   4.610   3.039  15.068 -0.0808  0.0591 -0.4920
 8833TIP3    H147914   4.612   3.040  14.973  0.4459 -1.4898 -0.5034
 8833TIP3    H247915   4.519   3.054  15.091 -0.2979 -0.1207 -1.2419
 8834TIP3   OH247916   7.054   4.847  15.615 -0.7755  0.3667  0.0877
 8834TIP3    H147917   7.119   4.816  15.551 -1.5501  0.2665 -0.6613
 8834TIP3    H247918   7.015   4.924  15.573 -0.2531  1.1795  1.0851
 8835TIP3   OH247919   6.301   3.397   1.895  0.0793 -0.4285  0.0853
 8835TIP3    H147920   6.297   3.362   1.983  1.5742 -0.9392 -0.0303
 8835TIP3    H247921   6.324   3.322   1.840 -2.7152 -0.5243 -1.0178
 8836TIP3   OH247922   7.173   5.324  14.834 -0.1575  0.1947  0.0582
 8836TIP3    H147923   7.182   5.344  14.740 -0.9057  0.7069  0.0949
 8836TIP3    H247924   7.141   5.234  14.836 -0.0702  0.1553 -0.1722
 8837TIP3   OH247925   5.929   5.976  14.480  0.9480 -0.0107  0.4488
 8837TIP3    H147926   5.966   6.043  14.538 -2.0855  1.2225  1.0992
 8837TIP3    H247927   5.950   5.893  14.522  1.8321  0.7027  1.4420
 8838TIP3   OH247928   3.108   6.106  13.436 -0.5344 -0.9887  0.5126
 8838TIP3    H147929   3.015   6.086  13.447 -0.5045 -2.6092 -1.8944
 8838TIP3    H247930   3.142   6.036  13.380  1.4902  1.2039 -1.1034
 8839TIP3   OH247931   4.786   5.279   1.255  0.1348  0.0260  0.4675
 8839TIP3    H147932   4.844   5.352   1.235  0.4951 -0.2594  0.4643
 8839TIP3    H247933   4.840   5.218   1.305  0.7026 -1.6190 -2.0499
 8840TIP3   OH247934   6.836   5.233  14.149  0.6002 -0.5494  0.6876
 8840TIP3    H147935   6.776   5.275  14.211 -0.9141 -0.7448 -0.6206
 8840TIP3    H247936   6.843   5.296  14.077  1.6361 -0.7288  0.6267
 8841TIP3   OH247937   0.011   6.405  15.542  0.3516  0.3365 -0.4119
 8841TIP3    H147938  -0.022   6.490  15.513 -0.2952  0.4034  0.5054
 8841TIP3    H247939   0.046   6.364  15.462  0.0830  1.1930 -0.9730
 8842TIP3   OH247940   5.975   5.012   0.244  0.0695  0.1914 -0.2399
 8842TIP3    H147941   6.032   5.010   0.321  0.5808 -0.3524 -0.6245
 8842TIP3    H247942   6.016   4.951   0.183  0.6768  1.9915 -1.6625
 8843TIP3   OH247943   0.612   4.234  13.209 -0.1631 -0.1075 -0.3264
 8843TIP3    H147944   0.559   4.305  13.247 -0.4676 -0.7384  0.4527
 8843TIP3    H247945   0.571   4.154  13.242  0.4871 -0.6356 -0.7903
 8844TIP3   OH247946   4.499   2.125  13.983  0.1205 -0.0713  0.1640
 8844TIP3    H147947   4.441   2.195  13.956 -0.2618 -0.3974  0.1335
 8844TIP3    H247948   4.443   2.065  14.033  0.4932 -0.2298  0.3928
 8845TIP3   OH247949   6.716   3.033  13.162  0.0612 -0.3857 -0.2924
 8845TIP3    H147950   6.666   2.980  13.224  1.1144 -1.9338 -0.7314
 8845TIP3    H247951   6.807   3.026  13.192  0.8083 -2.3671 -2.7753
 8846TIP3   OH247952   5.701   4.872  15.949 -0.4731 -0.2524 -0.0223
 8846TIP3    H147953   5.662   4.785  15.956 -0.2687 -0.4104 -0.7379
 8846TIP3    H247954   5.628   4.930  15.930 -0.3898 -0.5311 -1.2488
 8847TIP3   OH247955   4.436   2.788   1.778 -0.0787  0.3990 -0.0870
 8847TIP3    H147956   4.451   2.768   1.870 -0.5187 -2.1849 -0.5221
 8847TIP3    H247957   4.341   2.797   1.769 -0.3378 -2.3912 -0.7776
 8848TIP3   OH247958   2.676   3.432   2.202 -0.2137  0.8954 -0.6631
 8848TIP3    H147959   2.651   3.503   2.262 -0.5950  0.1117  0.1274
 8848TIP3    H247960   2.631   3.355   2.237  1.5019 -0.0834 -0.5519
 8849TIP3   OH247961   5.715   5.248  15.505 -0.0492  0.3989  0.2753
 8849TIP3    H147962   5.634   5.214  15.542 -0.8652 -0.2331 -1.9766
 8849TIP3    H247963   5.703   5.343  15.503 -0.1830  0.4007  1.1683
 8850TIP3   OH247964   6.446   4.729   0.723 -0.7964 -0.3578  0.7463
 8850TIP3    H147965   6.427   4.644   0.683 -2.6089 -0.3230  1.4663
 8850TIP3    H247966   6.541   4.732   0.730 -0.7367 -2.6002  1.2758
 8851TIP3   OH247967   0.251   5.260  13.960  0.0520  0.1094 -0.4735
 8851TIP3    H147968   0.289   5.344  13.934 -1.5415  1.3561  1.0652
 8851TIP3    H247969   0.196   5.234  13.886 -0.7900  1.2898 -0.2782
 8852TIP3   OH247970   6.290   5.704  13.964  0.1725  0.7028  0.7140
 8852TIP3    H147971   6.377   5.666  13.973 -0.1168 -0.1911 -0.1742
 8852TIP3    H247972   6.281   5.722  13.870 -0.0987  1.9981  0.9764
 8853TIP3   OH247973   5.693   3.250  14.218 -0.5126  0.2872  0.3573
 8853TIP3    H147974   5.774   3.280  14.176  1.1634 -1.3013  2.3197
 8853TIP3    H247975   5.632   3.239  14.146  0.2812  3.6932 -0.9361
 8854TIP3   OH247976   5.553   6.521  15.704 -0.3951 -0.4568 -0.4028
 8854TIP3    H147977   5.575   6.530  15.796 -0.2476 -1.1961 -0.3614
 8854TIP3    H247978   5.636   6.502  15.660 -0.4704 -0.1585 -0.6807
 8855TIP3   OH247979   0.042   4.194   0.535 -0.4623 -0.2772 -0.3614
 8855TIP3    H147980   0.013   4.237   0.455 -2.2629  0.2866  0.5783
 8855TIP3    H247981   0.046   4.101   0.512 -2.0776 -0.2523 -0.8114
 8856TIP3   OH247982   6.117   4.781   0.116 -0.0635  0.6826 -0.3989
 8856TIP3    H147983   6.149   4.786   0.026  1.9644  1.0243  0.3322
 8856TIP3    H247984   6.058   4.706   0.115  1.9775 -0.9702 -1.4051
 8857TIP3   OH247985   6.595   4.794   2.155  0.3208  0.0990 -0.1866
 8857TIP3    H147986   6.602   4.769   2.063 -0.0498  2.7626 -0.9687
 8857TIP3    H247987   6.671   4.755   2.196  0.6371 -0.9019 -1.6626
 8858TIP3   OH247988   4.321   4.499  13.532 -0.5851 -0.8708 -1.0615
 8858TIP3    H147989   4.356   4.466  13.615  0.4400 -1.1639 -1.6005
 8858TIP3    H247990   4.270   4.426  13.497 -0.1278 -1.1281 -1.1996
 8859TIP3   OH247991   0.565   6.599  15.726  0.0758 -0.4416  0.8433
 8859TIP3    H147992   0.482   6.605  15.773  0.0577 -0.5289  0.8237
 8859TIP3    H247993   0.575   6.684  15.684 -0.5195 -0.7794 -0.0138
 8860TIP3   OH247994   6.673   4.623  14.674 -0.6591 -0.5469 -0.4243
 8860TIP3    H147995   6.699   4.690  14.610 -0.9714 -0.6024 -0.6141
 8860TIP3    H247996   6.735   4.633  14.746 -1.3972  0.7171  0.0493
 8861TIP3   OH247997   6.023   0.546  15.232 -0.1549 -0.1637 -0.0605
 8861TIP3    H147998   6.063   0.472  15.277 -0.9130 -0.2307  0.5116
 8861TIP3    H247999   5.998   0.606  15.302 -4.1748 -1.6460 -0.0845
 8862TIP3   OH248000   0.400   6.519   1.202 -0.4169  0.2799 -0.0146
 8862TIP3    H148001   0.412   6.595   1.260 -1.1093  0.9595 -0.7641
 8862TIP3    H248002   0.422   6.551   1.115 -2.5915  0.1492 -0.6341
 8863TIP3   OH248003   5.680   5.961  15.827  0.0367 -0.6268  0.0041
 8863TIP3    H148004   5.717   5.978  15.913 -0.9661 -1.2014  0.5534
 8863TIP3    H248005   5.588   5.986  15.834  0.3265  1.0212 -1.4209
 8864TIP3   OH248006   5.846   3.560  10.540  0.3402 -0.1067 -0.4482
 8864TIP3    H148007   5.815   3.612  10.614  2.5386  0.0068  0.4199
 8864TIP3    H248008   5.884   3.623  10.480 -1.7565 -0.1575 -1.8971
 8865TIP3   OH248009   7.079   5.192  13.165 -0.0137  0.1409  0.0078
 8865TIP3    H148010   7.080   5.143  13.083 -1.3938 -0.3457  0.2701
 8865TIP3    H248011   7.043   5.277  13.140  0.4507  0.3220 -0.0581
 8866TIP3   OH248012   1.081   3.797  11.273  0.6873  0.0954 -0.4960
 8866TIP3    H148013   1.087   3.834  11.185  2.6429  1.0809  0.0194
 8866TIP3    H248014   1.150   3.732  11.276 -1.7477 -2.6024 -0.8729
 8867TIP3   OH248015   0.321   2.232  10.577 -0.2768 -0.2781 -0.3545
 8867TIP3    H148016   0.316   2.262  10.486  0.3288 -2.1598 -1.0502
 8867TIP3    H248017   0.393   2.169  10.577  0.5144  0.6070  1.7136
 8868TIP3   OH248018   6.305   5.220  15.103  0.0149  0.2289 -0.3244
 8868TIP3    H148019   6.364   5.232  15.177 -0.0543 -0.0836 -0.2201
 8868TIP3    H248020   6.246   5.296  15.107  0.6271  0.7223 -0.6329
 8869TIP3   OH248021   7.272   3.922  12.796 -0.2321  0.3901 -0.0265
 8869TIP3    H148022   7.264   4.018  12.799 -0.1870  0.5472 -3.3463
 8869TIP3    H248023   7.366   3.906  12.802 -0.2777  0.4724  1.1969
 8870TIP3   OH248024   1.697   2.166  14.552 -0.0986 -0.3841 -0.7630
 8870TIP3    H148025   1.665   2.205  14.471 -1.6236  1.6414  0.7477
 8870TIP3    H248026   1.698   2.239  14.615 -0.9249 -2.3073  1.5691
 8871TIP3   OH248027   0.824   2.496  13.410  0.1859  0.3245  0.5475
 8871TIP3    H148028   0.792   2.585  13.393  0.5999  0.1579 -1.1904
 8871TIP3    H248029   0.753   2.439  13.378  1.1778 -0.0038 -1.1439
 8872TIP3   OH248030   1.195   3.944  14.585  0.2606  0.7579  0.9101
 8872TIP3    H148031   1.186   3.896  14.668 -1.9845  2.9341  1.9849
 8872TIP3    H248032   1.188   4.036  14.610  0.3343  1.4758 -1.6188
 8873TIP3   OH248033   5.188   5.986  12.850  0.2487  0.0637  0.2500
 8873TIP3    H148034   5.203   6.067  12.900  1.7533  0.1877 -0.3716
 8873TIP3    H248035   5.131   6.012  12.778  0.5977  0.5356  0.1444
 8874TIP3   OH248036   6.240   3.730  15.066 -0.4151 -0.1752  0.3846
 8874TIP3    H148037   6.218   3.721  14.973 -0.2958  1.2298  0.2110
 8874TIP3    H248038   6.156   3.726  15.111 -0.6774  1.2734  0.0393
 8875TIP3   OH248039   6.118   3.353  12.481 -0.1560 -0.3945  0.5048
 8875TIP3    H148040   6.166   3.331  12.401  0.9754  0.4749  0.9391
 8875TIP3    H248041   6.036   3.392  12.449  0.8721  1.2007 -0.2414
 8876TIP3   OH248042   5.970   1.160  14.407 -0.4909 -0.1262 -0.6045
 8876TIP3    H148043   6.007   1.204  14.484  0.0318  0.5927 -1.2551
 8876TIP3    H248044   5.947   1.232  14.348  0.4616 -0.7424 -1.7250
 8877TIP3   OH248045   6.166   4.311   0.854  0.3432  0.3148 -0.3453
 8877TIP3    H148046   6.162   4.348   0.943  0.3315  0.0870 -0.2517
 8877TIP3    H248047   6.249   4.343   0.819  0.3100  0.4711 -0.2820
 8878TIP3   OH248048   0.999   4.945   0.017 -0.0565 -0.2094  0.3079
 8878TIP3    H148049   1.042   4.939   0.103 -0.6420 -0.9671  0.5522
 8878TIP3    H248050   0.921   4.998   0.033  0.2138  0.2582  0.0889
 8879TIP3   OH248051   4.528   7.172  14.317  0.1999  0.5587  0.1227
 8879TIP3    H148052   4.569   7.100  14.269  0.2550  1.0270 -0.5315
 8879TIP3    H248053   4.518   7.138  14.406 -1.3878 -0.9114 -0.5812
 8880TIP3   OH248054   0.415   4.455   1.301 -1.2997  0.5392 -0.3067
 8880TIP3    H148055   0.499   4.434   1.341 -0.5194  1.5825 -1.3702
 8880TIP3    H248056   0.362   4.375   1.313  0.9567 -1.3925 -2.6154
 8881TIP3   OH248057   0.868   5.845  14.900 -0.4524 -0.7285  0.0254
 8881TIP3    H148058   0.872   5.821  14.993 -0.6618  0.8745  0.4714
 8881TIP3    H248059   0.918   5.776  14.856  0.2650 -1.1315  1.4031
 8882TIP3   OH248060   2.096   6.345  14.322 -0.5167  0.3675 -0.0402
 8882TIP3    H148061   2.045   6.314  14.397 -0.7117 -1.3773 -0.8586
 8882TIP3    H248062   2.031   6.378  14.260 -0.4002  1.2168  0.2809
 8883TIP3   OH248063   5.422   1.258  15.435 -0.2292 -0.0136  0.1489
 8883TIP3    H148064   5.446   1.219  15.519  0.7492  0.5678  0.1504
 8883TIP3    H248065   5.328   1.275  15.442 -0.5453 -1.8158  0.3635
 8884TIP3   OH248066   0.247   5.829  13.803 -0.5692  0.4255 -0.8425
 8884TIP3    H148067   0.154   5.810  13.799 -0.8160  1.3048  0.3916
 8884TIP3    H248068   0.253   5.916  13.844  0.8298 -0.2992  0.5928
 8885TIP3   OH248069   7.041   5.873  14.554  0.6483  0.2248  0.6300
 8885TIP3    H148070   6.951   5.845  14.535  0.2493 -1.3792  4.5216
 8885TIP3    H248071   7.096   5.803  14.517  0.2127  0.2483 -0.0710
 8886TIP3   OH248072   0.053   5.829  15.242  0.4323 -0.0415 -0.1926
 8886TIP3    H148073   0.122   5.767  15.218 -0.5935  0.1830 -4.2134
 8886TIP3    H248074   0.096   5.914  15.242  0.9673 -0.3004  1.2562
 8887TIP3   OH248075   1.086   2.797  14.832  0.6836 -0.1751  0.7557
 8887TIP3    H148076   1.136   2.878  14.816  0.3624 -0.3630 -1.4111
 8887TIP3    H248077   1.106   2.774  14.922  0.9700  2.1977  1.3407
 8888TIP3   OH248078   0.108   1.700  13.168  0.0975 -0.4750 -0.1260
 8888TIP3    H148079   0.187   1.653  13.195  0.3936 -0.2748 -0.6268
 8888TIP3    H248080   0.069   1.643  13.101 -0.5832 -0.9293  0.6557
 8889TIP3   OH248081   0.726   0.619   1.247  0.5826 -0.4512 -0.1334
 8889TIP3    H148082   0.815   0.650   1.264 -0.4265  1.7297  1.4938
 8889TIP3    H248083   0.681   0.629   1.331 -1.1887 -1.5613 -0.9236
 8890TIP3   OH248084   3.129   5.438  14.244  0.2150 -0.1509 -0.0576
 8890TIP3    H148085   3.088   5.464  14.327 -1.5858  0.9422 -1.2510
 8890TIP3    H248086   3.165   5.351  14.262 -1.6328 -0.6777  1.4015
 8891TIP3   OH248087   7.171   6.773  14.771  0.0595 -0.4034 -0.0967
 8891TIP3    H148088   7.259   6.808  14.785 -0.6944  1.3402  0.3697
 8891TIP3    H248089   7.163   6.704  14.837  0.9919 -0.4223  0.0141
 8892TIP3   OH248090   0.597   3.202  13.996 -0.5557 -0.6653  0.2035
 8892TIP3    H148091   0.636   3.180  13.911  0.0437 -1.1770  0.6073
 8892TIP3    H248092   0.506   3.226  13.975 -0.3388 -0.5423 -0.6083
 8893TIP3   OH248093   7.215   0.911  15.090  0.2174 -0.4535 -0.0902
 8893TIP3    H148094   7.232   1.005  15.080 -0.6476 -0.2129  0.6669
 8893TIP3    H248095   7.147   0.906  15.156 -0.1035 -1.5962 -0.5002
 8894TIP3   OH248096   7.274   7.289  14.364 -0.5810  0.1060  0.0946
 8894TIP3    H148097   7.320   7.216  14.322 -1.6961  0.0072 -0.9914
 8894TIP3    H248098   7.268   7.264  14.456  0.0700 -0.6439 -0.0600
 8895TIP3   OH248099   5.452   0.176  14.238 -0.5146  0.3094  0.1067
 8895TIP3    H148100   5.532   0.127  14.215 -0.7661  0.3215 -0.8240
 8895TIP3    H248101   5.478   0.230  14.313  0.3118  0.2061 -0.0953
 8896TIP3   OH248102   1.892   0.501   3.412 -0.2654 -0.3809  0.3935
 8896TIP3    H148103   1.912   0.587   3.448 -0.7268  0.2501 -0.8126
 8896TIP3    H248104   1.900   0.512   3.317 -1.1151 -1.4541  0.1830
 8897TIP3   OH248105   6.414   4.346  14.138  0.1683  0.2230  0.4118
 8897TIP3    H148106   6.499   4.329  14.097  1.2453 -0.2864  2.7488
 8897TIP3    H248107   6.358   4.273  14.109  0.8737 -0.0775 -0.2038
 8898TIP3   OH248108   0.379   5.563  13.357  0.2465  0.8018  0.2180
 8898TIP3    H148109   0.446   5.579  13.424  1.4196 -0.5407 -0.6067
 8898TIP3    H248110   0.418   5.497  13.300 -1.6045  0.3544 -0.5581
 8899TIP3   OH248111   2.228   6.720   0.885 -0.2691  0.7457  0.1368
 8899TIP3    H148112   2.242   6.804   0.929 -1.7238  0.4177  1.2776
 8899TIP3    H248113   2.315   6.679   0.884  0.1633  1.5980  0.9763
 8900TIP3   OH248114   1.334   4.340  14.095 -0.2675  0.5777 -0.0556
 8900TIP3    H148115   1.267   4.408  14.102 -0.3426  0.5945 -0.8320
 8900TIP3    H248116   1.332   4.315  14.003 -0.3676 -0.6144  0.2621
 8901TIP3   OH248117   0.072   0.103  13.946  0.1833 -0.1404  0.2673
 8901TIP3    H148118   0.148   0.053  13.916 -0.7630 -1.0288 -0.6984
 8901TIP3    H248119  -0.003   0.052  13.916 -0.8391 -1.2804  4.5011
 8902TIP3   OH248120   0.010   0.838  14.250 -0.4768  0.3183 -0.1138
 8902TIP3    H148121   0.098   0.803  14.236 -1.1257 -1.6402  0.5722
 8902TIP3    H248122   0.024   0.923  14.292  1.0982  0.2919 -0.5591
 8903TIP3   OH248123   1.381   7.008  15.013  0.1606  0.4415 -0.3847
 8903TIP3    H148124   1.302   7.058  14.993  0.7119  1.0082 -1.1990
 8903TIP3    H248125   1.443   7.073  15.045 -0.0994 -0.1867  1.4431
 8904TIP3   OH248126   0.026   1.640  13.423  0.1883 -0.2693  0.1707
 8904TIP3    H148127   0.042   1.683  13.339  0.9859  1.9542  1.4137
 8904TIP3    H248128  -0.069   1.638  13.432  0.1288  0.6988 -0.2004
 8905TIP3   OH248129   2.391   5.842  13.077 -0.5525 -0.3174  0.0142
 8905TIP3    H148130   2.353   5.795  13.002  1.1975 -1.3764 -0.2379
 8905TIP3    H248131   2.458   5.783  13.110  0.9023  1.5344  0.4071
 8906TIP3   OH248132   2.064   5.599  13.514 -0.3745 -0.7214 -0.2120
 8906TIP3    H148133   2.101   5.642  13.590  0.6692 -1.4825 -0.2807
 8906TIP3    H248134   2.002   5.663  13.478 -1.4760 -0.6506  1.7089
 8907TIP3   OH248135   0.085   2.246  14.919  0.2317 -0.5827 -0.3099
 8907TIP3    H148136   0.072   2.267  15.011  0.0501 -0.3637 -0.3830
 8907TIP3    H248137   0.178   2.222  14.912  0.2742 -0.4829 -0.0930
 8908TIP3   OH248138   7.269   6.147  15.665  0.2591 -0.0983 -1.0058
 8908TIP3    H148139   7.184   6.107  15.680  0.9659 -1.1181  0.5122
 8908TIP3    H248140   7.250   6.232  15.625 -1.4025 -0.7220 -1.5666
 8909TIP3   OH248141   0.777   1.440  14.674  0.1351 -0.3528 -0.5090
 8909TIP3    H148142   0.797   1.532  14.692  0.4575 -0.5178  0.0164
 8909TIP3    H248143   0.687   1.429  14.704  0.1005 -0.2058 -0.5601
 8910TIP3   OH248144   0.956   6.650  13.396  0.3403  0.1121  0.1088
 8910TIP3    H148145   0.891   6.602  13.448 -0.3074  0.1830 -0.6268
 8910TIP3    H248146   1.038   6.605  13.413 -0.3406 -1.5422 -0.9197
 8911TIP3   OH248147   1.500   1.447  13.009  0.2336 -0.3072  0.3294
 8911TIP3    H148148   1.571   1.483  13.062  0.6148 -1.3162  0.5149
 8911TIP3    H248149   1.527   1.357  12.990 -1.5445 -1.0834  1.3839
 8912TIP3   OH248150   4.165   5.641  13.198 -0.1309 -0.3001  0.5420
 8912TIP3    H148151   4.122   5.682  13.273 -1.7300  1.6081 -1.3546
 8912TIP3    H248152   4.093   5.623  13.137  0.9344 -3.2320  0.0842
 8913TIP3   OH248153   7.190   6.211  12.744 -0.2235  0.2439 -0.2262
 8913TIP3    H148154   7.165   6.183  12.832  0.6384 -1.0488 -0.3763
 8913TIP3    H248155   7.119   6.179  12.688  0.6599 -1.5537 -0.3725
 8914TIP3   OH248156   1.636   6.867  13.604  0.1491  0.2083 -0.1817
 8914TIP3    H148157   1.630   6.858  13.509 -1.6902  1.2226 -0.1795
 8914TIP3    H248158   1.636   6.962  13.619  1.9172  0.0871  0.7645
 8915TIP3   OH248159   7.256   4.793  15.429 -0.1092 -0.3135  0.1759
 8915TIP3    H148160   7.328   4.733  15.409 -0.3739 -0.4996 -0.2166
 8915TIP3    H248161   7.239   4.838  15.346 -0.2903 -0.1050  0.3289
 8916TIP3   OH248162   0.519   7.129  14.670 -0.0213 -0.2862  0.2204
 8916TIP3    H148163   0.614   7.145  14.667 -0.3321  1.1990 -2.3775
 8916TIP3    H248164   0.482   7.210  14.705 -0.4370 -0.5071  0.2960
 8917TIP3   OH248165   1.680   6.086   0.449 -0.8639  0.0266  0.1851
 8917TIP3    H148166   1.635   6.006   0.420 -0.4502  0.5547 -2.0280
 8917TIP3    H248167   1.764   6.083   0.403 -0.4812  1.2897  0.7988
 8918TIP3   OH248168   6.319   0.703  15.227 -0.3424 -0.2808  0.1336
 8918TIP3    H148169   6.404   0.741  15.248 -0.7685  0.0826  1.2471
 8918TIP3    H248170   6.339   0.634  15.164  0.6819  0.3347 -0.2366
 8919TIP3   OH248171   1.017   2.768   1.170 -0.3047 -0.6708  0.0904
 8919TIP3    H148172   0.947   2.832   1.178  1.6721  1.4480  1.0770
 8919TIP3    H248173   1.051   2.781   1.081 -0.5682 -1.0561 -0.0664
 8920TIP3   OH248174   6.932   7.214  14.586  0.9422 -0.2432  0.1557
 8920TIP3    H148175   6.881   7.261  14.520  0.7829 -1.8413 -0.9143
 8920TIP3    H248176   6.873   7.144  14.615  2.5127 -2.1864 -1.1870
 8921TIP3   OH248177   6.255   1.402  14.280  0.1048 -0.0250  0.0906
 8921TIP3    H148178   6.318   1.333  14.303  0.3292 -0.1171 -0.7915
 8921TIP3    H248179   6.264   1.412  14.186 -1.9265 -0.7208 -0.2002
 8922TIP3   OH248180   2.180   6.983  15.205  0.0826 -0.1754 -0.1752
 8922TIP3    H148181   2.270   6.951  15.206  0.3223  0.5009 -0.1763
 8922TIP3    H248182   2.163   7.004  15.113  0.0504  0.0743 -0.1106
 8923TIP3   OH248183   0.247   6.780  14.605  0.4112 -0.7488 -0.8456
 8923TIP3    H148184   0.217   6.703  14.653  1.5555 -0.3589  0.4972
 8923TIP3    H248185   0.320   6.749  14.552  0.6854 -0.6511 -0.5248
 8924TIP3   OH248186   0.044   6.756  14.032 -0.0320  0.0514 -0.2580
 8924TIP3    H148187   0.078   6.780  13.945 -1.8683  0.4210 -0.8997
 8924TIP3    H248188  -0.049   6.778  14.028 -0.3138 -0.7421  1.5268
 8925TIP3   OH248189   4.102   0.144  15.556 -0.0333  0.1244 -0.3900
 8925TIP3    H148190   4.115   0.164  15.463  0.7303  0.0488 -0.3039
 8925TIP3    H248191   4.169   0.079  15.576  0.1234  0.5058  0.3423
 8926TIP3   OH248192   5.908   1.052  14.146  0.1746 -0.4707  0.7227
 8926TIP3    H148193   5.948   1.072  14.231 -0.8504  1.4911  0.7685
 8926TIP3    H248194   5.836   0.993  14.167  1.4786 -2.0293  0.9140
 8927TIP3   OH248195   6.678   0.694  13.941  0.5538  0.3025  0.3557
 8927TIP3    H148196   6.712   0.645  13.867  0.5254  1.3147 -0.3438
 8927TIP3    H248197   6.583   0.685  13.935  0.5800 -0.1993  0.6811
 8928TIP3   OH248198   5.994   0.100  14.858  0.3749  0.0083 -0.7444
 8928TIP3    H148199   5.961   0.159  14.791  0.6086 -0.0675 -0.9258
 8928TIP3    H248200   6.021   0.021  14.811  0.3288 -0.1323 -0.5375
 8929TIP3   OH248201   2.165   6.200  15.812  0.3022 -0.1269  0.6656
 8929TIP3    H148202   2.200   6.266  15.752  0.0575 -0.1314  0.5175
 8929TIP3    H248203   2.229   6.196  15.883  0.9480 -0.6196  0.0670
 8930TIP3   OH248204   2.685   7.275  14.539  0.0613 -0.1551  0.4781
 8930TIP3    H148205   2.746   7.228  14.482 -1.3391 -0.6685 -0.6595
 8930TIP3    H248206   2.663   7.212  14.608 -0.8704 -0.7734 -0.3595
 8931TIP3   OH248207   1.339   1.427  14.075  0.0692  0.0234  0.4869
 8931TIP3    H148208   1.431   1.455  14.078  0.3119 -0.3606 -2.2732
 8931TIP3    H248209   1.309   1.453  13.988 -1.4799 -2.8616  0.1145
 8932TIP3   OH248210   0.148   0.581  14.796 -0.0813  0.1634 -0.2214
 8932TIP3    H148211   0.119   0.672  14.798  1.3656  0.6865 -1.5220
 8932TIP3    H248212   0.175   0.562  14.886  1.6600  1.7269 -0.3877
 8933TIP3   OH248213   3.224   6.114   0.767  0.1727  0.1059  0.0335
 8933TIP3    H148214   3.243   6.203   0.738  0.2570  0.0414 -0.1131
 8933TIP3    H248215   3.156   6.124   0.833 -0.1005  0.2497 -0.2637
 8934TIP3   OH248216   1.529   5.408  14.531 -0.4116  0.4301  0.1845
 8934TIP3    H148217   1.560   5.455  14.454 -1.4757  0.5706 -0.1665
 8934TIP3    H248218   1.561   5.460  14.605  0.7822  0.1842 -0.1591
 8935TIP3   OH248219   6.246   6.353  15.097  0.0170 -0.3544  0.5010
 8935TIP3    H148220   6.296   6.271  15.097  1.0550  0.2723  0.9803
 8935TIP3    H248221   6.164   6.330  15.140  0.4467 -1.0704  0.9647
 8936TIP3   OH248222   0.178   6.115  13.690  0.5279  0.0347  0.1408
 8936TIP3    H148223   0.115   6.140  13.757 -0.1362  2.1115 -1.2437
 8936TIP3    H248224   0.139   6.144  13.608  3.0986  1.0224 -0.7738
 8937TIP3   OH248225   7.126   4.596  14.114  0.1960  0.2388  0.1542
 8937TIP3    H148226   7.116   4.638  14.028  1.6645  1.4820  0.5831
 8937TIP3    H248227   7.064   4.523  14.111  0.5439 -0.0323 -2.1555
 8938TIP3   OH248228   0.215   0.539  15.047  0.2359  0.0222 -0.3502
 8938TIP3    H148229   0.287   0.493  15.090 -1.3358 -0.6807  1.6108
 8938TIP3    H248230   0.181   0.598  15.114 -0.7824  0.6274 -1.3782
 8939TIP3   OH248231   5.887   0.275  13.732  0.0750  0.1155 -0.1164
 8939TIP3    H148232   5.843   0.359  13.749  0.6958  0.5078 -0.4529
 8939TIP3    H248233   5.827   0.229  13.673 -0.7265 -0.0795  0.8268
 8940TIP3   OH248234   5.741   0.095  13.583 -0.2556  0.0470 -0.4214
 8940TIP3    H148235   5.687   0.018  13.600 -1.9476  0.9057 -1.7713
 8940TIP3    H248236   5.812   0.063  13.528 -1.5144 -0.3836 -1.8299
 8941TIP3   OH248237   5.205   2.338  13.618 -0.0450 -0.5048  0.5275
 8941TIP3    H148238   5.178   2.430  13.624 -1.8798 -0.9061 -0.9171
 8941TIP3    H248239   5.131   2.289  13.651 -0.4643 -1.5853 -1.9238
 8942TIP3   OH248240   2.338   5.421  14.708 -0.2165 -0.5844  0.5460
 8942TIP3    H148241   2.390   5.399  14.631 -0.2779 -0.2228  0.4054
 8942TIP3    H248242   2.270   5.353  14.711  0.0222 -0.8269  0.5085
 8943TIP3   OH248243   1.519   5.009  13.145 -0.0071 -0.1414  0.1512
 8943TIP3    H148244   1.528   5.037  13.054 -2.3338  0.7514  0.1628
 8943TIP3    H248245   1.523   4.914  13.142  1.6704 -0.0680 -0.6531
 8944TIP3   OH248246   0.650   5.856  11.962  0.6960  0.1083 -0.2623
 8944TIP3    H148247   0.720   5.916  11.987  1.2366 -0.7966  0.4505
 8944TIP3    H248248   0.577   5.879  12.018  0.3860  1.1085 -1.0622
 8945TIP3   OH248249   7.252   1.907  11.704 -0.0165 -0.3801 -0.0219
 8945TIP3    H148250   7.305   1.877  11.777 -1.0928  0.5637  1.1695
 8945TIP3    H248251   7.202   1.830  11.677 -0.5279 -0.4216  1.0330
 8946TIP3   OH248252   5.755   4.737  11.783 -0.2509  0.1472 -0.1367
 8946TIP3    H148253   5.786   4.741  11.874  1.7397  0.8162 -0.8080
 8946TIP3    H248254   5.741   4.829  11.759  1.6775  0.1644 -1.2864
 8947TIP3   OH248255   2.157   0.984  14.331 -0.3855 -0.3521 -0.0034
 8947TIP3    H148256   2.226   1.003  14.268  0.2461 -1.3013  0.3826
 8947TIP3    H248257   2.197   0.921  14.392 -1.5714 -0.8864  0.2448
 8948TIP3   OH248258   1.246   5.617  14.552 -0.1404 -0.5189 -0.0397
 8948TIP3    H148259   1.278   5.532  14.584  1.8400 -0.4983 -1.8486
 8948TIP3    H248260   1.219   5.599  14.461 -1.6660  0.3523  0.2231
 8949TIP3   OH248261   1.047   5.402  14.493  0.5714 -0.0937  0.1510
 8949TIP3    H148262   0.970   5.349  14.517  0.1424  0.7357  0.6036
 8949TIP3    H248263   1.103   5.399  14.570  0.1538  0.8250  0.4911
 8950TIP3   OH248264   7.023   1.235  13.381 -0.2525  0.0407  0.3194
 8950TIP3    H148265   6.979   1.259  13.299  0.7292  1.5492  0.2058
 8950TIP3    H248266   6.993   1.300  13.444  0.5422  0.0890  0.6508
 8951TIP3   OH248267   0.434   4.885  14.330 -0.3342  0.1167 -0.1742
 8951TIP3    H148268   0.529   4.890  14.319 -0.4661  2.1789 -0.4879
 8951TIP3    H248269   0.411   4.966  14.375 -1.7116 -1.3302  1.7990
 8952TIP3   OH248270   6.849   4.223  14.594 -0.0918 -0.0794 -0.3267
 8952TIP3    H148271   6.815   4.229  14.505 -0.6611 -1.2107 -0.1874
 8952TIP3    H248272   6.827   4.135  14.623 -0.8004  0.5953  1.2886
 8953TIP3   OH248273   5.543   6.614  15.978  0.1168  0.3715 -0.4861
 8953TIP3    H148274   5.631   6.649  15.989  0.0739  0.0107  1.0885
 8953TIP3    H248275   5.490   6.690  15.954  0.2943  1.1730  1.5423
 8954TIP3   OH248276   1.228   6.209   0.279  0.4494 -0.3648  0.9046
 8954TIP3    H148277   1.318   6.240   0.294  0.3325  0.1551  0.5364
 8954TIP3    H248278   1.239   6.118   0.253  1.0139  0.1627 -0.8079
 8955TIP3   OH248279   0.354   4.771  14.076  0.3001  0.0580 -0.0573
 8955TIP3    H148280   0.373   4.746  14.167 -1.1379 -0.3673  0.1468
 8955TIP3    H248281   0.305   4.696  14.041  0.9387  0.1784 -1.2141
 8956TIP3   OH248282   7.103   3.289  14.154 -0.2084 -0.0882  0.0303
 8956TIP3    H148283   7.186   3.332  14.175  0.3461 -1.3514  0.4884
 8956TIP3    H248284   7.074   3.252  14.238 -1.4391  0.6727 -0.0399
 8957TIP3   OH248285   0.812   0.588  14.458  0.2387  0.7635  0.5110
 8957TIP3    H148286   0.780   0.632  14.379  0.0134 -1.1087 -0.4535
 8957TIP3    H248287   0.824   0.659  14.521 -2.2397  1.9533 -0.2904
 8958TIP3   OH248288   0.956   6.458  14.182 -0.0808 -0.2483 -0.0022
 8958TIP3    H148289   1.048   6.440  14.199  0.2135  0.9995 -0.2881
 8958TIP3    H248290   0.918   6.471  14.269  0.5922  2.0563 -0.0415
 8959TIP3   OH248291   6.447   6.196  13.518 -0.0795  0.2142 -0.0786
 8959TIP3    H148292   6.383   6.228  13.454  0.3199 -0.5008 -0.8487
 8959TIP3    H248293   6.402   6.200  13.602 -0.5405  1.3888 -0.3693
 8960TIP3   OH248294   6.816   7.133   0.107  0.0406  0.1830 -0.0639
 8960TIP3    H148295   6.873   7.057   0.094 -0.0708  0.0563  0.1700
 8960TIP3    H248296   6.868   7.192   0.162 -0.0010  0.1263  0.0365
 8961TIP3   OH248297   0.006   4.548  13.046 -0.7746  0.2120  0.3989
 8961TIP3    H148298  -0.016   4.641  13.036  0.4094  0.2890 -1.9979
 8961TIP3    H248299  -0.078   4.505  13.060 -1.0139  2.0271  5.5551
 8962TIP3   OH248300   0.133   6.481  15.808 -0.6085  0.1435  0.3330
 8962TIP3    H148301   0.098   6.441  15.728  0.1900 -0.3195  0.2149
 8962TIP3    H248302   0.080   6.560  15.820 -2.0490 -0.8379  0.4561
 8963TIP3   OH248303   0.581   1.068  13.447  0.6389 -0.1187 -0.2692
 8963TIP3    H148304   0.586   1.010  13.371  0.8749  2.4192 -2.2553
 8963TIP3    H248305   0.511   1.130  13.425 -0.0326  0.0247  2.0760
 8964TIP3   OH248306   0.669   6.890   0.690  0.2507  0.7171 -0.0221
 8964TIP3    H148307   0.642   6.801   0.715 -0.7568  0.9722 -0.1789
 8964TIP3    H248308   0.759   6.897   0.721  0.5140 -0.5408 -0.4691
 8965TIP3   OH248309   0.434   5.808   0.304  0.3998 -0.2652  0.0187
 8965TIP3    H148310   0.499   5.825   0.235  0.3961 -0.2145  0.0285
 8965TIP3    H248311   0.477   5.835   0.385  0.3415 -0.1696  0.0174
 8966TIP3   OH248312   0.434   2.382  14.834  0.2041 -0.0064 -0.2012
 8966TIP3    H148313   0.352   2.431  14.829  0.2006 -0.0383 -0.4964
 8966TIP3    H248314   0.408   2.294  14.861  0.3187  0.4205  1.3227
 8967TIP3   OH248315   0.190   6.623  14.202 -0.2704 -0.2115 -0.1302
 8967TIP3    H148316   0.140   6.648  14.124 -0.5232 -0.4051 -0.0318
 8967TIP3    H248317   0.123   6.597  14.265 -0.0378 -0.5230 -0.0121
 8968TIP3   OH248318   0.942   0.421  14.779 -0.6528 -0.0375 -0.8255
 8968TIP3    H148319   1.021   0.417  14.832 -0.4268 -0.5100 -1.1903
 8968TIP3    H248320   0.892   0.495  14.815  0.3839  0.8532 -1.1865
 8969TIP3   OH248321   2.548   2.069  13.221 -0.4329  0.0395  0.0446
 8969TIP3    H148322   2.522   2.065  13.313 -0.8474 -1.0423 -0.1221
 8969TIP3    H248323   2.638   2.038  13.220  0.0033  1.2432  0.2465
 8970TIP3   OH248324   1.166   7.095   0.548 -0.4938 -0.5674  0.0776
 8970TIP3    H148325   1.231   7.027   0.536  0.0351 -0.0625  0.0748
 8970TIP3    H248326   1.196   7.167   0.492 -1.3293 -0.5275 -0.3374
 8971TIP3   OH248327   6.349   0.993  13.885  0.2325 -0.1797 -0.5264
 8971TIP3    H148328   6.276   0.936  13.906  0.1938  0.0225 -0.1060
 8971TIP3    H248329   6.322   1.079  13.916  0.8822 -0.2156  0.1452
 8972TIP3   OH248330   6.059   0.541  13.592 -0.1984 -0.3966 -0.1896
 8972TIP3    H148331   6.046   0.625  13.635 -1.6151  0.1217 -1.5797
 8972TIP3    H248332   6.022   0.477  13.654 -0.6730  0.1605  0.1096
 8973TIP3   OH248333   0.564   1.526  14.350  0.2148  0.1411 -0.3072
 8973TIP3    H148334   0.561   1.610  14.305  1.6182 -0.0616 -0.7895
 8973TIP3    H248335   0.524   1.464  14.289 -0.9712  0.4735  0.1138
 8974TIP3   OH248336   0.238   0.491   0.272  0.3437 -0.3393 -0.3441
 8974TIP3    H148337   0.226   0.397   0.286 -1.9273 -0.4924 -2.9201
 8974TIP3    H248338   0.280   0.497   0.186  2.0957  0.9554  0.5761
 8975TIP3   OH248339   1.414   0.969  14.866 -0.4260 -0.1065  0.4604
 8975TIP3    H148340   1.329   1.001  14.897 -0.6898 -0.7518  0.4147
 8975TIP3    H248341   1.438   0.900  14.928  0.0834  0.0973  0.4939
 8976TIP3   OH248342   7.265   0.697  13.890  0.3325  0.4847 -0.4254
 8976TIP3    H148343   7.172   0.692  13.867  0.1415 -0.4228  0.4973
 8976TIP3    H248344   7.310   0.653  13.817 -0.0319  0.1558 -0.4557
 8977TIP3   OH248345   6.179   6.614  14.313  0.2754  0.3120 -0.2438
 8977TIP3    H148346   6.172   6.522  14.287 -1.8920  0.2946  0.2959
 8977TIP3    H248347   6.257   6.618  14.368 -0.2494 -1.4629  0.6729
 8978TIP3   OH248348   6.202   6.637  13.529 -0.2577 -0.3414 -0.1773
 8978TIP3    H148349   6.261   6.699  13.571  1.8416 -1.6415 -1.1527
 8978TIP3    H248350   6.126   6.689  13.504  0.3047  1.2862  1.3931
 8979TIP3   OH248351   0.459   1.044   0.402  0.0723  0.5060 -0.4901
 8979TIP3    H148352   0.541   1.080   0.436 -0.3346  0.9328  0.0443
 8979TIP3    H248353   0.486   0.967   0.351  0.9290  1.4425 -1.4622
 8980TIP3   OH248354   6.577   0.124  14.790  0.5648 -0.2296  0.0150
 8980TIP3    H148355   6.499   0.102  14.740  0.5491 -0.9412  0.3397
 8980TIP3    H248356   6.605   0.040  14.829  0.9863  0.1797  0.6057
 8981TIP3   OH248357   4.898   6.985  13.474  0.5490  0.2238 -0.4646
 8981TIP3    H148358   4.961   7.007  13.406  1.4246  2.7026  1.0778
 8981TIP3    H248359   4.937   7.018  13.555 -2.1180  0.6128  0.7208
 8982TIP3   OH248360   0.464   6.336  15.551  0.2313  0.4467  0.1104
 8982TIP3    H148361   0.527   6.395  15.593 -0.3861  1.1371  0.0782
 8982TIP3    H248362   0.387   6.391  15.536 -0.0711 -0.1785 -0.6137
 8983TIP3   OH248363   5.077   5.700   0.261  0.1541 -0.2447  0.1256
 8983TIP3    H148364   5.069   5.793   0.241  2.6698 -0.4275 -2.0486
 8983TIP3    H248365   4.988   5.667   0.260 -0.9147  2.4016  2.4094
 8984TIP3   OH248366   0.507   0.969  12.523 -0.5601  0.1098  0.4901
 8984TIP3    H148367   0.518   1.044  12.582  0.4334  0.8480 -0.6182
 8984TIP3    H248368   0.512   1.007  12.436 -0.5739 -1.1949 -0.0803
 8985TIP3   OH248369   7.146   0.352  14.173 -0.4118  0.2843  0.1919
 8985TIP3    H148370   7.231   0.310  14.160 -0.9328 -0.1086 -2.1959
 8985TIP3    H248371   7.126   0.337  14.265 -0.0417 -3.7641 -0.2967
 8986TIP3   OH248372   1.263   5.790  14.087  0.3191  0.0553 -0.2072
 8986TIP3    H148373   1.355   5.775  14.064  0.4666  0.3442  0.2068
 8986TIP3    H248374   1.217   5.789  14.002  0.5154 -1.3888 -0.3223
 8987TIP3   OH248375   6.654   7.150  14.824  0.2170 -0.1614 -0.0129
 8987TIP3    H148376   6.683   7.101  14.747  3.3010 -1.3734  1.8279
 8987TIP3    H248377   6.728   7.145  14.885 -1.6499  1.8650  2.5307
 8988TIP3   OH248378   0.780   5.593  11.555  0.0815  0.7305  0.0893
 8988TIP3    H148379   0.819   5.616  11.471 -0.0574  0.6230 -0.0044
 8988TIP3    H248380   0.714   5.660  11.570  1.3092  1.7904  0.9597
 8989TIP3   OH248381   0.422   4.594  15.343 -0.9100  0.0919 -0.5048
 8989TIP3    H148382   0.446   4.564  15.255  0.8399  0.8102 -0.3006
 8989TIP3    H248383   0.440   4.518  15.399  0.4742  0.4630 -0.4242
 8990TIP3   OH248384   0.306   4.779  15.085  0.1943 -0.1463 -0.3941
 8990TIP3    H148385   0.392   4.820  15.095  0.9032 -1.4206 -1.1132
 8990TIP3    H248386   0.281   4.799  14.995 -1.1235  1.8034  0.3741
 8991TIP3   OH248387   0.185   5.546  15.249 -0.6426  0.0704  0.1404
 8991TIP3    H148388   0.242   5.584  15.316 -0.4792 -0.7208  0.4594
 8991TIP3    H248389   0.222   5.460  15.232 -0.4620  0.4199 -1.2606
 8992TIP3   OH248390   6.459   1.228  14.350  0.2358  0.0440  0.2484
 8992TIP3    H148391   6.505   1.278  14.419  1.1931 -1.8690  1.0259
 8992TIP3    H248392   6.529   1.183  14.303 -0.5344  0.2887 -1.1507
 8993TIP3   OH248393   2.162   6.837  14.206  0.7382  0.2900 -0.4318
 8993TIP3    H148394   2.119   6.806  14.127  0.4974  1.0565 -0.6054
 8993TIP3    H248395   2.255   6.823  14.190  0.6658  0.1129 -0.7011
 8994TIP3   OH248396   1.543   5.738  13.178  0.0329 -0.4095 -0.0604
 8994TIP3    H148397   1.541   5.715  13.085 -2.4207  0.1530 -0.1715
 8994TIP3    H248398   1.572   5.830  13.179  0.5474 -0.5709 -0.2428
 8995TIP3   OH248399   1.666   7.171  13.937 -0.3930  0.1502  0.3924
 8995TIP3    H148400   1.660   7.231  14.011  1.6714  0.0303  0.6898
 8995TIP3    H248401   1.576   7.160  13.908 -1.0485  1.5587  1.7973
 8996TIP3   OH248402   0.268   0.762  14.279 -0.8931 -0.1407  0.0651
 8996TIP3    H148403   0.328   0.833  14.303 -2.8835  1.2416  1.1747
 8996TIP3    H248404   0.276   0.699  14.350 -2.6440  1.3040  1.6123
 8997TIP3   OH248405   0.413   6.134  13.484  0.8390  0.2648 -0.1495
 8997TIP3    H148406   0.357   6.062  13.514  0.4286  1.3015  1.6659
 8997TIP3    H248407   0.488   6.132  13.543  1.8779 -0.0160 -1.4722
 8998TIP3   OH248408   7.162   2.058  15.284 -0.3243 -0.4014  0.7982
 8998TIP3    H148409   7.180   2.108  15.365  0.1998  1.2708 -0.3202
 8998TIP3    H248410   7.067   2.067  15.272 -0.1823  0.6644  0.4053
 8999TIP3   OH248411   0.897   0.858  14.376  0.6368  0.0648 -0.6582
 8999TIP3    H148412   0.961   0.918  14.336  2.3520 -1.8772 -0.9001
 8999TIP3    H248413   0.879   0.793  14.308  0.9880 -1.3149  0.5370
 9000TIP3   OH248414   7.157   0.990  13.083 -0.5265 -0.8010 -0.1754
 9000TIP3    H148415   7.167   0.980  13.178  0.9543 -0.7268 -0.3083
 9000TIP3    H248416   7.087   0.929  13.059 -2.7077  1.0447  1.3191
 9001TIP3   OH248417   5.573   0.524   0.454  0.0607  0.3321 -0.1418
 9001TIP3    H148418   5.576   0.568   0.369  0.6564 -1.3428 -1.0200
 9001TIP3    H248419   5.642   0.565   0.506  2.1061 -1.0110 -1.7021
 9002TIP3   OH248420   6.391   0.006  12.469  0.2554 -0.0236  0.1210
 9002TIP3    H148421   6.415   0.097  12.453 -0.1655  0.3375  1.4785
 9002TIP3    H248422   6.322   0.010  12.535  0.1000 -1.3149  0.0587
 9003TIP3   OH248423   3.012   1.813   1.785 -0.0120  0.7052  0.1920
 9003TIP3    H148424   2.974   1.734   1.746 -1.6720  1.2238  0.7098
 9003TIP3    H248425   2.963   1.885   1.746  1.6944  1.5328 -0.5068
 9004TIP3   OH248426   6.246   1.856  14.341  0.7417  0.1920  0.3650
 9004TIP3    H148427   6.231   1.839  14.248  0.4623  1.8652  0.0889
 9004TIP3    H248428   6.209   1.944  14.356  0.5090 -0.1812  2.1150
 9005TIP3   OH248429   0.152   0.889  15.452  0.3373  0.1539  0.0377
 9005TIP3    H148430   0.164   0.860  15.542  1.0482  0.3030 -0.0083
 9005TIP3    H248431   0.071   0.941  15.454  0.8467  0.9301  0.7791
 9006TIP3   OH248432   1.330   0.930   0.501  0.4816  0.3422 -0.2333
 9006TIP3    H148433   1.361   1.005   0.552  0.5827 -0.3417  0.7290
 9006TIP3    H248434   1.406   0.903   0.449  0.6136  0.5605 -0.1530
 9007TIP3   OH248435   5.895   5.198  13.988 -0.2999 -0.0823  0.1217
 9007TIP3    H148436   5.932   5.267  14.043 -0.6835  1.1875 -1.1712
 9007TIP3    H248437   5.870   5.129  14.049  0.9495  0.5313  1.3496
 9008TIP3   OH248438   6.336   0.608  14.272  0.0229 -0.1836  0.2344
 9008TIP3    H148439   6.390   0.686  14.270  0.1893 -0.2895  0.5110
 9008TIP3    H248440   6.398   0.536  14.284 -0.3396 -0.1078  2.9580
 9009TIP3   OH248441   0.628   7.111  15.012  0.0593 -0.0955  0.7879
 9009TIP3    H148442   0.586   7.034  14.975  0.0147 -0.0733  0.7931
 9009TIP3    H248443   0.717   7.109  14.978 -0.1995  0.3449  0.0484
 9010TIP3   OH248444   0.881   2.871  15.231  0.2077 -0.5347  0.1017
 9010TIP3    H148445   0.798   2.866  15.279 -0.5224  4.3113 -0.3911
 9010TIP3    H248446   0.860   2.837  15.144 -1.0111 -0.4288  0.3362
 9011TIP3   OH248447   1.146   0.354  12.506 -0.2863 -0.3460 -0.1607
 9011TIP3    H148448   1.189   0.283  12.459 -0.6954  1.0314 -2.6958
 9011TIP3    H248449   1.083   0.390  12.444 -1.5415  0.9342  1.7776
 9012TIP3   OH248450   1.806   0.814   1.135  0.1541  0.1952 -0.4593
 9012TIP3    H148451   1.732   0.815   1.197  0.4528  1.9668 -0.1288
 9012TIP3    H248452   1.882   0.793   1.189  0.3848  1.5466 -0.2610
 9013TIP3   OH248453   5.011   6.738   1.000  0.2639 -0.2274 -0.7837
 9013TIP3    H148454   5.011   6.673   0.930  0.6500 -0.9814 -0.0907
 9013TIP3    H248455   5.098   6.731   1.038 -0.2547 -0.4608  0.3640
 9014TIP3   OH248456   1.857   6.558   0.485  0.3498  0.0390 -0.2251
 9014TIP3    H148457   1.933   6.599   0.526  0.0979  0.6575 -0.3687
 9014TIP3    H248458   1.885   6.539   0.395 -0.3737  2.3039 -0.9581
 9015TIP3   OH248459   6.208   7.293  13.470 -0.9970 -0.1697  0.6036
 9015TIP3    H148460   6.244   7.364  13.523  0.7818 -0.8468  0.3582
 9015TIP3    H248461   6.239   7.213  13.513 -1.3613 -0.7510 -0.1999
 9016TIP3   OH248462   1.301   0.190  14.579  0.3194 -0.3239 -0.2601
 9016TIP3    H148463   1.220   0.210  14.531  0.1725 -0.2344  0.0235
 9016TIP3    H248464   1.319   0.269  14.629  0.8371 -0.1793 -0.6758
 9017TIP3   OH248465   7.185   5.886  15.608 -0.0991 -0.1988  0.0780
 9017TIP3    H148466   7.262   5.943  15.607  0.2820 -0.6413  2.2208
 9017TIP3    H248467   7.200   5.823  15.538 -0.3156  2.0165 -2.0364
 9018TIP3   OH248468   0.783   5.212  15.009 -0.3967  0.3042 -0.8702
 9018TIP3    H148469   0.777   5.236  15.102  1.7518  0.0480 -0.6266
 9018TIP3    H248470   0.877   5.201  14.994 -0.7115  0.6292 -3.1635
 9019TIP3   OH248471   1.491   6.561  15.880 -0.0441 -0.1892  0.0695
 9019TIP3    H148472   1.472   6.647  15.917  0.7981 -1.3504  3.3382
 9019TIP3    H248473   1.410   6.512  15.889  0.2610 -0.5831  0.6734
 9020TIP3   OH248474   5.573   4.073   0.972  0.0880 -0.0223 -0.4317
 9020TIP3    H148475   5.490   4.092   1.016 -0.9772  1.8252 -3.1006
 9020TIP3    H248476   5.632   4.142   1.001  0.6421 -1.1326  1.1867
 9021TIP3   OH248477   1.432   5.506  14.902  0.2568  0.1555 -0.7074
 9021TIP3    H148478   1.501   5.451  14.940 -0.6150 -0.9519 -0.7122
 9021TIP3    H248479   1.408   5.566  14.973 -0.5592 -1.1455  0.1187
 9022TIP3   OH248480   6.975   3.628  14.173  0.3107  0.8372 -0.0939
 9022TIP3    H148481   6.985   3.710  14.223  0.0132  1.2087 -0.6337
 9022TIP3    H248482   6.987   3.559  14.238 -1.0684  1.3160  0.6867
 9023TIP3   OH248483   1.281   6.774   1.961  0.3208  0.5213  0.1347
 9023TIP3    H148484   1.245   6.861   1.942 -0.5237  0.3100  0.7408
 9023TIP3    H248485   1.204   6.718   1.971  0.7443  0.3817  3.0213
 9024TIP3   OH248486   0.667   6.396  14.905  0.5889 -0.1081 -0.0441
 9024TIP3    H148487   0.601   6.345  14.858  0.1669 -0.3731  0.8276
 9024TIP3    H248488   0.725   6.429  14.836 -2.1103  2.5877 -1.1272
 9025TIP3   OH248489   7.238   2.538  14.776  0.4128 -0.0438 -0.3577
 9025TIP3    H148490   7.196   2.618  14.806 -1.2290 -1.3502  0.9290
 9025TIP3    H248491   7.166   2.486  14.738  1.0266 -1.8680  0.9192
 9026TIP3   OH248492   6.893   1.424  15.072 -0.1695 -0.0508 -0.3194
 9026TIP3    H148493   6.841   1.344  15.058 -0.2945  0.3655 -2.4502
 9026TIP3    H248494   6.983   1.397  15.053  0.0391 -0.0970  0.6920
 9027TIP3   OH248495   5.458   1.341  12.708 -0.3037 -0.3707 -0.5204
 9027TIP3    H148496   5.440   1.323  12.800 -0.9870  1.7113 -0.2274
 9027TIP3    H248497   5.373   1.368  12.672  0.1960 -0.1137 -1.5123
 9028TIP3   OH248498   5.320   5.666  15.120  0.4821 -0.5456  0.1115
 9028TIP3    H148499   5.390   5.729  15.101 -0.4944  1.0009  1.5730
 9028TIP3    H248500   5.317   5.660  15.215 -1.9320  0.0500  0.1050
 9029TIP3   OH248501   6.153   0.462  15.673 -0.6036 -0.3975 -0.0312
 9029TIP3    H148502   6.067   0.500  15.690 -0.2252  0.0014  1.0106
 9029TIP3    H248503   6.136   0.370  15.655 -1.3247 -0.1552 -0.6274
 9030TIP3   OH248504   2.160   0.844   1.414  0.3836  0.5487  0.0840
 9030TIP3    H148505   2.226   0.816   1.477 -0.0283  0.8164  0.6424
 9030TIP3    H248506   2.119   0.762   1.384 -0.1846  0.4840  1.0104
 9031TIP3   OH248507   1.468   6.909  15.262  0.4687 -0.0168 -0.1180
 9031TIP3    H148508   1.463   6.914  15.167 -1.3571  0.6956 -0.0068
 9031TIP3    H248509   1.393   6.854  15.288 -0.4541  1.6958  1.0220
 9032TIP3   OH248510   5.930   5.813  13.640 -0.4667  0.2823 -0.1390
 9032TIP3    H148511   5.845   5.843  13.610 -0.4665  1.3488  0.9138
 9032TIP3    H248512   5.912   5.767  13.722 -0.0462  0.3956  0.0187
 9033TIP3   OH248513   3.251   0.696   1.170  0.6252 -0.0964 -0.2221
 9033TIP3    H148514   3.304   0.648   1.234  1.1223  0.8080  0.0574
 9033TIP3    H248515   3.237   0.781   1.210  0.1771  0.1644 -0.9330
 9034TIP3   OH248516   0.614   6.616   0.672  0.1009 -0.0471  0.2851
 9034TIP3    H148517   0.551   6.553   0.638 -0.6998  1.3925 -0.9677
 9034TIP3    H248518   0.695   6.598   0.624 -0.2253  0.1009 -0.3188
 9035TIP3   OH248519   1.723   7.073   1.640  0.1569 -0.0747 -0.3799
 9035TIP3    H148520   1.812   7.109   1.638  0.3663 -0.5917 -0.2301
 9035TIP3    H248521   1.679   7.123   1.710 -0.3344  1.7310 -1.9209
 9036TIP3   OH248522   4.677   0.013  13.745 -0.3426 -0.1343  0.6832
 9036TIP3    H148523   4.770   0.017  13.721 -0.4079  0.6566  0.5515
 9036TIP3    H248524   4.637   0.087  13.698 -1.0435 -0.4997  0.7064
 9037TIP3   OH248525   1.543   3.218  12.670 -0.2574  0.9896  0.5151
 9037TIP3    H148526   1.579   3.144  12.621 -0.4901  1.5740 -0.5678
 9037TIP3    H248527   1.586   3.214  12.755  0.4430  0.1782  0.1316
 9038TIP3   OH248528   1.187   5.334  13.613 -0.1624 -0.1204 -0.0593
 9038TIP3    H148529   1.266   5.286  13.587  1.1772  0.6522  2.3767
 9038TIP3    H248530   1.205   5.425  13.588  0.1180  0.2026  1.2552
 9039TIP3   OH248531   1.599   6.536  14.630 -0.3141  0.2470 -0.5094
 9039TIP3    H148532   1.570   6.626  14.642 -0.1077  0.1682  0.6699
 9039TIP3    H248533   1.673   6.542  14.569  1.9453  1.3069  2.1941
 9040TIP3   OH248534   1.317   4.740  14.196 -0.1463 -0.5565  0.3911
 9040TIP3    H148535   1.227   4.710  14.184  0.9359 -3.7168 -0.2694
 9040TIP3    H248536   1.339   4.784  14.114 -1.8228  2.2976  1.4345
 9041TIP3   OH248537   3.336   7.002   0.408 -0.7077 -0.2492  0.0251
 9041TIP3    H148538   3.369   7.052   0.333 -1.0546 -0.8048 -0.5068
 9041TIP3    H248539   3.367   7.050   0.485 -1.3223  0.9768 -0.4774
 9042TIP3   OH248540   0.073   6.880  12.439  0.2072 -0.0990  0.9069
 9042TIP3    H148541   0.003   6.873  12.503  1.1573  2.6976  2.3042
 9042TIP3    H248542   0.063   6.967  12.401  0.7603 -1.0295 -1.4672
 9043TIP3   OH248543   1.142   6.108  14.033  0.1071 -0.2913 -0.2870
 9043TIP3    H148544   1.167   6.016  14.038 -0.0167 -0.2668  1.2194
 9043TIP3    H248545   1.050   6.109  14.061  0.4364  0.4046  0.8205
 9044TIP3   OH248546   7.171   5.353  14.566  0.0365 -0.2957  1.1425
 9044TIP3    H148547   7.259   5.339  14.531  0.1410  1.3233  0.7195
 9044TIP3    H248548   7.114   5.307  14.505  0.4911 -0.2707  0.6931
 9045TIP3   OH248549   6.224   5.811  15.430  0.4157  0.2432 -0.6444
 9045TIP3    H148550   6.137   5.800  15.392  0.5782 -0.6913 -0.7554
 9045TIP3    H248551   6.210   5.803  15.524  0.6238 -1.6262 -0.7549
 9046TIP3   OH248552   6.427   6.568  15.067  0.4128 -0.3004 -0.2379
 9046TIP3    H148553   6.420   6.633  15.136  0.1101 -1.3176  0.6928
 9046TIP3    H248554   6.357   6.505  15.085 -0.2347 -0.1074 -1.9665
 9047TIP3   OH248555   1.172   6.771  15.687 -0.0024 -0.0062  0.4507
 9047TIP3    H148556   1.170   6.722  15.605  1.1795 -0.2304  0.5361
 9047TIP3    H248557   1.183   6.704  15.754  0.6229  0.2961  0.6531
 9048TIP3   OH248558   0.758   6.802  14.427  0.2767  0.3786 -0.2257
 9048TIP3    H148559   0.751   6.866  14.356  0.5573  0.0956 -0.5118
 9048TIP3    H248560   0.795   6.724  14.385 -1.5966 -0.5248 -0.2132
 9049TIP3   OH248561   0.126   5.418  14.895 -0.2399  0.9722 -0.2154
 9049TIP3    H148562   0.126   5.488  14.829  0.4221  0.3265 -0.8949
 9049TIP3    H248563   0.034   5.393  14.903 -0.3251  1.0897 -0.8514
 9050TIP3   OH248564   7.296   2.029   0.590  0.0810  0.8910 -0.1359
 9050TIP3    H148565   7.364   1.991   0.646  2.1264  0.7604 -2.6261
 9050TIP3    H248566   7.273   1.959   0.529 -1.6329  1.2512  0.0590
 9051TIP3   OH248567   7.116   0.607   0.923 -0.5008 -0.1741 -0.1941
 9051TIP3    H148568   7.052   0.627   0.854  0.7811 -1.0839 -1.6862
 9051TIP3    H248569   7.070   0.545   0.980 -1.7216  0.9159  0.0351
 9052TIP3   OH248570   7.260   0.377  13.697 -0.4170 -0.2815 -0.5821
 9052TIP3    H148571   7.203   0.385  13.774 -0.0402 -0.2942 -0.2975
 9052TIP3    H248572   7.200   0.380  13.623 -0.8641 -1.0196 -0.2656
 9053TIP3   OH248573   7.130   0.702   0.497  0.5958  0.1708  0.0160
 9053TIP3    H148574   7.113   0.792   0.469 -0.8307  0.0112  0.3078
 9053TIP3    H248575   7.182   0.664   0.426 -0.4151  0.6660 -1.0021
 9054TIP3   OH248576   1.041   5.439  15.820  0.5018  0.3483 -0.7115
 9054TIP3    H148577   0.975   5.504  15.794  0.7097  0.1460 -1.7647
 9054TIP3    H248578   1.088   5.480  15.893  0.9477  1.5837 -1.6749
 9055TIP3   OH248579   0.355   5.225   0.618 -0.0094  0.1111 -0.6760
 9055TIP3    H148580   0.430   5.180   0.580  0.0765 -0.2914 -0.0384
 9055TIP3    H248581   0.389   5.310   0.646 -0.0500  0.3681 -1.4029
 9056TIP3   OH248582   3.983   5.992  15.206 -0.2878  0.7327 -0.2842
 9056TIP3    H148583   3.994   5.991  15.301  0.6357 -2.3003 -0.3810
 9056TIP3    H248584   4.035   6.066  15.177  2.5375 -0.5602  1.2648
 9057TIP3   OH248585   0.454   4.183  13.944  0.0165  0.5132 -0.4305
 9057TIP3    H148586   0.397   4.196  13.868 -0.7811  0.6874  0.1922
 9057TIP3    H248587   0.490   4.095  13.932 -1.3171 -0.0690 -0.2135
 9058TIP3   OH248588   0.256   3.268  15.656 -0.3348  0.4735 -0.3928
 9058TIP3    H148589   0.249   3.201  15.723 -2.1007  0.2123 -0.8170
 9058TIP3    H248590   0.303   3.226  15.584  0.2371  0.2889  0.0912
 9059TIP3   OH248591   0.840   6.747  12.185 -0.0630 -0.3391 -0.0474
 9059TIP3    H148592   0.855   6.836  12.156 -1.4896  0.0789  0.4395
 9059TIP3    H248593   0.769   6.715  12.128 -0.6673 -0.6014  0.8424
 9060TIP3   OH248594   1.157   0.012  15.586 -0.5465 -0.5497 -0.0827
 9060TIP3    H148595   1.122   0.100  15.572  3.6308  1.1638 -0.2803
 9060TIP3    H248596   1.165  -0.024  15.498  0.4571 -0.0360 -0.1987
 9061TIP3   OH248597   0.951   6.495  14.784  0.5756  0.8494  0.7896
 9061TIP3    H148598   0.913   6.579  14.755 -0.5021  0.9470  2.4451
 9061TIP3    H248599   1.037   6.519  14.819  0.1596  1.3036  1.5108
 9062TIP3   OH248600   5.178   0.453  15.014 -0.6419 -0.3279 -0.5162
 9062TIP3    H148601   5.203   0.483  14.927  2.1240 -1.1049 -0.0587
 9062TIP3    H248602   5.119   0.380  14.998  1.8276 -2.1233 -1.8587
 9063TIP3   OH248603   0.215   2.912  13.619 -0.0450  0.3845 -0.2953
 9063TIP3    H148604   0.215   2.937  13.526 -3.1956  0.5984 -0.2749
 9063TIP3    H248605   0.191   2.819  13.619 -0.2751  0.4414  0.3091
 9064TIP3   OH248606   1.519   6.870  14.574  0.3587  0.1221 -0.1398
 9064TIP3    H148607   1.607   6.905  14.568  0.2179  0.4310 -0.4099
 9064TIP3    H248608   1.498   6.840  14.486 -0.3979  1.4984 -0.4393
 9065TIP3   OH248609   5.877   0.157  14.038 -0.3689  0.4000  0.3628
 9065TIP3    H148610   5.966   0.138  14.010 -0.3389  0.0478  0.6901
 9065TIP3    H248611   5.839   0.207  13.966 -0.3894 -0.7192 -0.4142
 9066TIP3   OH248612   0.425   0.176   0.364  0.0449 -0.7149 -0.1346
 9066TIP3    H148613   0.408   0.200   0.455 -0.0012 -0.5882 -0.1751
 9066TIP3    H248614   0.516   0.199   0.349 -0.1130 -0.1700 -0.2927
 9067TIP3   OH248615   4.193   5.848  13.703 -0.1688  0.3736  0.0976
 9067TIP3    H148616   4.122   5.817  13.759 -0.4006 -0.3676 -0.6007
 9067TIP3    H248617   4.261   5.876  13.764 -0.8614  0.6234  0.7637
 9068TIP3   OH248618   4.647   5.277  11.113  0.1887 -0.1475  0.7039
 9068TIP3    H148619   4.633   5.183  11.104 -1.7772  0.1945 -0.0530
 9068TIP3    H248620   4.634   5.295  11.206 -1.1349 -0.3775  0.5738
 9069TIP3   OH248621   2.362   5.335  13.671 -0.2048 -0.1627  0.1691
 9069TIP3    H148622   2.406   5.349  13.754 -1.5505 -0.0141  0.8674
 9069TIP3    H248623   2.338   5.422  13.640  2.2469 -0.0189 -1.4917
 9070TIP3   OH248624   3.028   7.296  13.075 -0.1382  0.2123  0.0131
 9070TIP3    H148625   2.967   7.297  13.001  0.5585  1.0067 -0.5576
 9070TIP3    H248626   3.110   7.265  13.038  0.3169  0.9730  0.3695
 9071TIP3   OH248627   4.381   0.403  12.565  0.2543 -0.6076 -0.0359
 9071TIP3    H148628   4.460   0.450  12.593  0.2200 -0.3824 -0.3144
 9071TIP3    H248629   4.410   0.312  12.556  0.5844 -0.4558 -0.5351
 9072TIP3   OH248630   2.737   6.707  15.270  0.1936 -0.2280 -0.1898
 9072TIP3    H148631   2.699   6.707  15.358  1.6174 -1.3590  0.4408
 9072TIP3    H248632   2.803   6.637  15.272 -0.0283 -0.5340 -2.2742
 9073TIP3   OH248633   1.965   7.117  13.975  0.0649  0.1005  0.0172
 9073TIP3    H148634   1.934   7.198  13.935 -0.2055 -0.2938 -0.5848
 9073TIP3    H248635   1.892   7.056  13.966  0.9950 -0.8536 -1.4790
 9074TIP3   OH248636   2.589   0.339  14.810  0.5805 -0.4050  0.0334
 9074TIP3    H148637   2.633   0.319  14.892  2.0452 -0.2203 -0.6922
 9074TIP3    H248638   2.643   0.297  14.743 -0.5561 -0.4834 -0.8439
 9075TIP3   OH248639   2.214   6.475  13.099  0.2977  0.1202 -0.4457
 9075TIP3    H148640   2.259   6.423  13.033  0.0797 -0.1106 -0.4127
 9075TIP3    H248641   2.128   6.434  13.107  0.2842  0.2171 -0.0991
 9076TIP3   OH248642   2.526   4.356  14.186 -0.4177  0.7869 -0.4127
 9076TIP3    H148643   2.436   4.383  14.166 -0.8015  1.2300  1.7948
 9076TIP3    H248644   2.520   4.260  14.194 -1.2675  1.0117  2.2512
 9077TIP3   OH248645   4.538   5.719   0.312  0.1372  0.0782 -0.3529
 9077TIP3    H148646   4.551   5.634   0.270  0.0850 -0.6567  1.0932
 9077TIP3    H248647   4.443   5.732   0.312  0.1670  0.3045 -0.8913
 9078TIP3   OH248648   4.847   7.179  14.532  0.8765 -0.1715 -0.5305
 9078TIP3    H148649   4.893   7.263  14.538  1.8675 -0.7224 -0.4779
 9078TIP3    H248650   4.835   7.166  14.438  1.0842 -0.1718 -0.5566
 9079TIP3   OH248651   1.011   6.662  11.908  0.3130 -0.4536  0.1956
 9079TIP3    H148652   1.023   6.757  11.899  1.2106 -0.6672 -0.9754
 9079TIP3    H248653   0.919   6.648  11.888  0.7039 -0.0859 -1.9682
 9080TIP3   OH248654   0.791   0.825  14.619 -0.6169 -0.0351 -0.0539
 9080TIP3    H148655   0.832   0.851  14.536 -0.0525  0.6784  0.4536
 9080TIP3    H248656   0.722   0.890  14.633 -0.8380 -0.2680 -0.0519
 9081TIP3   OH248657   3.314   6.706  14.470 -0.6589  0.4959 -0.4540
 9081TIP3    H148658   3.290   6.733  14.381 -0.2489 -1.2219 -1.1094
 9081TIP3    H248659   3.246   6.644  14.496 -1.3159  1.7226  0.8276
 9082TIP3   OH248660   2.910   6.692   1.013 -0.5968  0.7946 -0.2031
 9082TIP3    H148661   2.907   6.658   0.923 -1.9536  1.9852 -0.6117
 9082TIP3    H248662   2.820   6.714   1.034 -0.9490 -3.0692  2.8774
 9083TIP3   OH248663   0.473   6.912  14.886 -0.0817  0.7463  0.5216
 9083TIP3    H148664   0.434   6.919  14.799 -1.9441  0.8186  1.3289
 9083TIP3    H248665   0.472   6.818  14.905  1.5650  0.5946 -0.0619
 9084TIP3   OH248666   1.678   0.319  12.533 -0.2240 -0.5392 -0.0583
 9084TIP3    H148667   1.729   0.391  12.494 -0.4509  0.0676  0.7436
 9084TIP3    H248668   1.669   0.256  12.463  0.1819  0.1185 -0.7151
 9085TIP3   OH248669   5.358   6.436  12.844  0.6021 -0.0619  0.7063
 9085TIP3    H148670   5.305   6.502  12.888 -0.4343 -0.0538 -0.5065
 9085TIP3    H248671   5.419   6.486  12.790  0.3360 -0.0811  0.3832
 9086TIP3   OH248672   0.232   0.418  13.843 -0.4415  0.2026  0.1761
 9086TIP3    H148673   0.194   0.456  13.923 -1.4929  0.8240 -0.6079
 9086TIP3    H248674   0.157   0.379  13.797  0.2625 -0.7022 -0.2021
 9087TIP3   OH248675   1.859   4.424  13.137 -0.1656 -0.3990 -0.0061
 9087TIP3    H148676   1.843   4.518  13.145 -0.2247 -0.4453  0.4091
 9087TIP3    H248677   1.952   4.413  13.157 -0.0772 -0.3849 -0.4089
 9088TIP3   OH248678   1.735   6.670  14.947 -0.1389 -0.3611 -0.4517
 9088TIP3    H148679   1.763   6.602  14.887 -0.2172 -1.4815  0.7565
 9088TIP3    H248680   1.808   6.731  14.950  0.7945 -1.4853  0.0580
 9089TIP3   OH248681   0.083   6.412  12.806 -0.2264  0.1013 -0.4025
 9089TIP3    H148682   0.003   6.377  12.767 -0.5092  1.3235 -0.9141
 9089TIP3    H248683   0.070   6.506  12.808 -0.1437  0.1050  2.4628
 9090TIP3   OH248684   2.215   0.149  14.394  0.1314  0.2451  0.0189
 9090TIP3    H148685   2.217   0.143  14.298  0.4095 -0.0388  0.0392
 9090TIP3    H248686   2.269   0.076  14.423  2.2836  1.9091  0.3308
 9091TIP3   OH248687   3.111   3.968  13.954  0.0765  0.0702  0.3650
 9091TIP3    H148688   3.131   4.033  14.021 -0.6254 -0.0932  0.7385
 9091TIP3    H248689   3.190   3.964  13.900  0.2839  0.9209  0.5937
 9092TIP3   OH248690   2.856   4.190  15.129 -0.4711  0.4099 -0.0307
 9092TIP3    H148691   2.775   4.141  15.145 -0.2217 -0.0394 -0.1258
 9092TIP3    H248692   2.923   4.140  15.175 -0.4345  1.4215  1.0373
 9093TIP3   OH248693   2.961   6.252  13.792  0.0712 -0.6554 -0.1081
 9093TIP3    H148694   2.910   6.284  13.717  0.5300 -2.0920 -1.0498
 9093TIP3    H248695   2.998   6.331  13.831  0.7144  0.0426 -2.0431
 9094TIP3   OH248696   4.357   1.513  12.171  0.5279  0.4402  0.0429
 9094TIP3    H148697   4.400   1.440  12.216  1.0862  1.7631  1.7568
 9094TIP3    H248698   4.370   1.587  12.230  0.3433  2.0196 -1.8527
 9095TIP3   OH248699   2.328   0.484  14.386  0.1801  0.6073 -0.0308
 9095TIP3    H148700   2.273   0.546  14.339  1.7263  1.0200 -1.3432
 9095TIP3    H248701   2.361   0.425  14.318  0.2100 -0.5193  0.9413
 9096TIP3   OH248702   0.082   5.538  14.077 -0.0505  0.0170  0.2147
 9096TIP3    H148703   0.131   5.567  14.000 -0.8067  0.6262 -0.0436
 9096TIP3    H248704   0.108   5.446  14.088  0.8691  0.2297 -0.1291
 9097TIP3   OH248705   4.696   6.023  13.765  0.2849  0.2916  0.3255
 9097TIP3    H148706   4.720   6.111  13.793  0.1412  0.1290  0.9876
 9097TIP3    H248707   4.704   6.024  13.670 -3.1782  2.0712 -0.0080
 9098TIP3   OH248708   4.722   6.472  13.283 -0.2520  0.0075  0.1596
 9098TIP3    H148709   4.760   6.544  13.232  0.5563 -1.0447 -0.7412
 9098TIP3    H248710   4.768   6.475  13.367 -0.7897  1.0462  0.4183
 9099TIP3   OH248711   3.180   7.285  15.462 -0.1356  0.4042  0.5585
 9099TIP3    H148712   3.109   7.223  15.447  0.8159 -0.1723 -1.8089
 9099TIP3    H248713   3.178   7.343  15.385  1.8159  0.4912  0.5537
 9100TIP3   OH248714   4.446   6.985  12.845  0.0589 -0.1652  0.3208
 9100TIP3    H148715   4.388   7.060  12.831  1.4608  0.6552 -1.1221
 9100TIP3    H248716   4.511   7.017  12.908  0.8399 -0.0637 -0.5331
 9101TIP3   OH248717   3.942   7.019  11.064 -0.4660  0.2605  0.2841
 9101TIP3    H148718   3.994   7.091  11.030  0.3675 -0.3797  0.1807
 9101TIP3    H248719   3.857   7.028  11.021 -0.8798  2.0917  1.4579
 9102TIP3   OH248720   3.243   1.666  11.939  0.1705  0.1056 -0.3355
 9102TIP3    H148721   3.220   1.747  11.893  1.2968  0.0578 -1.0180
 9102TIP3    H248722   3.205   1.676  12.026  0.8248  1.6464 -0.2144
 9103TIP3   OH248723   2.553   1.650  14.555  0.4738 -0.8751  0.5886
 9103TIP3    H148724   2.533   1.564  14.517  1.2106 -0.8201  0.0857
 9103TIP3    H248725   2.492   1.710  14.512  0.1068 -1.1056  0.7826
 9104TIP3   OH248726   3.879   5.805  12.706  0.3321 -0.2746  0.1864
 9104TIP3    H148727   3.846   5.722  12.672 -0.5634  0.1139  0.1060
 9104TIP3    H248728   3.822   5.872  12.668  2.0238  0.5263 -1.0348
 9105TIP3   OH248729   0.843   5.639  15.133 -0.1233  0.0261  0.2856
 9105TIP3    H148730   0.760   5.613  15.173 -0.9496  2.4261  0.2095
 9105TIP3    H248731   0.868   5.718  15.181  3.7132 -2.3331  2.4077
 9106TIP3   OH248732   1.845   0.556  13.594  0.0669 -0.0297 -0.6945
 9106TIP3    H148733   1.932   0.567  13.633  0.2796  1.6502 -1.6034
 9106TIP3    H248734   1.800   0.639  13.611 -1.0479 -0.5534 -1.0360
 9107TIP3   OH248735   2.867   6.399  15.952 -0.3096  0.6586 -0.4418
 9107TIP3    H148736   2.843   6.472  16.010 -0.4328  2.4120 -2.6164
 9107TIP3    H248737   2.929   6.438  15.890  0.1408 -1.2754 -1.2361
 9108TIP3   OH248738   4.374   6.157  14.507 -0.5575  0.0044 -0.1580
 9108TIP3    H148739   4.285   6.164  14.540 -0.7187  0.8139 -0.7406
 9108TIP3    H248740   4.413   6.084  14.556 -1.7046 -0.7007 -0.2733
 9109TIP3   OH248741   0.853   6.799  15.438 -0.0987 -0.3295  0.1261
 9109TIP3    H148742   0.790   6.861  15.402  1.1535  0.2611 -1.0852
 9109TIP3    H248743   0.896   6.847  15.509  2.4844  1.0345 -2.2935
 9110TIP3   OH248744   3.147   0.140  13.303  0.5002  0.7017 -0.9136
 9110TIP3    H148745   3.212   0.070  13.316  0.0413  0.4043 -0.1850
 9110TIP3    H248746   3.086   0.105  13.238 -1.3605 -0.7472  1.5165
 9111TIP3   OH248747   0.616   7.003  13.421  0.2224 -0.2263  0.3067
 9111TIP3    H148748   0.698   7.001  13.371  0.8540  0.4103  1.3097
 9111TIP3    H248749   0.640   6.971  13.508 -1.0313 -2.0696  0.0160
 9112TIP3   OH248750   1.752   0.648  14.919 -0.1476  0.4257 -0.3000
 9112TIP3    H148751   1.663   0.661  14.887 -0.4791  0.1419  0.5049
 9112TIP3    H248752   1.784   0.737  14.937 -0.8865  0.4202  1.0699
 9113TIP3   OH248753   0.729   0.595  15.325  0.4179  0.3913  0.3159
 9113TIP3    H148754   0.679   0.544  15.388  0.5213  1.3192  1.1673
 9113TIP3    H248755   0.757   0.532  15.259  0.0634 -0.5375  1.0494
 9114TIP3   OH248756   0.511   5.195  15.091 -0.5471 -0.0485  0.5041
 9114TIP3    H148757   0.603   5.206  15.114  0.0001 -2.5795 -0.3194
 9114TIP3    H248758   0.494   5.265  15.028  0.0507  2.1122  2.6783
 9115TIP3   OH248759   1.854   0.147  12.313 -0.7783 -0.2831  0.3301
 9115TIP3    H148760   1.777   0.093  12.298 -1.1444  0.6411 -1.1681
 9115TIP3    H248761   1.886   0.169  12.226  0.3687  0.4932  0.9345
 9116TIP3   OH248762   0.704   0.057  14.778 -0.2159  0.1386 -0.1417
 9116TIP3    H148763   0.618   0.099  14.782  0.1657  0.7829  2.8633
 9116TIP3    H248764   0.752   0.107  14.711 -2.0187  0.0034 -1.5819
 9117TIP3   OH248765   4.498   5.778  14.424  0.1856 -0.2220  0.6099
 9117TIP3    H148766   4.565   5.846  14.420 -0.0640  0.1112  1.8267
 9117TIP3    H248767   4.534   5.705  14.373  1.7465 -0.2866  1.7821
 9118TIP3   OH248768   0.288   6.090  14.878  0.3403 -0.5158  0.4334
 9118TIP3    H148769   0.212   6.032  14.873 -1.2128  1.5736 -1.0726
 9118TIP3    H248770   0.280   6.147  14.802  1.3690  2.2255  2.2901
 9119TIP3   OH248771   6.105   0.772  13.059  0.1738  0.0399 -0.2782
 9119TIP3    H148772   6.135   0.840  12.998 -0.9277 -0.1921 -1.0938
 9119TIP3    H248773   6.127   0.690  13.016  0.9322 -0.1336  0.4253
 9120TIP3   OH248774   2.712   3.940  14.326  0.3989  0.0939 -0.1293
 9120TIP3    H148775   2.788   3.904  14.282  0.6961 -0.0156  0.4726
 9120TIP3    H248776   2.692   3.878  14.395  1.4205  1.4865  1.4466
 9121TIP3   OH248777   4.901   3.804   0.819  0.7619 -0.1166 -0.5527
 9121TIP3    H148778   4.828   3.773   0.765  1.7651 -0.7808 -1.5432
 9121TIP3    H248779   4.974   3.811   0.758  1.2920  1.4862  0.2319
 9122TIP3   OH248780   5.508   5.326  13.505 -0.4399 -0.4922  0.0821
 9122TIP3    H148781   5.555   5.336  13.423 -1.9916 -1.1220 -0.8998
 9122TIP3    H248782   5.484   5.233  13.508 -1.9548 -0.1092  0.3679
 9123TIP3   OH248783   4.442   5.117  14.452  0.2749  1.0388  0.0465
 9123TIP3    H148784   4.402   5.046  14.503  1.4814  0.5991  0.4099
 9123TIP3    H248785   4.411   5.102  14.363  2.0537 -1.1596 -0.2658
 9124TIP3   OH248786   5.461   6.337  13.474 -0.0889  0.3530  0.2162
 9124TIP3    H148787   5.479   6.245  13.453  2.2893  0.7546  0.3975
 9124TIP3    H248788   5.450   6.379  13.388 -1.2671 -0.0968  0.1344
 9125TIP3   OH248789   6.932   0.818  13.930 -0.0484  0.2961 -0.0300
 9125TIP3    H148790   6.845   0.781  13.947  0.7307 -0.9815  1.3114
 9125TIP3    H248791   6.946   0.878  14.003  0.8063 -0.6404  0.5876
 9126TIP3   OH248792   5.833   5.667   0.644 -0.0869  0.6126 -0.5509
 9126TIP3    H148793   5.889   5.669   0.721  0.4748 -0.8967 -0.9075
 9126TIP3    H248794   5.766   5.601   0.664  1.0825 -1.0591 -2.0212
 9127TIP3   OH248795   3.000   6.807  13.577  0.4199 -0.0182  0.5245
 9127TIP3    H148796   3.088   6.838  13.602  1.0119 -0.3362 -1.1085
 9127TIP3    H248797   2.999   6.815  13.482 -1.2304 -0.3147  0.5171
 9128TIP3   OH248798   2.283   6.170  12.301 -0.0370 -0.2542 -0.1743
 9128TIP3    H148799   2.327   6.226  12.365 -0.3275  0.5697 -0.6962
 9128TIP3    H248800   2.292   6.081  12.337  1.5046 -0.0212  0.0371
 9129TIP3   OH248801   3.835   6.550  14.399 -0.4238 -0.0036 -0.0280
 9129TIP3    H148802   3.818   6.521  14.488 -0.2196  0.5176  0.1871
 9129TIP3    H248803   3.924   6.585  14.402  0.5072 -2.1985 -1.0022
 9130TIP3   OH248804   3.803   5.041  12.782  0.5878  0.4549 -0.4142
 9130TIP3    H148805   3.757   4.973  12.832 -1.5603  1.6997 -0.6419
 9130TIP3    H248806   3.885   5.054  12.829 -0.2277 -0.2934  1.2637
 9131TIP3   OH248807   0.719   4.701  13.413  0.2725  0.3029  0.8050
 9131TIP3    H148808   0.682   4.647  13.483  0.3066 -0.1742  0.4581
 9131TIP3    H248809   0.720   4.790  13.449  0.3561  0.0476  1.4360
 9132TIP3   OH248810   3.895   5.868  13.875 -0.2457 -0.1014 -0.0765
 9132TIP3    H148811   3.857   5.799  13.820  1.0549 -0.1371 -0.9790
 9132TIP3    H248812   3.955   5.821  13.934 -0.4019  0.1123  0.2542
 9133TIP3   OH248813   0.729   5.914  14.271  0.5282 -0.0101 -0.3223
 9133TIP3    H148814   0.801   5.890  14.329  1.4841  4.8112  0.6815
 9133TIP3    H248815   0.650   5.889  14.319  1.4260 -0.9829  0.6734
 9134TIP3   OH248816   1.547   5.895  14.484  0.4981  0.0990  0.2297
 9134TIP3    H148817   1.457   5.875  14.513  0.2996  1.2245  0.4065
 9134TIP3    H248818   1.543   5.986  14.454  2.1232  0.9658  2.4932
 9135TIP3   OH248819   0.137   5.440   0.281  0.0852  0.2403 -0.1609
 9135TIP3    H148820   0.220   5.461   0.324  1.3972 -1.4740 -1.7699
 9135TIP3    H248821   0.162   5.396   0.200 -2.3870 -3.4204  0.9183
 9136TIP3   OH248822   0.556   5.451  14.293 -0.3575 -0.8436  0.1789
 9136TIP3    H148823   0.570   5.395  14.217  1.1492 -1.2038  0.6909
 9136TIP3    H248824   0.625   5.424  14.355 -1.2163 -0.1868  1.4419
 9137TIP3   OH248825   2.796   4.639  14.200 -0.3607  0.1625 -0.3237
 9137TIP3    H148826   2.802   4.556  14.153 -2.2693 -1.2144  1.7284
 9137TIP3    H248827   2.822   4.617  14.290  0.7806  2.1798 -0.1288
 9138TIP3   OH248828   2.917   6.315  15.576 -0.3503 -0.0812  0.8461
 9138TIP3    H148829   2.936   6.260  15.500 -0.3395  0.3081  0.5666
 9138TIP3    H248830   2.958   6.270  15.649  0.3032 -0.0528  0.4978
 9139TIP3   OH248831   0.445   0.633  13.846 -1.1036  0.7258  0.1605
 9139TIP3    H148832   0.446   0.662  13.755 -2.1212  1.6696  0.4428
 9139TIP3    H248833   0.377   0.565  13.848  1.0705 -1.5648 -0.4393
 9140TIP3   OH248834   3.441   6.534  14.861 -0.4797 -0.1633  0.5970
 9140TIP3    H148835   3.531   6.542  14.893 -1.1146  1.0141  2.1712
 9140TIP3    H248836   3.404   6.459  14.908 -1.0085  0.7582  1.6780
 9141TIP3   OH248837   0.894   6.593  12.520 -0.1020 -0.6378 -0.5081
 9141TIP3    H148838   0.895   6.564  12.612  1.1636  1.1496  0.0635
 9141TIP3    H248839   0.928   6.518  12.472  5.1550  0.4149  1.1819
 9142TIP3   OH248840   0.635   0.383  14.506  0.7037  0.4364 -0.2790
 9142TIP3    H148841   0.675   0.466  14.478 -0.2199  0.7737 -0.6244
 9142TIP3    H248842   0.593   0.349  14.426  0.0449  0.2441  0.1461
 9143TIP3   OH248843   3.001   5.679  14.897 -0.0738 -0.5389 -0.4508
 9143TIP3    H148844   3.022   5.621  14.824  0.8779 -0.3368 -0.3494
 9143TIP3    H248845   3.063   5.752  14.888 -0.3461 -0.2168  0.2172
 9144TIP3   OH248846   3.274   7.285  15.716  0.4372 -0.2272 -0.4493
 9144TIP3    H148847   3.204   7.230  15.751 -0.2077  0.7509 -0.1663
 9144TIP3    H248848   3.257   7.287  15.622 -0.3920  0.6421 -0.2900
 9145TIP3   OH248849   3.802   5.587  14.080  0.0570 -0.0746 -0.9828
 9145TIP3    H148850   3.874   5.561  14.022  0.4146  3.3090 -2.1616
 9145TIP3    H248851   3.845   5.631  14.153 -0.6259 -1.0547  0.0126
 9146TIP3   OH248852   3.210   4.763  14.196 -0.1106  0.6831  0.0222
 9146TIP3    H148853   3.166   4.747  14.113  0.8788  1.2887 -0.6224
 9146TIP3    H248854   3.278   4.696  14.201 -2.0168 -1.2365  1.7307
 9147TIP3   OH248855   1.651   6.880  13.310 -0.7063  0.2398  0.2050
 9147TIP3    H148856   1.610   6.808  13.263  0.5930 -1.1826  1.2222
 9147TIP3    H248857   1.583   6.947  13.314 -1.4830 -0.3947 -1.9129
 9148TIP3   OH248858   1.804   6.829  15.771 -0.4220 -0.4392  0.5511
 9148TIP3    H148859   1.832   6.867  15.854  2.3742 -1.7461  0.2417
 9148TIP3    H248860   1.879   6.840  15.713 -1.5064 -1.6475 -1.1296
 9149TIP3   OH248861   6.605   7.229  13.509  0.1447 -0.1547  0.2319
 9149TIP3    H148862   6.656   7.228  13.590 -0.4240  2.6187  0.6789
 9149TIP3    H248863   6.518   7.199  13.535  0.0840  0.3094  0.5774
 9150TIP3   OH248864   1.116   5.186  15.671 -0.1607 -0.1945  0.0639
 9150TIP3    H148865   1.103   5.257  15.733 -1.0416  0.2745 -0.6384
 9150TIP3    H248866   1.040   5.192  15.612  0.8371 -0.4146 -1.2642
 9151TIP3   OH248867   2.518   5.770   0.928  0.2262 -0.1235 -0.4304
 9151TIP3    H148868   2.496   5.768   1.021 -1.1482  2.5829 -0.6345
 9151TIP3    H248869   2.466   5.699   0.889 -1.0988  0.3109  0.5137
 9152TIP3   OH248870   2.055   5.765  14.813 -0.0776  0.3856  0.0038
 9152TIP3    H148871   2.036   5.722  14.729 -0.6547  0.1478  0.2533
 9152TIP3    H248872   2.069   5.857  14.790  1.6616 -0.0133 -0.6014
 9153TIP3   OH248873   4.518   5.662  15.420  0.3142 -0.5952 -0.2485
 9153TIP3    H148874   4.605   5.702  15.429  0.4887 -0.8527 -0.7251
 9153TIP3    H248875   4.465   5.729  15.377 -0.3200  0.3586  1.9784
 9154TIP3   OH248876   2.035   7.297   0.001 -0.9077 -0.2859 -0.0689
 9154TIP3    H148877   2.000   7.346  -0.074  0.4326  0.9252  0.0708
 9154TIP3    H248878   2.129   7.292  -0.015 -0.8956 -1.9096  0.4589
 9155TIP3   OH248879   2.917   0.734  14.176 -0.0298 -0.6010 -0.3915
 9155TIP3    H148880   2.965   0.699  14.101  1.3683 -0.8394  0.6034
 9155TIP3    H248881   2.929   0.669  14.246 -0.9457 -0.1668  0.1877
 9156TIP3   OH248882   5.701   0.839  12.079  1.1406 -0.1859  0.2749
 9156TIP3    H148883   5.717   0.780  12.005  0.5323 -0.0570  0.0327
 9156TIP3    H248884   5.705   0.782  12.156  1.8195 -0.3137  0.1489
 9157TIP3   OH248885   0.831   7.176  14.129  0.5477  0.4404  0.7913
 9157TIP3    H148886   0.821   7.083  14.150  2.0669  0.0583 -0.1651
 9157TIP3    H248887   0.904   7.180  14.068 -1.3046  1.9566 -1.4602
 9158TIP3   OH248888   5.872   6.536  11.908 -0.0371  0.0147  0.1030
 9158TIP3    H148889   5.783   6.534  11.873  0.0523  0.3437 -0.1386
 9158TIP3    H248890   5.876   6.459  11.966  0.2556 -1.3214 -1.6491
 9159TIP3   OH248891   1.813   0.847  13.417  0.5477 -0.5626 -0.2849
 9159TIP3    H148892   1.823   0.933  13.457  1.0357  1.0291 -3.6472
 9159TIP3    H248893   1.722   0.822  13.435 -0.2868  1.7082 -1.2391
 9160TIP3   OH248894   2.190   0.689  14.242 -0.5190 -0.5260 -0.3585
 9160TIP3    H148895   2.238   0.742  14.178 -0.7133 -1.9285 -1.6706
 9160TIP3    H248896   2.099   0.714  14.230 -0.3610  0.7200  0.8181
 9161TIP3   OH248897   3.036   6.905  13.292 -0.2963 -0.1392 -0.1231
 9161TIP3    H148898   2.943   6.885  13.283 -0.0991 -1.0545 -0.1668
 9161TIP3    H248899   3.038   6.987  13.341 -1.1623  0.6441 -1.3624
 9162TIP3   OH248900   2.302   6.301  10.767  0.2128 -0.0736  0.8063
 9162TIP3    H148901   2.385   6.287  10.813  0.5070  0.5486  0.4574
 9162TIP3    H248902   2.307   6.244  10.690 -0.2318 -1.0271  1.4576
 9163TIP3   OH248903   3.164   5.261  11.066  0.0522 -0.1661  0.9090
 9163TIP3    H148904   3.210   5.213  11.134  1.5993  0.6688  0.4768
 9163TIP3    H248905   3.192   5.352  11.077 -0.1227  0.0719 -0.4733
 9164TIP3   OH248906   4.126   5.260  15.018 -0.1371 -0.0009 -0.0522
 9164TIP3    H148907   4.158   5.278  15.106 -1.9259  2.6247  0.1402
 9164TIP3    H248908   4.079   5.340  14.993 -0.9505 -1.2645 -2.7944
 9165TIP3   OH248909   1.890   1.046  14.377 -0.0684  0.4845 -0.0443
 9165TIP3    H148910   1.882   1.117  14.440 -0.2758  1.3923 -1.0772
 9165TIP3    H248911   1.984   1.028  14.373 -0.0335  0.5807  0.3480
 9166TIP3   OH248912   6.143   1.287  12.250  0.1033  0.4497  0.2472
 9166TIP3    H148913   6.066   1.240  12.219  2.0953 -2.1928 -0.8742
 9166TIP3    H248914   6.197   1.220  12.291  2.7377  1.8705 -0.7895
 9167TIP3   OH248915   0.324   6.055  13.121 -0.2590 -0.3711 -0.0996
 9167TIP3    H148916   0.314   5.985  13.185  0.6378  0.1524  0.6420
 9167TIP3    H248917   0.239   6.098  13.118 -1.1709 -2.2408 -1.4688
 9168TIP3   OH248918   0.085   1.577  14.562 -0.0933 -0.3033  0.1593
 9168TIP3    H148919  -0.001   1.557  14.598 -0.0327  0.4905  0.7617
 9168TIP3    H248920   0.073   1.571  14.467 -0.1305 -2.9258  0.2740
 9169TIP3   OH248921   2.438   0.646  13.983 -0.2537  0.1412 -0.1992
 9169TIP3    H148922   2.378   0.573  13.999 -0.5223  0.4130  0.0472
 9169TIP3    H248923   2.436   0.660  13.888  0.6232 -0.8723 -0.3717
 9170TIP3   OH248924   1.294   5.349  14.112 -0.1612 -0.0806  0.5719
 9170TIP3    H148925   1.265   5.269  14.068 -0.9915  0.6092 -0.1505
 9170TIP3    H248926   1.315   5.410  14.041 -1.0741  0.8827  1.1092
 9171TIP3   OH248927   2.238   5.934  13.396 -0.9857 -0.1947 -0.2567
 9171TIP3    H148928   2.199   5.943  13.309  0.1386  1.8847 -0.5787
 9171TIP3    H248929   2.330   5.913  13.379 -0.7453  0.2871  0.4284
 9172TIP3   OH248930   0.562   6.606  12.706 -0.2237 -0.1117 -1.0034
 9172TIP3    H148931   0.473   6.610  12.742  0.6667 -0.9571  1.3544
 9172TIP3    H248932   0.558   6.535  12.642 -1.1538 -0.4117 -0.6237
 9173TIP3   OH248933   1.765   7.207   1.075 -0.1991  0.2432 -0.0737
 9173TIP3    H148934   1.834   7.187   1.138  0.3116  0.3851 -0.5843
 9173TIP3    H248935   1.746   7.300   1.089 -0.1253  0.2612 -0.0955
 9174TIP3   OH248936   0.376   7.223  13.092 -0.9592 -0.3644 -0.9292
 9174TIP3    H148937   0.302   7.214  13.152  0.1596 -2.3348  0.2019
 9174TIP3    H248938   0.374   7.143  13.039 -0.1140 -0.0721 -1.4120
 9175TIP3   OH248939   3.548   7.079  13.208 -0.1484  0.1601 -0.1782
 9175TIP3    H148940   3.512   7.014  13.149  1.4598 -0.3617 -0.5929
 9175TIP3    H248941   3.550   7.036  13.293  0.6374 -0.2504 -0.3949
 9176TIP3   OH248942   2.788   5.480  12.445  0.1492  0.0354  0.5485
 9176TIP3    H148943   2.878   5.456  12.427 -0.4366 -2.5691  0.9242
 9176TIP3    H248944   2.748   5.490  12.359  0.5418  0.1975  0.3843
 9177TIP3   OH248945   3.046   0.695  14.709  0.2853 -0.6477  0.7874
 9177TIP3    H148946   3.071   0.705  14.801 -0.9112  1.1041  0.9317
 9177TIP3    H248947   3.097   0.761  14.662 -2.3749  1.5006  0.8058
 9178TIP3   OH248948   2.106   1.542  12.176  0.0576 -0.1054  0.1986
 9178TIP3    H148949   2.118   1.610  12.109  3.0487 -0.8239 -0.0745
 9178TIP3    H248950   2.195   1.514  12.198 -0.8326  0.0471  4.4457
 9179TIP3   OH248951   2.294   1.264  15.518  0.0393  0.1498 -0.7519
 9179TIP3    H148952   2.288   1.182  15.468  2.1772 -0.2890 -0.3133
 9179TIP3    H248953   2.247   1.244  15.600  0.8321 -0.7625 -0.5051
 9180TIP3   OH248954   1.655   6.106  13.503 -0.2569 -0.1887  0.7390
 9180TIP3    H148955   1.751   6.113  13.508 -0.2318  0.3513 -0.3540
 9180TIP3    H248956   1.624   6.141  13.587  0.4093  1.8830  0.1457
 9181TIP3   OH248957   2.212   3.738   0.182 -0.4405  0.0509 -0.2504
 9181TIP3    H148958   2.292   3.702   0.218 -0.6593 -0.5301 -0.3414
 9181TIP3    H248959   2.220   3.833   0.195  0.3218  0.0083 -0.3911
 9182TIP3   OH248960   6.672   1.974  13.336  0.0435 -0.4639  0.0049
 9182TIP3    H148961   6.685   1.948  13.427  0.6379 -0.9645 -0.2156
 9182TIP3    H248962   6.646   1.893  13.291  2.1979 -0.7734 -0.7469
 9183TIP3   OH248963   2.317   7.130  12.988 -0.2011  0.6421 -0.1634
 9183TIP3    H148964   2.228   7.139  12.954 -0.0433  2.2402 -0.2070
 9183TIP3    H248965   2.321   7.189  13.063  0.7847  0.5089 -0.0987
 9184TIP3   OH248966   5.158   0.557  13.806  0.0952 -0.3248 -0.3008
 9184TIP3    H148967   5.247   0.533  13.780  0.0239 -2.1120  1.0022
 9184TIP3    H248968   5.131   0.623  13.742  2.7523  1.0738 -0.0441
 9185TIP3   OH248969   5.062   1.281   1.050 -0.3508 -0.2318  0.0746
 9185TIP3    H148970   5.069   1.189   1.075  2.3089 -0.0247  0.2418
 9185TIP3    H248971   5.024   1.324   1.127 -0.6136 -1.0037  0.3810
 9186TIP3   OH248972   2.642   5.027  14.340 -0.8787  0.3048  0.5840
 9186TIP3    H148973   2.655   4.956  14.403 -0.8547  0.0597  0.3040
 9186TIP3    H248974   2.547   5.032  14.329 -0.8076 -0.9130 -0.7821
 9187TIP3   OH248975   2.065   7.255  12.969 -0.0808 -0.1690  0.5095
 9187TIP3    H148976   2.113   7.338  12.974  2.0928 -1.2868 -1.1098
 9187TIP3    H248977   1.999   7.270  12.902  0.4365  0.1808  0.0780
 9188TIP3   OH248978   0.524   6.501  12.978 -0.1978  0.0415 -0.2682
 9188TIP3    H148979   0.472   6.538  13.050  1.5086  1.0258  0.4842
 9188TIP3    H248980   0.572   6.576  12.943  0.5504 -0.8152 -1.0964
 9189TIP3   OH248981   1.182   4.588  15.139  0.1860 -0.3014 -0.2491
 9189TIP3    H148982   1.189   4.493  15.133 -0.6478 -0.3170 -1.0578
 9189TIP3    H248983   1.167   4.605  15.232  0.3111 -0.9579 -0.1065
 9190TIP3   OH248984   0.951   0.892  15.041 -0.0533  0.1969  0.6467
 9190TIP3    H148985   0.904   0.809  15.045 -0.7933  0.6130  0.7951
 9190TIP3    H248986   0.901   0.951  15.099  0.4892  0.7253  0.5869
 9191TIP3   OH248987   2.539   5.636  13.182  0.9058  0.2770  0.2203
 9191TIP3    H148988   2.564   5.593  13.100  2.3688  0.8181  0.3691
 9191TIP3    H248989   2.535   5.564  13.246 -0.0779 -0.1219 -0.2843
 9192TIP3   OH248990   0.407   5.536   0.303 -0.0046 -0.5942  0.8172
 9192TIP3    H148991   0.466   5.568   0.234 -1.3886  0.8863  0.2879
 9192TIP3    H248992   0.411   5.603   0.371 -1.9718  0.1516  0.2452
 9193TIP3   OH248993   5.922   0.917  12.770 -0.5616 -0.1001  0.2890
 9193TIP3    H148994   5.999   0.911  12.826 -1.2118 -0.7091  1.1363
 9193TIP3    H248995   5.929   0.842  12.711  0.7556  1.2360 -1.2576
 9194TIP3   OH248996   3.843   5.322  14.345  0.3417 -0.3151  0.5712
 9194TIP3    H148997   3.862   5.373  14.267  0.1580 -2.0227 -0.6381
 9194TIP3    H248998   3.928   5.287  14.372  0.4646  0.6201  1.3748
 9195TIP3   OH248999   2.197   5.655  12.515  0.2929 -0.2500 -0.0642
 9195TIP3    H149000   2.145   5.623  12.442  3.2765 -0.9900 -1.9750
 9195TIP3    H249001   2.268   5.591  12.524  0.5869  0.4022  2.8137
 9196TIP3   OH249002   3.731   4.555   2.282 -0.7884 -0.2639 -0.0814
 9196TIP3    H149003   3.690   4.503   2.351 -0.0944 -1.1524 -0.3246
 9196TIP3    H249004   3.724   4.645   2.313 -1.1676 -0.5881  0.7940
 9197TIP3   OH249005   2.486   7.093   0.773  0.1425  0.0991  0.9133
 9197TIP3    H149006   2.503   7.072   0.681  0.2344  0.7715  0.7707
 9197TIP3    H249007   2.415   7.035   0.798  0.4021 -0.3838  0.5357
 9198TIP3   OH249008   1.421   6.437   1.223  0.2543 -0.2605  0.0374
 9198TIP3    H149009   1.329   6.416   1.240  0.0320  0.0350 -0.7606
 9198TIP3    H249010   1.432   6.526   1.256  0.3082 -0.3763  0.3280
 9199TIP3   OH249011   3.730   5.074  14.848  0.2408  0.2633 -0.0834
 9199TIP3    H149012   3.806   5.041  14.895 -0.2791 -1.2865 -0.3066
 9199TIP3    H249013   3.766   5.128  14.778  1.1403 -0.3479 -0.0993
 9200TIP3   OH249014   2.683   6.347   0.521  0.4854 -0.9166 -0.1749
 9200TIP3    H149015   2.716   6.357   0.432  0.5955  0.7270  0.0346
 9200TIP3    H249016   2.754   6.302   0.568  1.3133  0.1571 -0.3935
 9201TIP3   OH249017   2.441   6.354  13.968 -0.4934  0.0680 -0.1265
 9201TIP3    H149018   2.515   6.396  13.924  0.7473 -1.1293  0.7715
 9201TIP3    H249019   2.452   6.375  14.060 -0.3999 -1.3632  0.2108
 9202TIP3   OH249020   1.785   1.460  15.891 -0.4958 -0.0378  0.3130
 9202TIP3    H149021   1.813   1.505  15.811 -2.2373  0.1143 -0.2263
 9202TIP3    H249022   1.786   1.527  15.958 -1.9222  0.5419 -0.2338
 9203TIP3   OH249023   2.375   4.617  15.125  0.2483  0.2962  1.1427
 9203TIP3    H149024   2.357   4.541  15.180 -0.1976 -1.0606 -0.8301
 9203TIP3    H249025   2.294   4.631  15.076  1.3792  0.0086 -0.8653
 9204TIP3   OH249026   1.483   0.653  14.832  0.2179  0.2888  0.3917
 9204TIP3    H149027   1.497   0.707  14.754 -1.3875  0.0930 -0.0439
 9204TIP3    H249028   1.388   0.644  14.838  0.4145 -1.2632  1.3054
 9205TIP3   OH249029   2.085   6.862  15.620 -0.5852 -0.4033 -0.5061
 9205TIP3    H149030   2.138   6.783  15.635 -0.4498 -0.0014  1.2512
 9205TIP3    H249031   2.083   6.906  15.705 -2.3336  0.4670 -0.9789
 9206TIP3   OH249032   3.198   1.115  15.755  0.2711  0.2557  0.3857
 9206TIP3    H149033   3.111   1.152  15.768 -0.5024 -1.8322  1.4410
 9206TIP3    H249034   3.191   1.063  15.675 -0.2400 -2.0364  1.8630
 9207TIP3   OH249035   3.327   5.553  12.871 -0.1561  0.4502  0.2568
 9207TIP3    H149036   3.253   5.611  12.857  0.5513  1.7829  1.9613
 9207TIP3    H249037   3.350   5.522  12.783 -0.9386  2.2489 -0.6015
 9208TIP3   OH249038   2.442   6.149   0.401  0.6766  0.3745 -0.2447
 9208TIP3    H149039   2.498   6.073   0.410  0.1094  0.1784  2.0051
 9208TIP3    H249040   2.502   6.222   0.388  1.4132 -0.0136  0.8743
 9209TIP3   OH249041   3.434   7.256   1.546 -0.0568  0.2306 -0.1747
 9209TIP3    H149042   3.341   7.278   1.537 -0.3271  0.3945  2.5531
 9209TIP3    H249043   3.470   7.326   1.600  0.9723 -1.3965  1.2847
 9210TIP3   OH249044   3.032   0.538  15.318 -0.3120 -0.0378  0.7474
 9210TIP3    H149045   2.957   0.479  15.323 -0.0986 -0.3122  0.7960
 9210TIP3    H249046   3.090   0.495  15.254 -0.4364  0.4443  0.3067
 9211TIP3   OH249047   2.129   6.665  14.878 -0.9495 -0.2534 -0.6266
 9211TIP3    H149048   2.041   6.650  14.843 -1.7730  0.5780  1.0113
 9211TIP3    H249049   2.125   6.754  14.914 -0.4954 -1.4468  2.5067
 9212TIP3   OH249050   2.064   0.899  12.251  0.4819  0.7316 -0.0007
 9212TIP3    H149051   2.142   0.946  12.221 -0.2149  0.7619 -1.8202
 9212TIP3    H249052   2.098   0.820  12.291  1.4453  0.1907 -1.8066
 9213TIP3   OH249053   2.822   5.866  13.378 -0.0534  0.4515  0.0936
 9213TIP3    H149054   2.771   5.932  13.424  0.5122  0.8155  0.1955
 9213TIP3    H249055   2.855   5.808  13.446 -1.2794 -0.4598 -0.0671
 9214TIP3   OH249056   4.444   6.554  13.363  0.6505  0.2070  0.1133
 9214TIP3    H149057   4.523   6.542  13.310  0.3567  2.9228 -0.9979
 9214TIP3    H249058   4.392   6.476  13.346  2.2646 -0.7482 -0.5833
 9215TIP3   OH249059   2.446   6.538  13.634 -0.1890  0.0557 -1.0945
 9215TIP3    H149060   2.372   6.511  13.689  0.9084  1.8760  1.3706
 9215TIP3    H249061   2.407   6.590  13.564 -1.3173  0.3090 -0.2852
 9216TIP3   OH249062   3.193   5.725  14.482 -0.2917 -0.3840  0.5512
 9216TIP3    H149063   3.280   5.715  14.521 -0.7746 -0.0635  1.7238
 9216TIP3    H249064   3.210   5.731  14.388  0.8558 -1.4609  0.6778
 9217TIP3   OH249065   2.584   4.792  15.014 -0.4595 -0.0349  0.8179
 9217TIP3    H149066   2.536   4.729  15.068  0.2311 -0.4595  0.9314
 9217TIP3    H249067   2.578   4.756  14.925 -1.9756  0.8906  0.5298
 9218TIP3   OH249068   3.559   4.173  13.475  0.4063  0.0124 -0.3799
 9218TIP3    H149069   3.467   4.178  13.449  0.5926 -0.9908 -1.2808
 9218TIP3    H249070   3.568   4.087  13.516  0.8987  0.1863 -0.1207
 9219TIP3   OH249071   2.880   6.461  14.510 -0.1472  0.3381 -0.1551
 9219TIP3    H149072   2.883   6.502  14.423 -0.2821 -0.9363 -0.7607
 9219TIP3    H249073   2.885   6.367  14.493 -2.3930 -0.0499  1.0682
 9220TIP3   OH249074   0.110   0.913  13.924 -0.1526 -0.6784  0.1209
 9220TIP3    H149075   0.048   0.975  13.885  0.0697 -1.8480 -2.1581
 9220TIP3    H249076   0.059   0.833  13.937  0.4991 -1.1768 -0.3928
 9221TIP3   OH249077   0.518   5.659  14.975 -0.3479  0.2649 -0.0157
 9221TIP3    H149078   0.542   5.752  14.975 -0.2093  0.2306  1.2545
 9221TIP3    H249079   0.506   5.638  14.882  0.9452  1.2078 -0.4111
 9222TIP3   OH249080   3.985   6.813  13.357 -0.1630 -0.9406 -0.0839
 9222TIP3    H149081   4.075   6.782  13.350  0.1399 -0.2094  0.5659
 9222TIP3    H249082   3.978   6.881  13.290  0.3490  0.3818  1.2023
 9223TIP3   OH249083   1.557   6.044  14.134  0.0188  0.2119 -0.2613
 9223TIP3    H149084   1.646   6.016  14.158 -0.2197  1.8277  2.7870
 9223TIP3    H249085   1.517   5.967  14.096  1.1788 -2.0233  2.8354
 9224TIP3   OH249086   4.119   6.681  11.821  0.5737  0.0542  0.0057
 9224TIP3    H149087   4.202   6.710  11.783  0.9192 -1.8072 -0.7411
 9224TIP3    H249088   4.144   6.628  11.896  0.0362 -0.1233  0.0630
 9225TIP3   OH249089   3.895   7.032  14.884 -0.3060 -0.3851 -0.5181
 9225TIP3    H149090   3.864   7.045  14.973  1.6806  0.7008  0.0441
 9225TIP3    H249091   3.858   7.105  14.834 -1.6908 -1.1773 -0.6745
 9226TIP3   OH249092   5.741   7.129   0.594  0.2450  0.1310  0.1628
 9226TIP3    H149093   5.735   7.033   0.589  1.0662  0.0932 -0.2027
 9226TIP3    H249094   5.734   7.158   0.503  2.5274  0.2512  0.0074
 9227TIP3   OH249095   2.569   6.380  13.424  0.0248 -0.6905 -0.5794
 9227TIP3    H149096   2.495   6.369  13.365 -1.2783 -2.8415  1.3533
 9227TIP3    H249097   2.549   6.460  13.473 -0.3601 -0.5305 -0.9978
 9228TIP3   OH249098   5.417   5.631   0.575  0.0281  0.4920 -0.0546
 9228TIP3    H149099   5.482   5.694   0.544  1.5532 -1.9469 -1.9957
 9228TIP3    H249100   5.368   5.607   0.497 -0.7224 -0.5233  0.7126
 9229TIP3   OH249101   4.397   0.012  14.673 -0.2418 -0.0755  0.8070
 9229TIP3    H149102   4.325   0.015  14.610 -0.2278 -0.9251  0.7451
 9229TIP3    H249103   4.354   0.000  14.757 -0.3083  1.8478  1.0704
 9230TIP3   OH249104   1.580   0.471  14.187  0.0350 -0.0078  0.0070
 9230TIP3    H149105   1.549   0.465  14.096 -0.9703 -1.6940  0.4248
 9230TIP3    H249106   1.675   0.464  14.180 -0.0282 -0.0662 -0.9295
 9231TIP3   OH249107   1.492   7.099  13.663  0.0690 -0.0931  0.4857
 9231TIP3    H149108   1.459   7.054  13.742 -1.2214  1.6294  0.9495
 9231TIP3    H249109   1.445   7.182  13.661 -0.7048 -0.5615 -2.7086
 9232TIP3   OH249110   4.171   4.880  15.122 -0.2274 -0.0158  0.5083
 9232TIP3    H149111   4.152   4.788  15.102 -0.2925  0.2675 -0.7528
 9232TIP3    H249112   4.189   4.880  15.216 -0.5560 -1.2663  0.5876
 9233TIP3   OH249113   2.135   0.243  12.577 -1.1323 -0.0351 -0.2113
 9233TIP3    H149114   2.192   0.289  12.515 -0.6735  0.6017  0.6706
 9233TIP3    H249115   2.069   0.201  12.522  0.8373 -1.7490 -1.3579
 9234TIP3   OH249116   6.779   0.936  15.150  0.3507 -0.2652 -0.2114
 9234TIP3    H149117   6.823   0.958  15.068  0.2025  2.0385  0.3159
 9234TIP3    H249118   6.848   0.938  15.216  0.1808 -0.6249 -0.0176
 9235TIP3   OH249119   4.149   6.347  15.726 -0.0180 -0.4411  0.2194
 9235TIP3    H149120   4.238   6.358  15.692  0.4477 -0.4642  1.3867
 9235TIP3    H249121   4.096   6.325  15.650  1.0501 -0.8033 -0.4257
 9236TIP3   OH249122   0.982   6.009   0.049 -0.3611 -0.2058  0.0221
 9236TIP3    H149123   1.065   5.981   0.088 -0.7141 -1.1074  0.1419
 9236TIP3    H249124   0.981   6.104   0.061  1.0434 -0.0793 -0.7449
 9237TIP3   OH249125   2.738   6.873  14.763 -0.4144  0.1106 -0.1566
 9237TIP3    H149126   2.699   6.832  14.686 -0.7375  0.7098 -0.3101
 9237TIP3    H249127   2.725   6.809  14.833 -2.9085  0.8773  0.1105
 9238TIP3   OH249128   1.731   6.050  12.551  0.2684 -0.3666 -0.1388
 9238TIP3    H149129   1.712   6.116  12.483 -0.3282 -1.2346 -0.8241
 9238TIP3    H249130   1.657   5.990  12.547 -0.3575  0.2223  2.0922
 9239TIP3   OH249131   5.991   0.707  13.378 -0.3193  0.0745 -0.1185
 9239TIP3    H149132   6.046   0.653  13.434 -1.9908  0.6203  2.1592
 9239TIP3    H249133   6.049   0.737  13.308  1.8291 -0.6836  1.2858
 9240TIP3   OH249134   3.219   4.516  14.469 -0.3068  0.2975  0.3347
 9240TIP3    H149135   3.287   4.513  14.402 -2.0940 -1.1107 -1.4861
 9240TIP3    H249136   3.256   4.467  14.543  0.9499  0.2174 -0.3343
 9241TIP3   OH249137   3.198   4.755  13.666 -0.8876  0.2882  0.4719
 9241TIP3    H149138   3.114   4.787  13.700 -1.9533 -0.9577 -0.9099
 9241TIP3    H249139   3.233   4.829  13.616 -0.7187  1.1165  1.7901
 9242TIP3   OH249140   1.186   6.583  15.464  0.0500 -0.2055 -0.4348
 9242TIP3    H149141   1.100   6.617  15.439 -0.3586 -1.1888 -0.4195
 9242TIP3    H249142   1.248   6.641  15.420 -0.5758  1.7928  1.2644
 9243TIP3   OH249143   2.656   5.158  13.212 -0.5726 -0.0632  0.6878
 9243TIP3    H149144   2.675   5.183  13.302 -1.1328 -0.0768  0.8073
 9243TIP3    H249145   2.740   5.167  13.167 -0.6006  1.3553  0.8911
 9244TIP3   OH249146   3.285   5.317  14.906 -0.1012 -0.1092  0.0182
 9244TIP3    H149147   3.309   5.329  14.998  0.0719  0.8500 -0.1448
 9244TIP3    H249148   3.249   5.228  14.902 -1.1876  0.2539  1.2406
 9245TIP3   OH249149   4.337   5.382  14.421  0.5647  0.2330  0.0324
 9245TIP3    H149150   4.392   5.304  14.427  1.1039  0.5776 -0.4107
 9245TIP3    H249151   4.255   5.351  14.383 -0.4109 -0.7141  2.7709
 9246TIP3   OH249152   6.979   4.732  11.734  0.4066  0.5580  0.1630
 9246TIP3    H149153   6.885   4.729  11.752  0.5392  0.8171  0.9210
 9246TIP3    H249154   6.986   4.747  11.640 -0.3109  0.5312  0.1083
 9247TIP3   OH249155   3.725   6.586  13.077  0.0223  0.9382 -0.4523
 9247TIP3    H149156   3.715   6.573  12.983 -0.6111  1.5281 -0.4731
 9247TIP3    H249157   3.688   6.506  13.116  2.3721 -0.3372 -0.7469
 9248TIP3   OH249158   5.876   6.966  12.695 -0.5367  0.3166 -0.0009
 9248TIP3    H149159   5.870   6.882  12.741  0.0054 -1.1555 -2.5062
 9248TIP3    H249160   5.790   6.978  12.655 -0.6397  1.0180  0.4151
 9249TIP3   OH249161   4.106   4.973  13.039 -0.2283  0.4012 -0.0137
 9249TIP3    H149162   4.171   4.903  13.052  0.3491  0.6445 -1.4621
 9249TIP3    H249163   4.140   5.047  13.089  0.8090  0.6272 -1.0122
 9250TIP3   OH249164   0.760   7.063  15.389  0.8165  0.1308 -0.3791
 9250TIP3    H149165   0.780   7.121  15.462 -0.4666 -0.8435  0.7820
 9250TIP3    H249166   0.687   7.106  15.344  0.6566  0.0229 -0.2260
 9251TIP3   OH249167   3.562   0.595   1.978  0.4387  0.2598  0.5908
 9251TIP3    H149168   3.472   0.581   2.009  0.6050 -1.6815  0.2789
 9251TIP3    H249169   3.617   0.568   2.052  0.7705  0.8219  0.5486
 9252TIP3   OH249170   4.406   7.101  15.413  0.5234 -0.0631  0.2174
 9252TIP3    H149171   4.383   7.138  15.328 -0.6558 -0.1404  0.4957
 9252TIP3    H249172   4.500   7.081  15.406  0.8438  1.5855 -0.4426
 9253TIP3   OH249173   3.663   6.484  14.206  0.5664  0.1534  0.7138
 9253TIP3    H149174   3.687   6.554  14.146  1.2686 -0.6187  0.0970
 9253TIP3    H249175   3.728   6.489  14.277  1.7185 -1.0106 -0.2324
 9254TIP3   OH249176   4.324   7.037  14.785  0.1911 -0.2551 -0.4980
 9254TIP3    H149177   4.409   7.056  14.744 -1.0091  0.9535 -2.5408
 9254TIP3    H249178   4.261   7.052  14.715 -1.9586  1.5724  1.7664
 9255TIP3   OH249179   0.367   6.042  15.984 -0.0750 -0.1492 -0.2488
 9255TIP3    H149180   0.367   5.994  15.902  0.7722  1.7375 -1.3955
 9255TIP3    H249181   0.288   6.096  15.979  0.2854  0.3988 -0.0983
 9256TIP3   OH249182   4.475   5.887  13.703  0.3607  0.1755 -0.1916
 9256TIP3    H149183   4.544   5.930  13.753  3.8978 -1.4652 -3.3802
 9256TIP3    H249184   4.443   5.955  13.643  0.7712  0.3467 -0.2157
 9257TIP3   OH249185   5.099   0.073  15.351  0.7742  0.1445 -0.5218
 9257TIP3    H149186   5.097   0.119  15.435  0.9360 -2.2101  0.8152
 9257TIP3    H249187   5.032   0.116  15.298  0.7350  1.7141  0.7495
 9258TIP3   OH249188   3.441   6.319  13.755 -0.2384 -0.7462  0.0359
 9258TIP3    H149189   3.358   6.291  13.716 -0.7502 -0.0837  0.6278
 9258TIP3    H249190   3.416   6.369  13.832  0.7186 -0.5822  0.2540
 9259TIP3   OH249191   4.195   0.782  14.320 -0.3633  0.0630  0.6785
 9259TIP3    H149192   4.103   0.777  14.295  0.4656 -0.3757 -2.5387
 9259TIP3    H249193   4.212   0.701  14.367 -1.4852 -0.1065  0.7935
 9260TIP3   OH249194   3.324   0.150  14.632  0.7130 -0.1907  0.1927
 9260TIP3    H149195   3.231   0.137  14.652  0.5419  1.4494  0.5287
 9260TIP3    H249196   3.370   0.103  14.702  0.1694 -1.8423 -0.5176
 9261TIP3   OH249197   6.706   5.742   0.119  0.3669 -0.8008  0.7944
 9261TIP3    H149198   6.688   5.653   0.089  1.9427 -0.4992 -1.1616
 9261TIP3    H249199   6.706   5.795   0.039 -0.7552  1.0098  1.9562
 9262TIP3   OH249200   3.771   0.011   1.537  0.6624  0.2558 -0.6032
 9262TIP3    H149201   3.821  -0.065   1.509  1.0121  0.2849 -0.0550
 9262TIP3    H249202   3.729  -0.017   1.618  0.5818  0.5615 -0.5408
 9263TIP3   OH249203   4.917   7.268  12.575 -0.2490 -0.2135  0.2315
 9263TIP3    H149204   4.960   7.196  12.529 -2.5341 -0.8487 -0.9823
 9263TIP3    H249205   4.939   7.346  12.524  2.3658  0.0079  1.6379
 9264TIP3   OH249206   3.965   3.637  12.574  0.2271  0.1006 -0.0994
 9264TIP3    H149207   4.020   3.624  12.651  0.0912 -0.8456 -0.1518
 9264TIP3    H249208   3.916   3.555  12.565 -0.4720  0.5691 -0.6254
 9265TIP3   OH249209   6.349   6.530   0.929 -0.2999  0.5571 -0.1100
 9265TIP3    H149210   6.295   6.568   0.860  2.5617 -0.4917 -3.0615
 9265TIP3    H249211   6.347   6.436   0.912  2.3458  0.4913 -0.2345
 9266TIP3   OH249212   5.505   6.118  13.960  0.2380  0.3457  0.4471
 9266TIP3    H149213   5.427   6.139  13.908  0.8886  1.7990  0.0178
 9266TIP3    H249214   5.559   6.065  13.901 -0.2782 -0.3603  0.6182
 9267TIP3   OH249215   3.688   5.404  14.915  0.5468  0.7955  0.1411
 9267TIP3    H149216   3.758   5.437  14.970  1.3331 -0.1403 -0.2907
 9267TIP3    H249217   3.617   5.383  14.976  0.2481  2.6894  0.4760
 9268TIP3   OH249218   5.488   5.864  15.018 -0.2923 -0.1803 -0.5446
 9268TIP3    H149219   5.452   5.943  14.978  0.7992  0.8234  0.4167
 9268TIP3    H249220   5.530   5.817  14.946 -2.8373 -1.0012 -1.5448
 9269TIP3   OH249221   5.705   4.708  14.865 -0.5976  0.1951 -0.2564
 9269TIP3    H149222   5.691   4.789  14.816  0.1796  0.2016 -0.4655
 9269TIP3    H249223   5.765   4.733  14.936  0.1439 -0.3351 -0.6956
 9270TIP3   OH249224   4.414   5.619  15.072 -0.1331 -0.0762  0.5395
 9270TIP3    H149225   4.340   5.582  15.121 -0.5000 -0.3886 -0.2398
 9270TIP3    H249226   4.380   5.701  15.036  0.1328  0.1472  0.7963
 9271TIP3   OH249227   4.273   0.581  14.732 -0.2567 -0.1801 -0.4581
 9271TIP3    H149228   4.259   0.495  14.694 -0.4146  0.2557 -1.4137
 9271TIP3    H249229   4.333   0.566  14.805 -1.9089 -1.3908  0.6946
 9272TIP3   OH249230   0.084   4.312  12.130 -0.9577 -0.1992  0.0459
 9272TIP3    H149231   0.102   4.406  12.138  2.0322 -0.5786 -1.4746
 9272TIP3    H249232   0.126   4.273  12.207  0.5206 -0.5969 -0.9520
 9273TIP3   OH249233   4.555   6.800  14.678 -0.2923 -0.1107  0.4017
 9273TIP3    H149234   4.529   6.879  14.630  2.6504 -0.5683 -2.1183
 9273TIP3    H249235   4.630   6.827  14.730 -1.0303 -0.6079  1.7580
 9274TIP3   OH249236   3.876   6.570  15.412  0.3430 -0.0812  0.0968
 9274TIP3    H149237   3.809   6.630  15.379 -0.0312  0.2326  1.3741
 9274TIP3    H249238   3.959   6.614  15.393  0.3151 -1.2568 -3.0534
 9275TIP3   OH249239   2.979   6.185  14.697 -0.5664 -0.2157 -0.2995
 9275TIP3    H149240   3.000   6.193  14.604  1.7547 -1.2921  0.0939
 9275TIP3    H249241   2.943   6.097  14.706 -2.6673  0.5936 -0.4790
 9276TIP3   OH249242   2.645   0.954  14.372 -0.2666  0.1332  0.3216
 9276TIP3    H149243   2.574   1.010  14.343  0.9865  0.4159 -2.2768
 9276TIP3    H249244   2.628   0.870  14.330  1.1629  0.3367 -0.7035
 9277TIP3   OH249245   5.808   4.498   0.297 -0.8123  0.4671  0.3484
 9277TIP3    H149246   5.774   4.574   0.344 -0.6898 -0.5800  2.2059
 9277TIP3    H249247   5.733   4.439   0.291 -0.9951  0.8652 -1.3883
 9278TIP3   OH249248   3.591   0.340  15.955 -0.6021 -0.0250  1.0595
 9278TIP3    H149249   3.514   0.346  16.011 -1.9390 -2.1202 -0.4764
 9278TIP3    H249250   3.607   0.246  15.946 -0.4428  0.2419 -2.0385
 9279TIP3   OH249251   4.590   6.205   0.019 -0.1335 -0.3002 -0.1390
 9279TIP3    H149252   4.525   6.193   0.089  0.2275  0.1570  0.2716
 9279TIP3    H249253   4.636   6.285   0.042 -0.9053  0.5827 -1.5998
 9280TIP3   OH249254   3.767   6.265  14.047 -0.7942 -0.2625  0.4016
 9280TIP3    H149255   3.803   6.323  13.980  1.7712 -0.4723  1.5551
 9280TIP3    H249256   3.721   6.322  14.108  0.1964  0.3645  0.5636
 9281TIP3   OH249257   6.341   4.971  15.788 -0.6015  0.3592 -0.2030
 9281TIP3    H149258   6.391   4.971  15.707  0.6333  0.2085  0.5393
 9281TIP3    H249259   6.293   4.888  15.787  0.6798 -0.3966 -0.0328
 9282TIP3   OH249260   4.664   6.587  15.514 -0.6708 -0.1893  0.0904
 9282TIP3    H149261   4.664   6.492  15.520  0.7349 -0.1032  1.6802
 9282TIP3    H249262   4.575   6.613  15.540 -1.6827 -1.1436 -2.2906
 9283TIP3   OH249263   3.835   6.837  14.659  0.9157  0.2100 -0.3240
 9283TIP3    H149264   3.864   6.885  14.582  1.5883  2.2148  1.1597
 9283TIP3    H249265   3.842   6.899  14.732 -0.3018 -1.4362  1.2728
 9284TIP3   OH249266   7.029   0.152  13.805  0.0052 -0.0546  0.2474
 9284TIP3    H149267   6.977   0.119  13.879 -1.0160 -1.4720 -1.0721
 9284TIP3    H249268   7.037   0.246  13.822 -2.8474  0.1799  0.5926
 9285TIP3   OH249269   3.169   0.890  13.528 -0.2368 -0.0651 -0.1569
 9285TIP3    H149270   3.134   0.952  13.592 -0.8426  0.2881 -0.8178
 9285TIP3    H249271   3.120   0.909  13.448 -0.1083 -1.0920 -0.4856
 9286TIP3   OH249272   4.773   7.277  14.024  0.0468 -0.6429  0.5690
 9286TIP3    H149273   4.750   7.297  13.933 -0.8484  0.1677  0.9501
 9286TIP3    H249274   4.861   7.241  14.020  0.8975  1.4429 -0.4157
 9287TIP3   OH249275   2.778   5.570  13.839 -0.0402 -0.2987 -0.4354
 9287TIP3    H149276   2.855   5.552  13.892  1.0294  1.4430 -1.3741
 9287TIP3    H249277   2.771   5.495  13.780 -0.9464 -2.0085  1.7738
 9288TIP3   OH249278   3.472   0.504  14.071  0.1999 -0.1526  0.2499
 9288TIP3    H149279   3.478   0.530  13.979 -0.1962 -0.2000  0.2091
 9288TIP3    H249280   3.503   0.580  14.119 -2.8446  1.1920  0.2160
 9289TIP3   OH249281   6.635   5.469  15.946  0.2885  0.2040 -0.3115
 9289TIP3    H149282   6.563   5.453  16.007  0.4133  1.7998  0.2813
 9289TIP3    H249283   6.608   5.427  15.865 -0.0203 -1.6983  0.7491
 9290TIP3   OH249284   5.741   4.188  15.476 -0.1783  0.0763 -0.5099
 9290TIP3    H149285   5.664   4.156  15.523  0.5946 -0.5235  0.3576
 9290TIP3    H249286   5.736   4.283  15.483 -1.4327  0.0863 -1.4070
 9291TIP3   OH249287   5.341   5.917   0.512 -0.6283 -0.0493 -0.0801
 9291TIP3    H149288   5.435   5.905   0.501 -0.5952  0.8788 -0.7947
 9291TIP3    H249289   5.330   5.933   0.606  0.0886  1.2800 -0.2080
 9292TIP3   OH249290   4.332   5.822  13.022 -0.0912 -0.5731  0.5288
 9292TIP3    H149291   4.293   5.797  13.106 -0.9437  0.4195  0.4323
 9292TIP3    H249292   4.303   5.912  13.008  0.8602 -0.4029 -0.3599
 9293TIP3   OH249293   2.748   7.271   0.674  0.1296 -0.4334  0.5900
 9293TIP3    H149294   2.799   7.333   0.621 -0.1465 -0.3257  0.4474
 9293TIP3    H249295   2.694   7.224   0.610 -1.6922  1.0967  0.9664
 9294TIP3   OH249296   4.523   5.410  15.280 -0.5927  0.9096 -0.0600
 9294TIP3    H149297   4.531   5.498  15.315  1.7803  1.4536 -1.8059
 9294TIP3    H249298   4.545   5.352  15.353 -1.7478  1.7673  0.9773
 9295TIP3   OH249299   3.490   5.894  12.476  0.0810  0.1387  0.7597
 9295TIP3    H149300   3.462   5.974  12.431  0.6311 -0.8153 -1.3691
 9295TIP3    H249301   3.419   5.874  12.537 -0.2931  1.9516  0.9580
 9296TIP3   OH249302   5.610   4.056  10.991 -0.0312 -0.0579 -0.3708
 9296TIP3    H149303   5.549   4.129  10.980 -0.3515 -0.4566 -1.2664
 9296TIP3    H249304   5.688   4.096  11.030  0.1394  0.9283 -1.6806
 9297TIP3   OH249305   3.422   6.309   0.091 -0.2116 -0.7389 -0.2732
 9297TIP3    H149306   3.342   6.347   0.055 -0.1303 -0.5576 -0.2642
 9297TIP3    H249307   3.463   6.266   0.016  0.0988 -0.1199 -0.4639
 9298TIP3   OH249308   6.311   1.915  15.153 -0.8039  0.2547  0.1457
 9298TIP3    H149309   6.350   1.993  15.190 -2.3432  0.4406  1.4077
 9298TIP3    H249310   6.235   1.896  15.208 -2.6541  0.0423 -2.3408
 9299TIP3   OH249311   4.337   0.549  11.488 -0.2478 -0.3780 -0.3981
 9299TIP3    H149312   4.401   0.585  11.426 -0.8210  0.7133 -0.3725
 9299TIP3    H249313   4.389   0.527  11.566  0.0101  1.1360 -0.1208
 9300TIP3   OH249314   5.110   5.020  12.918 -0.0658  0.1199  0.1814
 9300TIP3    H149315   5.050   5.070  12.862 -0.8683 -1.1084 -0.0675
 9300TIP3    H249316   5.058   4.946  12.949  1.3284 -0.9855 -0.0627
 9301TIP3   OH249317   5.533   4.522  14.955  0.0442  0.9693  0.6682
 9301TIP3    H149318   5.590   4.582  14.907  0.0388  2.2815  2.2495
 9301TIP3    H249319   5.450   4.525  14.908  0.2113  1.7875  0.4130
 9302TIP3   OH249320   4.404   1.170   0.060 -0.2230  0.7781 -0.5464
 9302TIP3    H149321   4.371   1.249   0.101 -0.5983 -0.4027  1.5018
 9302TIP3    H249322   4.425   1.112   0.133  2.3306 -0.1190 -1.9252
 9303TIP3   OH249323   6.660   6.072   1.175 -0.2857 -0.0212 -0.0133
 9303TIP3    H149324   6.567   6.087   1.159 -0.1637  0.1177 -0.6167
 9303TIP3    H249325   6.674   6.099   1.266 -0.9505 -0.6112  0.2668
 9304TIP3   OH249326   3.560   3.649  15.998  1.0079  0.1958 -0.2110
 9304TIP3    H149327   3.571   3.580  16.063 -2.2921 -0.3644 -0.1644
 9304TIP3    H249328   3.569   3.604  15.914  2.1314  0.3417 -0.1779
 9305TIP3   OH249329   6.523   5.777  14.569  0.0350 -0.3276 -0.5731
 9305TIP3    H149330   6.566   5.750  14.488  0.2769 -0.5403 -0.3771
 9305TIP3    H249331   6.513   5.696  14.619 -0.8973 -0.3288 -0.7558
 9306TIP3   OH249332   3.721   5.899  15.466 -0.3038 -0.2254 -0.4881
 9306TIP3    H149333   3.689   5.810  15.475  1.8038 -1.3744 -3.4537
 9306TIP3    H249334   3.713   5.918  15.373  1.0421  1.9755 -0.1898
 9307TIP3   OH249335   5.464   5.176  13.124  0.2609 -0.0609  0.4922
 9307TIP3    H149336   5.512   5.203  13.046  1.5144  0.4348  1.4149
 9307TIP3    H249337   5.485   5.083  13.134  0.2695 -0.0745  0.3426
 9308TIP3   OH249338   7.049   0.944  14.169 -0.5157  0.1632  0.2673
 9308TIP3    H149339   7.020   0.898  14.248  1.2618 -1.0543  0.2351
 9308TIP3    H249340   7.140   0.918  14.158  0.1148  2.5834 -0.5900
 9309TIP3   OH249341   3.714   6.800  13.765  0.4666 -0.1927 -0.3666
 9309TIP3    H149342   3.697   6.887  13.729  0.6613  0.3161  0.7388
 9309TIP3    H249343   3.767   6.756  13.699 -0.3345  0.2416 -1.2946
 9310TIP3   OH249344   3.119   6.746  13.075  0.4463 -0.0510 -0.1156
 9310TIP3    H149345   3.098   6.812  13.141  2.8114  1.6873 -1.0037
 9310TIP3    H249346   3.053   6.758  13.007  0.6959  1.2519 -0.1483
 9311TIP3   OH249347   3.869   5.127   0.413  0.4159  0.2365  0.3876
 9311TIP3    H149348   3.960   5.132   0.442  0.7042  2.6049 -0.7878
 9311TIP3    H249349   3.818   5.153   0.490  0.8275  0.6435  0.5247
 9312TIP3   OH249350   4.249   4.987   0.644 -0.4263  0.4813 -0.2097
 9312TIP3    H149351   4.262   5.017   0.733 -2.3910  1.5317 -0.2365
 9312TIP3    H249352   4.211   5.063   0.599 -0.9120 -0.5280 -1.5258
 9313TIP3   OH249353   3.175   4.802  14.801 -0.0918 -0.4665 -0.3000
 9313TIP3    H149354   3.186   4.715  14.839  0.7548 -0.1597  0.1599
 9313TIP3    H249355   3.083   4.804  14.773 -0.7677 -0.6646  1.8143
 9314TIP3   OH249356   4.192   1.474  13.298  0.1762 -0.0870  0.2394
 9314TIP3    H149357   4.131   1.539  13.333  1.2278  0.7596  0.5252
 9314TIP3    H249358   4.262   1.469  13.363  1.9387  1.1945 -1.4577
 9315TIP3   OH249359   4.150   6.030  14.665  0.5775  0.1178 -0.0146
 9315TIP3    H149360   4.107   5.947  14.643  1.1988 -0.7178  1.8631
 9315TIP3    H249361   4.080   6.095  14.660 -0.7490 -1.0905  2.1066
 9316TIP3   OH249362   4.274   4.707   0.592 -0.2331 -0.0418 -0.0559
 9316TIP3    H149363   4.331   4.682   0.665 -1.1478  0.5192  0.8638
 9316TIP3    H249364   4.261   4.801   0.603 -0.2121  0.0869 -1.0716
 9317TIP3   OH249365   3.521   6.937  13.430  0.7975  0.3223 -0.4671
 9317TIP3    H149366   3.578   6.891  13.368 -0.0965 -1.3050 -0.1013
 9317TIP3    H249367   3.483   6.868  13.484 -1.5084  1.3672 -0.6831
 9318TIP3   OH249368   4.435   5.821  13.333  0.0224  0.4335  0.8505
 9318TIP3    H149369   4.397   5.736  13.356  2.3026 -1.0373 -0.5970
 9318TIP3    H249370   4.526   5.815  13.363  0.7110  1.6682 -0.9212
 9319TIP3   OH249371   6.417   6.231   0.524 -0.2975  0.0596 -0.1682
 9319TIP3    H149372   6.442   6.141   0.542  0.5638 -0.1314 -2.1353
 9319TIP3    H249373   6.326   6.226   0.495 -0.0798 -0.2482 -0.7956
 9320TIP3   OH249374   3.873   6.551   0.339 -0.0963  0.3509 -0.9931
 9320TIP3    H149375   3.846   6.460   0.331  1.8318 -0.4003  0.6372
 9320TIP3    H249376   3.807   6.590   0.396  2.0224 -1.4249  2.8381
 9321TIP3   OH249377   3.731   6.709  14.022  0.2009  0.0113 -0.2507
 9321TIP3    H149378   3.758   6.759  13.945 -1.1055  0.7901 -0.2113
 9321TIP3    H249379   3.710   6.775  14.088  2.9152 -0.6651  1.3625
 9322TIP3   OH249380   3.074   6.548  12.441 -0.1563  0.0301 -0.1083
 9322TIP3    H149381   3.129   6.582  12.371  1.1395 -2.2209 -0.2314
 9322TIP3    H249382   2.998   6.511  12.396 -0.7083  1.1276 -0.0974
 9323TIP3   OH249383   6.236   3.520  13.656  0.2794  0.0985  0.2549
 9323TIP3    H149384   6.270   3.438  13.691 -1.0478 -0.5863 -0.0638
 9323TIP3    H249385   6.298   3.544  13.587  1.4031  0.0600  1.2369
 9324TIP3   OH249386   3.969   3.984  12.981  0.1155 -0.4255  0.2780
 9324TIP3    H149387   3.898   3.936  12.937  0.6360 -0.3710 -0.6510
 9324TIP3    H249388   3.935   4.073  12.992 -0.4571 -0.7315  1.0495
 9325TIP3   OH249389   2.541   5.765  14.163 -0.6068 -0.0893  0.7725
 9325TIP3    H149390   2.566   5.858  14.162  1.0323 -0.4939 -3.2605
 9325TIP3    H249391   2.600   5.725  14.226 -0.8383  1.4515  1.9982
 9326TIP3   OH249392   6.251   6.953  15.936  0.0464  0.0269 -1.0054
 9326TIP3    H149393   6.304   6.896  15.881 -0.1162  2.0855 -3.3492
 9326TIP3    H249394   6.302   7.033  15.945 -0.2322 -0.0171  1.3418
 9327TIP3   OH249395   4.697   2.995  13.536 -0.2429 -0.9444 -0.5145
 9327TIP3    H149396   4.675   2.918  13.588 -2.0504  1.4856  2.4684
 9327TIP3    H249397   4.787   3.016  13.562 -1.1022  0.2077  1.6990
 9328TIP3   OH249398   4.364   6.910  15.713 -0.0432 -0.1758 -0.1155
 9328TIP3    H149399   4.423   6.967  15.663 -0.6576 -1.0232 -1.8715
 9328TIP3    H249400   4.420   6.841  15.747  0.2558 -0.0234 -0.2973
 9329TIP3   OH249401   5.715   5.565  15.215 -0.3314  0.5490 -0.1907
 9329TIP3    H149402   5.692   5.656  15.199 -0.8834  0.4853  0.2353
 9329TIP3    H249403   5.752   5.535  15.132 -0.0411  1.1887 -0.2978
 9330TIP3   OH249404   4.806   1.502   0.100  0.5563  0.2209  0.0762
 9330TIP3    H149405   4.804   1.494   0.195  4.9753 -0.4439  0.2484
 9330TIP3    H249406   4.767   1.420   0.068 -1.4973  0.7091  1.2483
 9331TIP3   OH249407   4.870   4.153  12.774 -0.5644  0.5261  0.3740
 9331TIP3    H149408   4.821   4.219  12.725 -1.1282  0.1411  0.4121
 9331TIP3    H249409   4.803   4.095  12.809  0.0392 -1.1647 -1.2379
 9332TIP3   OH249410   3.308   6.365   0.694 -0.2876  0.2437  0.6546
 9332TIP3    H149411   3.364   6.343   0.619 -0.8073 -0.4482  0.4629
 9332TIP3    H249412   3.369   6.367   0.769 -0.2716 -2.3795  0.7628
 9333TIP3   OH249413   6.040   4.890  15.360  0.5593 -0.1629  0.0352
 9333TIP3    H149414   6.037   4.880  15.455  1.9592  1.1628  0.2306
 9333TIP3    H249415   5.996   4.973  15.343 -0.9364 -1.0668 -0.6122
 9334TIP3   OH249416   3.723   4.935  14.434  0.3074 -0.1214 -0.3062
 9334TIP3    H149417   3.786   4.945  14.506 -1.0113  1.3568  0.6861
 9334TIP3    H249418   3.732   5.015  14.383 -0.9294  0.1925 -0.0285
 9335TIP3   OH249419   5.049   7.302  11.813  0.4760 -0.9796 -1.1681
 9335TIP3    H149420   5.121   7.312  11.751 -0.4011  2.3320 -1.7525
 9335TIP3    H249421   4.974   7.342  11.770 -0.2506  1.1172  1.8654
 9336TIP3   OH249422   3.936   0.786   1.087  0.0705  0.2236 -0.0282
 9336TIP3    H149423   3.981   0.866   1.062 -0.2646  0.4187 -0.0169
 9336TIP3    H249424   3.938   0.787   1.183  1.1258 -0.3924 -0.0313
 9337TIP3   OH249425   4.540   0.547  13.508  0.1019 -0.1995 -0.9995
 9337TIP3    H149426   4.501   0.575  13.425  0.3637  1.2461 -0.6459
 9337TIP3    H249427   4.481   0.478  13.540 -1.4652  1.0705 -1.0882
 9338TIP3   OH249428   4.366   0.292  13.481  0.1004  0.2192  0.2667
 9338TIP3    H149429   4.300   0.343  13.529 -0.0835 -0.1609  0.4258
 9338TIP3    H249430   4.340   0.201  13.496 -0.1733  0.1075 -0.8709
 9339TIP3   OH249431   4.601   6.016  14.697 -0.1356 -0.4077  0.1143
 9339TIP3    H149432   4.579   6.097  14.745  0.4249 -1.1733  1.6994
 9339TIP3    H249433   4.697   6.016  14.693 -0.0152 -2.1360  2.1827
 9340TIP3   OH249434   6.078   0.119  15.130 -0.2194  0.5340 -0.3471
 9340TIP3    H149435   6.056   0.027  15.143  0.8304  0.4856  1.1424
 9340TIP3    H249436   6.064   0.134  15.037  0.7138 -1.4161 -0.8093
 9341TIP3   OH249437   3.943   1.325  14.348 -0.3448 -0.1004 -0.2996
 9341TIP3    H149438   3.931   1.354  14.258  0.2213 -0.9701 -0.6587
 9341TIP3    H249439   3.857   1.337  14.389 -0.1754  1.8737 -0.4899
 9342TIP3   OH249440   5.297   1.102  14.687  0.5408  0.1708  0.0290
 9342TIP3    H149441   5.350   1.037  14.732 -0.0898  0.3111  0.9804
 9342TIP3    H249442   5.311   1.183  14.735 -1.3501 -0.0161  0.9631
 9343TIP3   OH249443   3.871   4.545  14.730 -0.1006  0.3476 -0.8471
 9343TIP3    H149444   3.812   4.609  14.690 -2.2912  0.5239  2.4657
 9343TIP3    H249445   3.946   4.597  14.760 -0.2043  0.7691 -1.3058
 9344TIP3   OH249446   3.373   0.810  13.230 -0.2758 -0.1041 -0.2178
 9344TIP3    H149447   3.357   0.901  13.255 -0.6430 -0.2805  0.1980
 9344TIP3    H249448   3.417   0.816  13.145 -0.9165  0.4453 -0.5178
 9345TIP3   OH249449   3.315   4.431  14.055  0.4649  0.2859  0.6224
 9345TIP3    H149450   3.369   4.468  14.124  0.7558  0.2609  0.4093
 9345TIP3    H249451   3.310   4.500  13.988 -0.3039  0.5346  0.9269
 9346TIP3   OH249452   5.995   0.869   0.256  0.3791 -0.2229  0.2975
 9346TIP3    H149453   6.048   0.800   0.216  0.1771  0.2676 -0.8370
 9346TIP3    H249454   6.059   0.930   0.293  0.6057  0.3181 -0.9826
 9347TIP3   OH249455   2.658   1.213  14.121  0.3323 -0.0095 -0.4049
 9347TIP3    H149456   2.677   1.122  14.141 -0.6022 -0.2921 -0.7785
 9347TIP3    H249457   2.709   1.231  14.041 -0.2255 -0.4885 -0.8770
 9348TIP3   OH249458   3.237   0.903  14.699  0.4208 -0.6478 -0.3683
 9348TIP3    H149459   3.265   0.921  14.609 -1.4714  1.3149 -0.5872
 9348TIP3    H249460   3.305   0.943  14.753 -0.2964  1.3949 -0.9202
 9349TIP3   OH249461   4.821   6.363  14.907  0.1125 -0.0222  0.4142
 9349TIP3    H149462   4.812   6.409  14.991  3.7166  0.7507  0.4760
 9349TIP3    H249463   4.800   6.271  14.928 -3.4017  0.8505  1.1102
 9350TIP3   OH249464   5.591   2.721  12.861  0.3700 -0.5075 -0.1396
 9350TIP3    H149465   5.616   2.813  12.855 -0.6994 -0.1197  1.3064
 9350TIP3    H249466   5.495   2.722  12.864  0.2560 -1.7862 -1.9802
 9351TIP3   OH249467   5.155   6.095  12.283  0.2304  0.1265  0.2203
 9351TIP3    H149468   5.212   6.168  12.308  0.8715  0.6855 -2.6951
 9351TIP3    H249469   5.203   6.050  12.213 -1.1894 -1.7362  0.4069
 9352TIP3   OH249470   3.579   6.070  15.655  0.0042 -0.6056 -0.2043
 9352TIP3    H149471   3.629   6.022  15.589 -1.3173  0.0198 -1.7098
 9352TIP3    H249472   3.508   6.011  15.679 -0.2601 -0.3275 -0.2992
 9353TIP3   OH249473   3.882   5.246  12.260 -0.2068 -0.2710 -0.6692
 9353TIP3    H149474   3.874   5.341  12.248 -0.2074 -0.2174 -0.2347
 9353TIP3    H249475   3.939   5.218  12.189  0.1598  0.1182 -0.5294
 9354TIP3   OH249476   6.458   5.067  14.039  0.2958 -0.4443 -0.6017
 9354TIP3    H149477   6.380   5.122  14.032 -0.1604 -0.7975  1.5310
 9354TIP3    H249478   6.427   4.979  14.018 -0.1848 -0.8094  1.5757
 9355TIP3   OH249479   4.240   0.355  14.155 -0.0515  0.2898 -0.4675
 9355TIP3    H149480   4.327   0.329  14.126  0.1578  0.4115  0.0445
 9355TIP3    H249481   4.193   0.376  14.074  0.4196  0.3174 -0.7372
 9356TIP3   OH249482   5.542   4.566  14.065  0.6073 -0.1809 -0.3789
 9356TIP3    H149483   5.478   4.624  14.106 -0.8270 -2.8210  1.3068
 9356TIP3    H249484   5.539   4.588  13.972 -0.6089  1.7281  0.0876
 9357TIP3   OH249485   4.636   7.119  13.008 -0.1046 -0.1131  0.3950
 9357TIP3    H149486   4.686   7.147  12.932  1.1885  3.0290  2.3175
 9357TIP3    H249487   4.567   7.184  13.018 -1.9988 -2.0419  0.3160
 9358TIP3   OH249488   5.767   5.622  13.454  0.2101 -0.6481 -0.2272
 9358TIP3    H149489   5.776   5.574  13.536 -2.8623 -1.3139 -0.1958
 9358TIP3    H249490   5.727   5.559  13.394 -0.3338  0.7234 -1.3284
 9359TIP3   OH249491   4.382   5.405  15.892  0.2227  0.2347  0.0893
 9359TIP3    H149492   4.302   5.358  15.872  0.8951 -0.9979  0.2717
 9359TIP3    H249493   4.406   5.448  15.810 -0.5152  0.4429 -0.0145
 9360TIP3   OH249494   7.273   7.124  13.492  0.2971 -0.0777  0.1528
 9360TIP3    H149495   7.211   7.130  13.419  1.1567 -1.5265 -0.7051
 9360TIP3    H249496   7.243   7.191  13.554 -0.4789  1.1062 -1.4842
 9361TIP3   OH249497   4.888   5.049  15.200 -0.1575  0.3345  0.2628
 9361TIP3    H149498   4.882   4.984  15.130 -0.9042 -2.0714  2.4499
 9361TIP3    H249499   4.982   5.062  15.213 -0.0171  0.5243 -0.9456
 9362TIP3   OH249500   3.317   6.490  13.409  0.4523 -0.0952  0.3195
 9362TIP3    H149501   3.249   6.496  13.477 -0.1679 -1.0247 -0.2031
 9362TIP3    H249502   3.271   6.453  13.333  1.6182 -1.0131  0.0556
 9363TIP3   OH249503   0.803   7.240  14.526  0.3647 -0.1699  0.2153
 9363TIP3    H149504   0.863   7.252  14.452 -2.2210  0.8558 -1.7909
 9363TIP3    H249505   0.785   7.328  14.557 -0.6982 -0.3932  0.2691
 9364TIP3   OH249506   5.816   1.235  15.668 -0.4215 -0.1789 -0.2927
 9364TIP3    H149507   5.802   1.321  15.708  0.5982  0.8598 -2.1070
 9364TIP3    H249508   5.734   1.218  15.620 -0.1413  0.3621 -0.9668
 9365TIP3   OH249509   4.862   6.165  12.848  1.1777  0.0829 -0.1820
 9365TIP3    H149510   4.948   6.205  12.858  0.8006  0.8307  0.1769
 9365TIP3    H249511   4.815   6.223  12.788  0.0382  1.1932  1.7054
 9366TIP3   OH249512   5.885   0.242  11.966  0.3967  0.2691  0.0826
 9366TIP3    H149513   5.811   0.293  11.933 -2.0801 -1.4678  2.6863
 9366TIP3    H249514   5.914   0.190  11.891 -1.7340  0.1776 -0.6992
 9367TIP3   OH249515   2.623   7.294  13.451  0.3366 -0.2625  0.4137
 9367TIP3    H149516   2.616   7.205  13.415 -0.1131  0.0289 -0.2158
 9367TIP3    H249517   2.698   7.332  13.405 -0.6699  0.3514 -0.7315
 9368TIP3   OH249518   1.649   6.671  12.288  0.3815  0.1679 -0.3136
 9368TIP3    H149519   1.559   6.666  12.320  0.6251 -2.4228  0.0355
 9368TIP3    H249520   1.703   6.664  12.366  0.9196 -2.2023 -0.8555
 9369TIP3   OH249521   3.118   5.792  15.364  0.0723  0.1247 -0.0821
 9369TIP3    H149522   3.152   5.741  15.290 -0.9180 -1.1080  0.2939
 9369TIP3    H249523   3.041   5.743  15.393 -0.2781  1.2860  0.9649
 9370TIP3   OH249524   4.266   0.500  15.704 -0.0713  0.6155  0.1089
 9370TIP3    H149525   4.186   0.447  15.704  0.8031 -0.7235 -0.8412
 9370TIP3    H249526   4.324   0.457  15.766 -0.1781  1.7520  1.0111
 9371TIP3   OH249527   5.987   7.026  15.826 -0.1702  0.1697 -0.7283
 9371TIP3    H149528   6.001   7.120  15.833 -1.2531  0.2859  0.1255
 9371TIP3    H249529   6.072   6.987  15.848  0.7515  0.9633 -2.7799
 9372TIP3   OH249530   4.964   1.493  13.279  0.0698 -0.0875 -0.2324
 9372TIP3    H149531   5.036   1.546  13.243  1.4639 -0.7081  1.5470
 9372TIP3    H249532   4.937   1.540  13.358 -0.2996 -0.7918  0.0627
 9373TIP3   OH249533   3.615   1.987  14.299 -0.2117  0.1848 -0.5090
 9373TIP3    H149534   3.648   2.002  14.388 -1.5106  0.4689 -0.0611
 9373TIP3    H249535   3.594   1.894  14.297  1.1510 -0.1238 -0.9873
 9374TIP3   OH249536   2.109   6.056  14.710  0.2694 -0.5745 -0.1590
 9374TIP3    H149537   2.097   6.047  14.804  0.3569 -0.2663 -0.1198
 9374TIP3    H249538   2.197   6.091  14.699  0.0577 -0.0876 -0.3316
 9375TIP3   OH249539   6.269   1.014  14.361  0.3152 -0.3375  0.0390
 9375TIP3    H149540   6.224   1.079  14.416  1.2781 -1.1224  1.8109
 9375TIP3    H249541   6.355   1.052  14.344 -1.0212  1.2307 -3.4775
 9376TIP3   OH249542   2.296   6.094  13.120 -0.2298 -0.2840 -0.1896
 9376TIP3    H149543   2.371   6.132  13.073 -0.9337  0.7969 -0.4572
 9376TIP3    H249544   2.304   6.000  13.104  2.8494 -0.5464  2.3937
 9377TIP3   OH249545   6.912   0.350   0.362 -0.1497  0.3785  0.1686
 9377TIP3    H149546   6.822   0.318   0.371  0.1750 -0.8296 -0.6741
 9377TIP3    H249547   6.906   0.421   0.299 -0.0982 -1.7519 -2.3333
 9378TIP3   OH249548   7.289   4.751  14.625 -0.0292  0.2799 -0.1647
 9378TIP3    H149549   7.268   4.724  14.536 -0.2916 -0.0945  0.0112
 9378TIP3    H249550   7.385   4.751  14.629  0.1155  4.0455 -1.6083
 9379TIP3   OH249551   4.274   5.232  15.671 -0.0780  0.4771  0.3371
 9379TIP3    H149552   4.300   5.153  15.624  2.7091 -0.1758  2.7827
 9379TIP3    H249553   4.251   5.295  15.603  2.0920 -0.9876 -1.8377
 9380TIP3   OH249554   3.144   5.314   0.254 -0.3441 -0.1570 -0.3628
 9380TIP3    H149555   3.071   5.252   0.241 -1.1763  0.6331  0.4207
 9380TIP3    H249556   3.144   5.330   0.348 -0.5890  1.5839 -0.6519
 9381TIP3   OH249557   3.923   1.021  13.363 -0.3933 -0.2064  0.2679
 9381TIP3    H149558   3.878   0.940  13.386  4.7216 -2.1287  4.6771
 9381TIP3    H249559   4.000   0.992  13.314  0.3324  2.1993 -0.0515
 9382TIP3   OH249560   4.016   6.607  15.768  0.2139  0.1057  0.0664
 9382TIP3    H149561   4.078   6.539  15.740 -1.2326 -0.9732 -0.6299
 9382TIP3    H249562   3.947   6.559  15.813  0.1345  1.3510  1.2958
 9383TIP3   OH249563   3.936   5.856  12.281 -0.1777 -0.4516 -0.5000
 9383TIP3    H149564   3.886   5.916  12.225 -1.5548 -0.9241  0.2044
 9383TIP3    H249565   3.871   5.815  12.337  0.9900 -1.2103  0.3351
 9384TIP3   OH249566   4.777   5.386   0.774  0.2841  0.4113  0.2300
 9384TIP3    H149567   4.800   5.323   0.842 -2.0228  0.7579  1.3869
 9384TIP3    H249568   4.852   5.445   0.769  1.4085 -0.9406  0.9051
 9385TIP3   OH249569   4.487   6.667   1.502  0.5919  0.1247 -0.2094
 9385TIP3    H149570   4.419   6.604   1.527 -0.1218 -0.7049 -3.8414
 9385TIP3    H249571   4.441   6.751   1.495  0.4974  0.0814 -0.1034
 9386TIP3   OH249572   3.013   5.336  14.755  0.1065 -0.4320  0.4425
 9386TIP3    H149573   2.975   5.249  14.764 -1.0911  0.1067  0.7467
 9386TIP3    H249574   3.037   5.361  14.844 -0.1648 -0.1919  0.4503
 9387TIP3   OH249575   6.498   6.037   0.127 -0.2969  0.3261 -0.1059
 9387TIP3    H149576   6.564   6.040   0.058 -1.3954  1.1526 -1.1546
 9387TIP3    H249577   6.459   5.950   0.121 -0.3796  0.3938 -0.5241
 9388TIP3   OH249578   5.391   5.426   1.591 -0.3348  0.5433 -0.2476
 9388TIP3    H149579   5.386   5.512   1.549 -0.9785  0.3399 -0.6008
 9388TIP3    H249580   5.316   5.425   1.651 -0.8196 -0.0908 -0.8597
 9389TIP3   OH249581   4.556   4.548   0.846  0.0909  0.1199 -0.1309
 9389TIP3    H149582   4.465   4.525   0.831  0.0735 -2.7782  3.6412
 9389TIP3    H249583   4.606   4.487   0.792 -0.1494  1.0863 -1.4668
 9390TIP3   OH249584   5.341   7.212   0.450 -0.2388 -0.1056  0.0532
 9390TIP3    H149585   5.411   7.157   0.415 -0.7197 -2.6636  2.9050
 9390TIP3    H249586   5.385   7.271   0.511 -0.0297  1.2603 -1.3787
 9391TIP3   OH249587   5.322   3.530   1.399 -0.2620  0.0597 -0.4622
 9391TIP3    H149588   5.348   3.440   1.418  0.2011  0.2942  0.0394
 9391TIP3    H249589   5.267   3.523   1.320  0.3920 -0.5742 -0.8745
 9392TIP3   OH249590   3.768   6.251  14.942  0.0895  0.3293  0.1076
 9392TIP3    H149591   3.850   6.287  14.909  0.5952  0.4434  1.4592
 9392TIP3    H249592   3.772   6.266  15.036 -1.4576  0.2836  0.1885
 9393TIP3   OH249593   5.694   6.243   1.110  0.1956  0.1784  0.2300
 9393TIP3    H149594   5.617   6.287   1.146  0.6067  0.7589  0.4060
 9393TIP3    H249595   5.658   6.175   1.053 -0.4550  0.8988 -0.2434
 9394TIP3   OH249596   2.315   6.214   0.055  0.1169  0.8896  0.7167
 9394TIP3    H149597   2.338   6.225   0.147  0.9326  0.7805  0.5219
 9394TIP3    H249598   2.395   6.234   0.007  0.0843 -0.4163  0.0944
 9395TIP3   OH249599   5.748   5.395   0.303  0.3895 -0.0509 -0.1939
 9395TIP3    H149600   5.748   5.326   0.237 -0.7433 -1.4928  1.2426
 9395TIP3    H249601   5.837   5.396   0.337  1.0253  0.8195 -1.8199
 9396TIP3   OH249602   3.334   4.493  15.046 -0.1118 -0.2469 -0.6391
 9396TIP3    H149603   3.309   4.405  15.018 -2.0673  0.2494 -0.5727
 9396TIP3    H249604   3.260   4.521  15.101  1.2301  0.8134  0.6548
 9397TIP3   OH249605   5.221   6.739  12.486 -0.4268 -0.2742 -0.6164
 9397TIP3    H149606   5.176   6.700  12.561 -2.6174 -0.2903 -1.9316
 9397TIP3    H249607   5.314   6.719  12.502 -0.4849  1.9578  3.4443
 9398TIP3   OH249608   6.955   5.972   2.334 -0.1696 -0.2989  0.0452
 9398TIP3    H149609   6.900   5.896   2.314  0.2043 -1.0888  1.9077
 9398TIP3    H249610   6.946   5.984   2.429  0.5041  1.4129 -0.0977
 9399TIP3   OH249611   7.012   6.785  15.340 -0.2816 -0.0668  0.0744
 9399TIP3    H149612   6.972   6.776  15.254 -0.7895 -0.4570  0.3481
 9399TIP3    H249613   7.010   6.697  15.377  0.6492 -0.0495  0.1740
 9400TIP3   OH249614   1.205   4.315  14.441  0.5424  0.2035  0.2222
 9400TIP3    H149615   1.137   4.360  14.391  1.1780  1.0024  0.0512
 9400TIP3    H249616   1.181   4.330  14.532 -0.5853 -1.2017  0.1715
 9401TIP3   OH249617   1.369   3.131   0.848  0.0220 -0.0918 -0.8883
 9401TIP3    H149618   1.293   3.149   0.903  1.6933 -0.5502  1.6496
 9401TIP3    H249619   1.425   3.208   0.859  1.8061 -1.5784  0.5697
 9402TIP3   OH249620   4.522   0.117  15.426 -0.6061  0.2893 -0.0095
 9402TIP3    H149621   4.443   0.080  15.466 -0.3066 -0.0307  0.2855
 9402TIP3    H249622   4.504   0.211  15.422 -0.9474  0.2358  0.1824
 9403TIP3   OH249623   4.179   0.641  13.069  0.4638  0.0308 -0.2499
 9403TIP3    H149624   4.122   0.598  13.133  0.8276 -1.5616 -0.9630
 9403TIP3    H249625   4.130   0.637  12.986  0.1658  1.7121 -0.1720
 9404TIP3   OH249626   5.836   4.371  13.550  0.8568  0.8967  0.1004
 9404TIP3    H149627   5.789   4.446  13.587 -2.3682 -0.9649  0.0605
 9404TIP3    H249628   5.839   4.307  13.622 -3.3726 -1.8438 -1.9400
 9405TIP3   OH249629   5.106   6.171  15.098  0.0271 -0.2240  0.2681
 9405TIP3    H149630   5.132   6.244  15.154 -1.0831  0.2260  0.2043
 9405TIP3    H249631   5.084   6.100  15.159  1.1593 -0.5284  0.3282
 9406TIP3   OH249632   4.837   5.847   0.609  0.1663 -0.4934  0.1043
 9406TIP3    H149633   4.764   5.784   0.611 -0.1537 -0.1326 -0.1955
 9406TIP3    H249634   4.809   5.913   0.546  0.6236 -0.1911  0.2227
 9407TIP3   OH249635   5.748   5.830  15.173 -0.2741  0.1064 -0.2293
 9407TIP3    H149636   5.787   5.873  15.097 -0.0971 -0.8054 -0.6698
 9407TIP3    H249637   5.655   5.848  15.165 -0.1127  1.0779  0.0321
 9408TIP3   OH249638   5.323   4.458  13.176  0.0183  0.2500 -0.1294
 9408TIP3    H149639   5.278   4.426  13.255  0.8914  0.2453  0.3655
 9408TIP3    H249640   5.252   4.469  13.112 -0.5331 -0.9675  0.2505
 9409TIP3   OH249641   5.114   5.431  11.347 -0.1875 -0.0605  0.4596
 9409TIP3    H149642   5.168   5.496  11.302 -0.0028  0.4809  1.4692
 9409TIP3    H249643   5.109   5.461  11.437 -2.7294  0.2479  0.2523
 9410TIP3   OH249644   4.492   4.342  14.503 -0.0502  0.4190 -0.4488
 9410TIP3    H149645   4.490   4.429  14.544  1.2399  0.0962  0.3273
 9410TIP3    H249646   4.466   4.283  14.574 -0.9597  0.1697 -0.9875
 9411TIP3   OH249647   6.675   5.411  14.300 -0.3683  0.0643 -0.3713
 9411TIP3    H149648   6.634   5.384  14.382  0.9893 -3.4901 -0.7686
 9411TIP3    H249649   6.751   5.462  14.327  0.4417 -1.6264  0.6670
 9412TIP3   OH249650   4.723   0.660  15.244  0.0698 -0.0067 -0.0074
 9412TIP3    H149651   4.767   0.692  15.166  0.5812 -0.3123  0.1524
 9412TIP3    H249652   4.760   0.712  15.315 -2.1424  1.9418 -0.2559
 9413TIP3   OH249653   3.769   4.612  15.509 -0.6866  0.1303 -0.1826
 9413TIP3    H149654   3.682   4.622  15.548 -0.3572 -0.5988  0.7870
 9413TIP3    H249655   3.797   4.701  15.488 -0.8223  0.5670  1.4066
 9414TIP3   OH249656   4.574   3.766  15.723 -0.9624 -0.6135 -0.2496
 9414TIP3    H149657   4.582   3.721  15.807 -1.6772 -0.8514 -0.3055
 9414TIP3    H249658   4.480   3.787  15.716 -0.9909 -1.0524 -1.2209
 9415TIP3   OH249659   3.216   5.890  12.654  0.2463 -0.0618 -0.3632
 9415TIP3    H149660   3.253   5.802  12.640  0.1989 -0.3247  1.0771
 9415TIP3    H249661   3.234   5.909  12.746  2.9027  2.6880 -1.3786
 9416TIP3   OH249662   6.796   5.977  14.178 -0.0345 -0.4425 -0.5476
 9416TIP3    H149663   6.801   5.890  14.139 -1.9488 -0.7252 -0.2365
 9416TIP3    H249664   6.704   5.985  14.205 -0.3758  2.4737 -2.4169
 9417TIP3   OH249665   3.752   0.680   0.113  0.2261 -0.3722  0.2952
 9417TIP3    H149666   3.707   0.692   0.197 -0.5928  0.1879 -0.2182
 9417TIP3    H249667   3.762   0.768   0.078  0.9050 -0.5737 -0.0330
 9418TIP3   OH249668   4.749   6.429  15.287 -0.1677  1.0042  0.1936
 9418TIP3    H149669   4.764   6.484  15.210 -2.5107  0.9954 -0.2863
 9418TIP3    H249670   4.753   6.489  15.361  0.6844  1.2458 -0.0466
 9419TIP3   OH249671   0.353   5.290  12.947 -0.2083  0.7294 -0.5896
 9419TIP3    H149672   0.437   5.255  12.918  0.1065  1.9674 -1.1856
 9419TIP3    H249673   0.373   5.332  13.031 -0.0235  1.9204 -1.2274
 9420TIP3   OH249674   5.989   4.342  12.783 -0.3046  0.1179  0.0321
 9420TIP3    H149675   5.974   4.403  12.855 -1.4090  0.6596 -0.6310
 9420TIP3    H249676   6.056   4.385  12.730 -0.7991  0.5893 -0.2246
 9421TIP3   OH249677   2.968   6.606  15.797  0.7668  0.5556 -0.7301
 9421TIP3    H149678   2.948   6.690  15.838  1.2159  0.1637  0.3196
 9421TIP3    H249679   3.052   6.620  15.754  0.6294  0.7661 -0.9340
 9422TIP3   OH249680   5.573   0.023  13.914  0.3243  0.4617  0.3164
 9422TIP3    H149681   5.487   0.008  13.875  0.9439  0.6779 -1.1510
 9422TIP3    H249682   5.597  -0.062  13.951  0.0629  0.0496 -0.4505
 9423TIP3   OH249683   4.075   1.746   1.495  0.1023  0.2094 -0.5932
 9423TIP3    H149684   4.005   1.782   1.549  0.1292 -1.0122  0.2781
 9423TIP3    H249685   4.031   1.712   1.418 -0.3367 -0.8852  0.1203
 9424TIP3   OH249686   4.636   5.775  13.073 -0.2475 -0.1514 -0.3949
 9424TIP3    H149687   4.666   5.733  12.993  0.0415  1.4736 -1.1492
 9424TIP3    H249688   4.541   5.784  13.062 -0.3762 -1.0089 -0.0316
 9425TIP3   OH249689   5.595   5.465  14.688  0.1305  0.1355 -0.8971
 9425TIP3    H149690   5.522   5.408  14.712 -0.6415  0.3665 -2.6780
 9425TIP3    H249691   5.615   5.442  14.597  1.5515  0.8602 -0.7871
 9426TIP3   OH249692   3.834   6.391  15.170  0.0010  0.1974 -0.3408
 9426TIP3    H149693   3.916   6.440  15.179  0.0040 -0.0622  1.1162
 9426TIP3    H249694   3.787   6.407  15.252 -1.0549 -0.2962 -0.8438
 9427TIP3   OH249695   4.755   4.766  15.865 -0.5547 -0.0207  0.5506
 9427TIP3    H149696   4.849   4.775  15.845 -0.5573  0.5656  0.7826
 9427TIP3    H249697   4.714   4.836  15.815 -1.2130 -2.1043 -1.8886
 9428TIP3   OH249698   4.297   5.496  14.839  0.5887 -0.1944  0.0155
 9428TIP3    H149699   4.381   5.523  14.877 -0.8121  1.3813  2.1223
 9428TIP3    H249700   4.282   5.558  14.768  1.4985 -0.8733 -0.7756
 9429TIP3   OH249701   6.003   5.434   0.333  0.5781 -0.3823  0.2088
 9429TIP3    H149702   6.033   5.380   0.260  0.2139 -2.0569  1.2643
 9429TIP3    H249703   6.042   5.393   0.411  0.5242  1.0570  1.0015
 9430TIP3   OH249704   0.753   6.564  11.756 -0.3420 -0.3179 -0.4730
 9430TIP3    H149705   0.818   6.499  11.726 -1.1977 -0.3996 -2.1978
 9430TIP3    H249706   0.728   6.611  11.676 -0.9507  1.0494  0.5098
 9431TIP3   OH249707   3.586   6.054  14.127  0.1675  0.2899 -0.5631
 9431TIP3    H149708   3.610   5.962  14.142 -0.1365  0.3748  0.4788
 9431TIP3    H249709   3.669   6.097  14.107  0.1003 -0.5203 -2.7198
 9432TIP3   OH249710   5.627   4.239  12.699  0.3781  0.0722 -0.0440
 9432TIP3    H149711   5.661   4.212  12.613  1.5045 -0.4773  0.5611
 9432TIP3    H249712   5.673   4.183  12.761  0.4010  1.2501  1.0081
 9433TIP3   OH249713   1.172   0.463  14.924  0.3674 -0.2061 -0.0541
 9433TIP3    H149714   1.184   0.533  14.859 -1.3461  0.6765  0.5616
 9433TIP3    H249715   1.255   0.416  14.923  1.6804  2.0451 -0.2439
 9434TIP3   OH249716   1.934   7.252  15.724 -0.1122  0.0917 -0.0594
 9434TIP3    H149717   1.893   7.306  15.656 -0.1980 -0.3343 -0.3432
 9434TIP3    H249718   1.864   7.235  15.787 -0.4491 -0.9010 -0.7046
 9435TIP3   OH249719   5.566   4.982  12.429  0.1426 -0.7828  0.4776
 9435TIP3    H149720   5.617   4.984  12.510 -0.5354 -0.4325  0.8991
 9435TIP3    H249721   5.593   5.060  12.381 -1.8274  0.7697  1.8364
 9436TIP3   OH249722   0.838   4.494  15.207 -0.3602 -0.9236 -0.3561
 9436TIP3    H149723   0.833   4.508  15.301  3.4652  0.2602 -0.2482
 9436TIP3    H249724   0.876   4.406  15.197  2.1468  0.1703 -0.7172
 9437TIP3   OH249725   4.064   4.204  15.443  0.8553  0.3133  0.4062
 9437TIP3    H149726   4.008   4.282  15.433  1.5373  0.8013  0.3257
 9437TIP3    H249727   4.085   4.202  15.536  2.0722  1.1046  0.1637
 9438TIP3   OH249728   0.398   0.407  15.218 -0.5478  0.8266 -0.2691
 9438TIP3    H149729   0.467   0.357  15.261  0.5249  1.7972 -0.8344
 9438TIP3    H249730   0.411   0.497  15.249 -2.1723  0.8541  0.3832
 9439TIP3   OH249731   5.725   5.801   0.217 -0.7017 -0.2803 -0.2375
 9439TIP3    H149732   5.767   5.877   0.178 -0.4774  0.3458  1.1854
 9439TIP3    H249733   5.780   5.727   0.191 -1.2331 -0.0522 -2.0879
 9440TIP3   OH249734   0.522   5.574  12.496  0.1354 -0.1804 -0.2048
 9440TIP3    H149735   0.428   5.569  12.481 -0.3296 -2.1012  2.9050
 9440TIP3    H249736   0.540   5.668  12.503 -1.9874  0.1397  1.4906
 9441TIP3   OH249737   7.247   6.188   0.109 -0.6943  0.1408  0.0429
 9441TIP3    H149738   7.293   6.107   0.085 -0.0517 -0.3979  2.8827
 9441TIP3    H249739   7.304   6.229   0.174 -1.1465  2.7981 -1.1805
 9442TIP3   OH249740   6.195   0.445  14.466  0.1239  0.2957 -0.1169
 9442TIP3    H149741   6.124   0.414  14.410  0.1311 -1.2104  0.6636
 9442TIP3    H249742   6.230   0.522  14.422 -2.5440  1.5761 -0.1048
 9443TIP3   OH249743   0.819   0.246  14.620 -0.2291  0.4392  0.0626
 9443TIP3    H149744   0.768   0.302  14.561  1.4999 -1.1542 -3.1051
 9443TIP3    H249745   0.856   0.305  14.685  0.5200  2.8284 -2.4453
 9444TIP3   OH249746   4.635   6.967  14.184 -0.2729  0.2278 -0.1946
 9444TIP3    H149747   4.664   6.877  14.195  0.6900  0.5435 -0.0508
 9444TIP3    H249748   4.543   6.960  14.161 -0.5752 -0.7372  1.2316
 9445TIP3   OH249749   3.872   7.007  13.884 -0.1809  0.2754 -0.2375
 9445TIP3    H149750   3.812   7.077  13.908  0.3455  1.0425 -1.1072
 9445TIP3    H249751   3.933   7.048  13.823  1.5416 -0.3542  1.0266
 9446TIP3   OH249752   0.344   6.651  15.880 -0.7116  0.4064  0.0406
 9446TIP3    H149753   0.262   6.604  15.865 -0.6696  0.5304 -0.6026
 9446TIP3    H249754   0.334   6.690  15.967 -2.0765  1.9288 -0.7669
 9447TIP3   OH249755   5.793   6.031  14.903  0.1236 -0.3788 -0.5230
 9447TIP3    H149756   5.711   6.079  14.897 -1.7544 -3.2096  1.1975
 9447TIP3    H249757   5.788   5.965  14.834  0.7137 -0.8934 -0.0785
 9448TIP3   OH249758   4.685   6.959  15.720 -0.1274  0.4986  0.0130
 9448TIP3    H149759   4.641   7.030  15.766  2.0695  1.9407 -0.0322
 9448TIP3    H249760   4.742   7.002  15.657  0.0493 -1.3528 -1.1293
 9449TIP3   OH249761   4.728   0.525  13.732  0.0818 -0.3098  0.7239
 9449TIP3    H149762   4.808   0.499  13.685 -0.2670  0.3090 -0.2433
 9449TIP3    H249763   4.660   0.524  13.665 -0.6758 -0.6062  1.4968
 9450TIP3   OH249764   0.215   6.406  14.458  0.2903  0.0337 -0.0214
 9450TIP3    H149765   0.129   6.447  14.455 -0.4333 -1.3819  0.9126
 9450TIP3    H249766   0.276   6.476  14.436 -0.9040  1.6727  1.7167
 9451TIP3   OH249767   1.425   3.498  12.249  0.8185  0.1846 -0.2002
 9451TIP3    H149768   1.505   3.535  12.213  0.7307  2.3437  1.6932
 9451TIP3    H249769   1.447   3.476  12.340  0.0065 -1.6810 -0.4300
 9452TIP3   OH249770   5.074   7.296   0.453  0.1848  0.0302 -0.0751
 9452TIP3    H149771   5.164   7.266   0.465 -0.1476 -0.4622  1.2453
 9452TIP3    H249772   5.021   7.216   0.456 -0.4714  0.4818  1.0480
 9453TIP3   OH249773   4.357   6.185  15.478 -0.2029  0.3299  0.2396
 9453TIP3    H149774   4.283   6.220  15.428 -0.5221 -1.2337 -0.4342
 9453TIP3    H249775   4.432   6.199  15.421 -0.5301 -1.2327 -0.6069
 9454TIP3   OH249776   5.750   2.247  13.323  0.2958  0.3160 -0.9787
 9454TIP3    H149777   5.666   2.263  13.281  0.2662 -0.1207 -1.0822
 9454TIP3    H249778   5.815   2.277  13.258  0.2276  0.5038 -0.9619
 9455TIP3   OH249779   6.906   6.975  13.933  0.2073 -0.4547 -0.2584
 9455TIP3    H149780   6.854   7.045  13.973 -0.0571 -0.9783  0.3309
 9455TIP3    H249781   6.906   6.906  13.999 -1.1951 -1.7920 -1.6155
 9456TIP3   OH249782   6.752   7.007  14.600  0.0827  0.3643  0.3018
 9456TIP3    H149783   6.779   6.915  14.601 -0.2474  0.2653  0.1304
 9456TIP3    H249784   6.685   7.011  14.531  0.3834  0.8131  0.0392
 9457TIP3   OH249785   6.510   2.967  14.628 -0.0802  0.6420 -0.0554
 9457TIP3    H149786   6.584   3.010  14.672  0.5209 -0.9989  0.5881
 9457TIP3    H249787   6.538   2.959  14.536  0.6922 -0.2419  0.2448
 9458TIP3   OH249788   6.722   4.925  14.794  0.0456  0.2436 -0.3121
 9458TIP3    H149789   6.810   4.952  14.768 -0.2429  2.0218  0.5151
 9458TIP3    H249790   6.666   4.959  14.724 -0.1494  0.3662 -0.0933
 9459TIP3   OH249791   2.667   0.258  13.654 -0.2639  1.2154  0.0123
 9459TIP3    H149792   2.638   0.172  13.623 -0.0099  1.2996 -0.4727
 9459TIP3    H249793   2.617   0.321  13.601  0.4785  1.3603 -0.5296
 9460TIP3   OH249794   6.022   1.291   0.919  0.4992  0.0534 -0.2784
 9460TIP3    H149795   6.034   1.279   0.825  0.0901  0.3340 -0.3689
 9460TIP3    H249796   6.110   1.308   0.952  1.0187 -2.5525 -0.2193
 9461TIP3   OH249797   6.482   6.957  14.913  0.1376  0.1839  0.0633
 9461TIP3    H149798   6.482   7.004  14.997  0.4673  1.7080 -0.7816
 9461TIP3    H249799   6.521   7.018  14.851 -0.0294 -0.9724 -1.2011
 9462TIP3   OH249800   7.258   4.782  14.912  0.2473 -0.2728  0.1950
 9462TIP3    H149801   7.323   4.792  14.842 -0.5904  1.8943 -0.3083
 9462TIP3    H249802   7.193   4.851  14.895 -1.7919 -1.8948  1.1277
 9463TIP3   OH249803   7.048   0.191  15.299  0.4367 -0.3840 -0.1004
 9463TIP3    H149804   7.075   0.226  15.215  0.3553  0.1277  0.0819
 9463TIP3    H249805   7.118   0.217  15.360  1.0080 -1.6486 -0.2099
 9464TIP3   OH249806   5.604   0.175  15.951  0.1483  0.4934  0.1452
 9464TIP3    H149807   5.661   0.158  16.027  1.8529  3.1084 -0.4891
 9464TIP3    H249808   5.551   0.250  15.977 -1.8909 -0.9155  0.1041
 9465TIP3   OH249809   0.517   2.037  13.849  0.2252  0.2874 -0.1968
 9465TIP3    H149810   0.485   2.011  13.762 -0.6794  1.0487 -0.0983
 9465TIP3    H249811   0.472   2.119  13.867  0.3001  0.0592  1.0543
 9466TIP3   OH249812   5.113   5.050  13.767 -0.2571  0.0419 -0.1796
 9466TIP3    H149813   5.032   5.035  13.719 -0.8405  1.2647  0.3898
 9466TIP3    H249814   5.159   5.116  13.714 -0.6902  1.0457  0.6820
 9467TIP3   OH249815   0.343   7.164  15.221 -0.0478  0.4649 -0.1411
 9467TIP3    H149816   0.280   7.204  15.281  0.1485 -1.7090  1.5594
 9467TIP3    H249817   0.290   7.111  15.163  0.1124 -0.6565  0.7220
 9468TIP3   OH249818   1.301   4.781  12.978 -0.1595 -0.1419  0.0579
 9468TIP3    H149819   1.267   4.693  12.997 -0.7223 -0.3437 -1.7846
 9468TIP3    H249820   1.311   4.783  12.883  1.0005  1.3895  0.1809
 9469TIP3   OH249821   0.628   6.626  14.680 -0.6082 -0.3533  0.0425
 9469TIP3    H149822   0.711   6.660  14.712 -1.0889 -1.3670  2.4398
 9469TIP3    H249823   0.569   6.633  14.755 -2.4133 -0.6205 -1.3182
 9470TIP3   OH249824   3.127   6.569  14.619 -0.2827 -0.4192 -0.2115
 9470TIP3    H149825   3.042   6.527  14.603 -0.9421  0.9797 -0.4521
 9470TIP3    H249826   3.114   6.619  14.699  0.9112 -1.7491  0.8453
 9471TIP3   OH249827   7.058   0.933  15.338  0.0871  0.2409 -0.6087
 9471TIP3    H149828   7.044   0.891  15.423  0.6223  1.4108  0.0708
 9471TIP3    H249829   7.082   1.022  15.359 -0.5347  0.7650 -2.0261
 9472TIP3   OH249830   6.766   4.989  13.529 -0.0790 -0.7389  0.2128
 9472TIP3    H149831   6.825   5.043  13.582  0.6863 -3.1822  1.8988
 9472TIP3    H249832   6.811   4.981  13.445  0.6268 -0.2121  0.5333
 9473TIP3   OH249833   5.602   4.620  15.909 -0.6988 -0.0396  0.6167
 9473TIP3    H149834   5.571   4.615  15.819 -1.7435  1.6305  0.8594
 9473TIP3    H249835   5.559   4.547  15.953 -1.7414  0.3293  0.2129
 9474TIP3   OH249836   6.032   2.061   0.113 -0.0487 -0.0569  0.0699
 9474TIP3    H149837   5.951   2.013   0.128  0.4626 -0.3963  1.8072
 9474TIP3    H249838   6.098   2.016   0.166  0.8220  1.4730  0.3345
 9475TIP3   OH249839   5.491   5.913  14.635 -0.1375 -0.1927 -0.0695
 9475TIP3    H149840   5.472   5.989  14.690  0.7985 -0.4042  0.5450
 9475TIP3    H249841   5.496   5.839  14.696  0.9786 -0.4127 -0.4293
 9476TIP3   OH249842   6.661   6.728  14.427 -0.1634  0.1054  0.1909
 9476TIP3    H149843   6.578   6.688  14.451  0.0496 -0.3901  0.0987
 9476TIP3    H249844   6.726   6.685  14.482  0.1267  0.0087 -0.2193
 9477TIP3   OH249845   4.075   6.720  15.295 -0.0354  0.0181  0.0605
 9477TIP3    H149846   4.156   6.670  15.291 -0.6895 -0.9473 -1.6263
 9477TIP3    H249847   4.097   6.806  15.259  0.0921 -0.4613 -1.0147
 9478TIP3   OH249848   6.315   5.513  15.189 -0.1202 -0.3060  0.8630
 9478TIP3    H149849   6.288   5.465  15.267 -1.2720  0.1246  0.7298
 9478TIP3    H249850   6.255   5.484  15.120  2.6755 -2.8869 -0.6308
 9479TIP3   OH249851   5.813   7.224   0.015  0.6160 -0.4185 -0.7805
 9479TIP3    H149852   5.875   7.286   0.053  0.2279 -1.2894  1.3725
 9479TIP3    H249853   5.819   7.238  -0.080  2.6037  0.9019 -0.4796
 9480TIP3   OH249854   5.614   5.783   0.460 -0.4318 -0.0120 -0.0144
 9480TIP3    H149855   5.634   5.828   0.377 -1.1444 -1.4474 -0.9770
 9480TIP3    H249856   5.697   5.743   0.486  0.0149  1.1889  0.4444
 9481TIP3   OH249857   6.243   5.961  14.072 -0.3862  0.0338  0.4232
 9481TIP3    H149858   6.198   5.932  14.151 -3.3346  0.0281 -1.1866
 9481TIP3    H249859   6.269   5.880  14.028  3.2513  0.0392  2.4075
 9482TIP3   OH249860   5.886   6.482   0.326  0.3688 -0.2306 -0.2440
 9482TIP3    H149861   5.966   6.466   0.276 -0.9866  1.8004 -3.1819
 9482TIP3    H249862   5.892   6.574   0.352 -1.9829  0.5783 -2.4092
 9483TIP3   OH249863   5.701   1.175  15.425  0.3218  0.6149  0.0958
 9483TIP3    H149864   5.762   1.195  15.354 -0.9920 -0.5005 -1.3849
 9483TIP3    H249865   5.615   1.198  15.390 -0.2709  0.7629  1.6112
 9484TIP3   OH249866   3.454   5.725  14.565  0.1881 -0.1802 -0.4534
 9484TIP3    H149867   3.499   5.810  14.569 -1.4939  0.7821 -1.1735
 9484TIP3    H249868   3.485   5.686  14.483  1.3718 -0.5166  0.1408
 9485TIP3   OH249869   5.855   4.138  13.721 -0.0457  0.5180 -0.0155
 9485TIP3    H149870   5.790   4.079  13.683  1.1854  0.0826 -1.5141
 9485TIP3    H249871   5.839   4.134  13.815 -1.0061 -0.9832 -0.2276
 9486TIP3   OH249872   7.180   4.721  15.843  0.4224 -0.3926  0.6873
 9486TIP3    H149873   7.243   4.777  15.798 -1.9468  0.4622 -1.7070
 9486TIP3    H249874   7.130   4.780  15.898  0.4454 -0.7806  1.1294
 9487TIP3   OH249875   6.574   6.258  15.737 -0.3778  0.2958  0.2345
 9487TIP3    H149876   6.576   6.275  15.832  4.0878  0.0604  0.2696
 9487TIP3    H249877   6.573   6.163  15.729  1.9561  0.2489  0.1147
 9488TIP3   OH249878   0.878   5.589  14.347 -0.3784 -0.3269 -0.6412
 9488TIP3    H149879   0.895   5.531  14.422  0.8875  0.4014 -0.3474
 9488TIP3    H249880   0.965   5.607  14.311 -0.8759  0.3696 -1.5020
 9489TIP3   OH249881   7.009   6.298  15.012  0.0988  0.3042  0.1981
 9489TIP3    H149882   7.031   6.205  15.015 -0.0912  0.2830  1.1625
 9489TIP3    H249883   6.960   6.314  15.093  0.3254  1.2941  0.1483
 9490TIP3   OH249884   5.283   5.385   0.068  0.0351  0.0737 -0.4616
 9490TIP3    H149885   5.254   5.326   0.137 -0.8409  1.0698  0.0474
 9490TIP3    H249886   5.369   5.415   0.097 -0.0823  0.0470 -0.0736
 9491TIP3   OH249887   0.378   5.819  13.257  0.4313 -0.4168 -0.2050
 9491TIP3    H149888   0.353   5.860  13.340 -1.2454  0.8084 -1.2752
 9491TIP3    H249889   0.374   5.725  13.273 -1.5911 -0.2081  0.6340
 9492TIP3   OH249890   6.767   6.714  12.462 -0.4647 -0.7708 -0.6475
 9492TIP3    H149891   6.753   6.784  12.525 -2.3599 -2.5872  1.0179
 9492TIP3    H249892   6.860   6.720  12.440  0.1342  0.1858  1.9461
 9493TIP3   OH249893   6.512   7.000  14.494  0.2188  0.0970  0.0100
 9493TIP3    H149894   6.465   6.916  14.503  0.2388  0.2745  1.8234
 9493TIP3    H249895   6.443   7.066  14.503  0.2330  0.2965 -1.2459
 9494TIP3   OH249896   6.354   6.625  14.050  0.1306 -0.1671  1.1994
 9494TIP3    H149897   6.440   6.639  14.089 -0.1943 -0.2118  1.9417
 9494TIP3    H249898   6.335   6.533  14.065 -0.2597 -0.0442  1.4754
 9495TIP3   OH249899   6.687   5.131  15.448  0.2763  0.3647 -0.2971
 9495TIP3    H149900   6.720   5.042  15.457 -3.9767 -1.3371 -0.1480
 9495TIP3    H249901   6.682   5.164  15.538  0.6685  0.2723 -0.2436
 9496TIP3   OH249902   5.546   4.625  12.664  0.8510 -0.6337 -0.1736
 9496TIP3    H149903   5.592   4.569  12.602 -1.8573 -0.2099 -2.7068
 9496TIP3    H249904   5.495   4.685  12.609 -2.9213 -1.2584  2.3835
 9497TIP3   OH249905   6.115   5.267   0.142 -0.0008  0.0104 -0.1801
 9497TIP3    H149906   6.188   5.254   0.081  0.5148 -0.5382  0.5434
 9497TIP3    H249907   6.084   5.179   0.161 -1.3226  0.2832 -1.0380
 9498TIP3   OH249908   4.611   6.310  15.559  0.2604 -0.1059 -0.2011
 9498TIP3    H149909   4.602   6.281  15.468 -1.3158 -0.8671  0.1782
 9498TIP3    H249910   4.545   6.260  15.607  0.7838  0.6033  1.2951
 9499TIP3   OH249911   0.074   0.199  14.221  0.0430  0.5447  0.3088
 9499TIP3    H149912   0.055   0.126  14.279 -0.3606 -0.2400 -0.7823
 9499TIP3    H249913   0.077   0.160  14.133  0.8782  1.6562 -0.1775
 9500TIP3   OH249914   6.078   5.377  14.188 -0.3893 -0.7072  0.1289
 9500TIP3    H149915   6.058   5.355  14.279  2.5337 -0.6196  0.8242
 9500TIP3    H249916   6.079   5.473  14.186  3.4554 -0.6644  0.9683
 9501TIP3   OH249917   6.053   6.858  13.804 -0.6446 -0.4357  0.1304
 9501TIP3    H149918   5.981   6.796  13.817 -0.9027  0.0485  1.0372
 9501TIP3    H249919   6.019   6.941  13.837  0.4896 -0.2967  0.9633
 9502TIP3   OH249920   5.862   4.859  14.311  0.0676 -0.3866  0.5091
 9502TIP3    H149921   5.799   4.844  14.381  2.4057  0.7173  2.9675
 9502TIP3    H249922   5.940   4.812  14.339  0.7836 -0.6384 -1.8134
 9503TIP3   OH249923   1.471   4.789  14.632  0.0475  0.2318 -0.3618
 9503TIP3    H149924   1.492   4.743  14.713 -0.7680  1.1377  0.3813
 9503TIP3    H249925   1.549   4.780  14.578  0.7546 -0.0355  0.6892
 9504TIP3   OH249926   7.093   0.773  15.556 -0.5675  0.1303 -0.3817
 9504TIP3    H149927   7.044   0.719  15.618 -0.1187  0.4691  0.2776
 9504TIP3    H249928   7.145   0.710  15.506  0.6585  0.0115  1.0147
 9505TIP3   OH249929   6.013   6.185   0.986 -0.0186 -0.3223  0.4025
 9505TIP3    H149930   6.066   6.173   0.907 -0.5482  0.7452 -0.1184
 9505TIP3    H249931   6.031   6.275   1.013 -0.5241 -0.4004  1.0033
 9506TIP3   OH249932   6.134   5.454  12.929  0.5079  0.4049 -0.2383
 9506TIP3    H149933   6.185   5.508  12.990  1.0303 -1.0047  0.6293
 9506TIP3    H249934   6.192   5.441  12.854  0.4565  0.8972 -0.3621
 9507TIP3   OH249935   0.596   5.565  15.224 -0.3854  0.3547 -0.1188
 9507TIP3    H149936   0.547   5.605  15.295  1.2205  1.1357  0.5817
 9507TIP3    H249937   0.548   5.589  15.145 -1.7408  0.1502  0.6293
 9508TIP3   OH249938   4.889   7.169  15.126 -0.3189 -0.4295  0.1888
 9508TIP3    H149939   4.866   7.230  15.197  0.4541  0.3602 -0.2365
 9508TIP3    H249940   4.948   7.106  15.167 -0.7063 -0.5927  0.5018
 9509TIP3   OH249941   7.136   5.759  14.888  0.2696 -0.1986  0.4602
 9509TIP3    H149942   7.057   5.806  14.913  0.2211 -0.1513  0.2190
 9509TIP3    H249943   7.156   5.703  14.964 -0.6514 -1.0825  0.0502
 9510TIP3   OH249944   6.970   6.633  12.779  0.5456 -0.4116 -0.5188
 9510TIP3    H149945   7.008   6.684  12.851  1.3499 -2.3587  0.5019
 9510TIP3    H249946   6.876   6.648  12.786  0.7463  0.6602 -0.0237
 9511TIP3   OH249947   7.016   6.179  14.224 -0.3976  0.0165 -0.2989
 9511TIP3    H149948   7.065   6.141  14.152 -0.4950  0.9866 -0.8815
 9511TIP3    H249949   6.948   6.113  14.244 -0.5195 -0.1478 -1.2410
 9512TIP3   OH249950   4.261   5.783   1.073 -0.1863  0.0136  0.7283
 9512TIP3    H149951   4.195   5.781   1.142  1.0925  0.0597  1.9548
 9512TIP3    H249952   4.286   5.691   1.062 -2.1820 -0.3313 -1.4448
 9513TIP3   OH249953   5.971   6.745  13.397  0.5136  0.0390  0.0851
 9513TIP3    H149954   5.941   6.824  13.352 -2.5320 -0.5306  0.9641
 9513TIP3    H249955   5.946   6.673  13.339 -1.4533 -0.5520  1.5887
 9514TIP3   OH249956   6.480   0.043  15.600  0.1379 -0.4274  0.1574
 9514TIP3    H149957   6.525   0.072  15.520 -0.7268 -1.6979 -0.8136
 9514TIP3    H249958   6.434   0.121  15.632 -0.0063 -0.0585 -0.9330
 9515TIP3   OH249959   4.773   5.799  12.416 -0.1387  0.0985  0.8057
 9515TIP3    H149960   4.706   5.860  12.448  0.0358  0.2569  0.8681
 9515TIP3    H249961   4.788   5.826  12.325  1.2478  1.3006  1.3804
 9516TIP3   OH249962   6.468   0.157   1.150  0.1539 -0.3216  0.0771
 9516TIP3    H149963   6.467   0.079   1.206 -0.8532 -1.9247 -2.1241
 9516TIP3    H249964   6.558   0.161   1.117  0.1198 -0.7391 -0.0691
 9517TIP3   OH249965   0.150   0.749   0.027  0.4187 -0.8055  0.3001
 9517TIP3    H149966   0.164   0.776  -0.063 -1.9984  0.3279  0.2278
 9517TIP3    H249967   0.077   0.688   0.023  1.1216 -1.7394  1.3499
 9518TIP3   OH249968   1.022   6.072  15.428 -0.5176  0.1835 -0.1241
 9518TIP3    H149969   1.023   6.167  15.440 -3.3094  0.2049  0.2178
 9518TIP3    H249970   1.075   6.039  15.501  1.1989  1.4907 -0.7314
 9519TIP3   OH249971   0.381   5.280  14.678  0.2975 -0.4362  0.3232
 9519TIP3    H149972   0.470   5.244  14.672  0.9365  1.1902 -0.2502
 9519TIP3    H249973   0.375   5.314  14.768  0.3490 -0.3203  0.2821
 9520TIP3   OH249974   4.487   0.314  14.403  0.0496  0.3579 -0.1766
 9520TIP3    H149975   4.482   0.404  14.371 -0.1589 -0.0997 -1.4619
 9520TIP3    H249976   4.566   0.278  14.362 -1.0873 -0.7256 -1.4871
 9521TIP3   OH249977   4.961   6.510  11.517 -0.1431 -0.4767  0.0244
 9521TIP3    H149978   4.880   6.473  11.553 -0.2593 -0.7051 -0.4613
 9521TIP3    H249979   4.960   6.484  11.424 -0.0590  0.4497 -0.2410
 9522TIP3   OH249980   4.863   0.404  14.275  0.0450  0.5447  0.3996
 9522TIP3    H149981   4.937   0.419  14.334  1.0794  0.5907 -0.8946
 9522TIP3    H249982   4.833   0.315  14.296  0.9061  0.2657  0.4509
 9523TIP3   OH249983   6.977   5.898   0.182  0.3417  0.5085  0.3418
 9523TIP3    H149984   6.994   5.810   0.149  0.4818 -0.2821  2.4389
 9523TIP3    H249985   7.062   5.942   0.179  0.0170  1.0385 -1.9588
 9524TIP3   OH249986   6.142   0.034  13.152  0.0184 -0.1604  0.7283
 9524TIP3    H149987   6.206   0.017  13.220 -0.4158 -1.0700  0.9226
 9524TIP3    H249988   6.161  -0.031  13.084  0.9745  1.2722 -0.3880
 9525TIP3   OH249989   7.131   0.185  14.488 -0.1303 -0.6925  0.4012
 9525TIP3    H149990   7.197   0.143  14.433  1.5220 -0.6007  2.2879
 9525TIP3    H249991   7.072   0.114  14.514  0.6534 -1.2063  0.7621
 9526TIP3   OH249992   5.086   5.593  14.013 -0.1019 -0.6676  0.1109
 9526TIP3    H149993   5.036   5.556  13.941 -3.4120  1.0709  1.3644
 9526TIP3    H249994   5.077   5.529  14.084 -1.2890 -0.0224  0.5712
 9527TIP3   OH249995   5.738   5.831  14.106 -0.1871 -0.5587 -0.2855
 9527TIP3    H149996   5.718   5.895  14.037 -0.5494 -0.7668 -0.3758
 9527TIP3    H249997   5.676   5.760  14.091 -1.3964  0.1300  1.2738
 9528TIP3   OH249998   0.043   7.244  15.387 -0.4000  0.3822  0.4959
 9528TIP3    H149999  -0.052   7.240  15.379 -0.3917  2.3208 -0.9456
 9528TIP3    H250000   0.067   7.327  15.346  2.0813 -0.8873 -0.7372
 9529TIP3   OH250001   6.122   0.124  13.780 -1.0267  0.5773  0.5234
 9529TIP3    H150002   6.179   0.152  13.708 -2.4486  0.6712 -0.5792
 9529TIP3    H250003   6.037   0.162  13.759 -1.6221  0.0213  1.9048
 9530TIP3   OH250004   4.851   6.791  14.565  0.4838 -0.4776  0.3104
 9530TIP3    H150005   4.780   6.834  14.518 -0.0455 -0.2132  1.3657
 9530TIP3    H250006   4.854   6.833  14.650  0.8720 -1.5778  0.8516
 9531TIP3   OH250007   5.570   6.465  14.808  0.1301  0.2601  0.1795
 9531TIP3    H150008   5.538   6.376  14.821 -3.0677  1.5544  2.0602
 9531TIP3    H250009   5.608   6.490  14.893 -1.6851  1.6245  0.6421
 9532TIP3   OH250010   6.873   5.720  14.059 -0.0816 -0.5338 -0.2530
 9532TIP3    H150011   6.899   5.632  14.033 -0.9143 -0.7265 -0.4358
 9532TIP3    H250012   6.955   5.770  14.059  0.8117 -1.8885  2.2189
 9533TIP3   OH250013   5.949   6.822  15.179  0.3842 -0.3747 -0.0739
 9533TIP3    H150014   5.883   6.785  15.121 -0.5667 -1.1632  1.4901
 9533TIP3    H250015   6.001   6.879  15.123 -0.1196 -1.6241 -1.8343
 9534TIP3   OH250016   5.395   0.550  15.484  0.0850 -0.1655 -0.4404
 9534TIP3    H150017   5.321   0.589  15.437 -0.3082 -0.0237  0.2940
 9534TIP3    H250018   5.473   0.591  15.445 -0.2426 -0.0266 -0.9446
 9535TIP3   OH250019   5.103   6.573  13.244  0.6808 -0.2019 -0.7703
 9535TIP3    H150020   5.099   6.487  13.286  0.0183 -0.0228 -0.4647
 9535TIP3    H250021   5.189   6.608  13.269  0.6264 -0.4459 -0.2456
 9536TIP3   OH250022   5.463   5.962   1.269 -0.2529 -0.2725 -0.1828
 9536TIP3    H150023   5.379   6.004   1.248  0.6407  1.9911  0.5889
 9536TIP3    H250024   5.481   5.989   1.359  1.2911 -0.7757 -0.3331
 9537TIP3   OH250025   0.271   5.034  14.554 -0.1947  0.5770 -0.3299
 9537TIP3    H150026   0.322   5.114  14.547  1.3090 -0.3013  0.4302
 9537TIP3    H250027   0.183   5.059  14.525  0.7134  2.0424 -1.8722
 9538TIP3   OH250028   5.688   5.966  13.584 -0.0298  0.2479  0.2173
 9538TIP3    H150029   5.724   6.046  13.547  1.0586 -0.3443 -0.0417
 9538TIP3    H250030   5.603   5.957  13.542 -0.4383  1.6073  0.7347
 9539TIP3   OH250031   6.601   5.907  15.396 -0.3381  0.1603 -0.1727
 9539TIP3    H150032   6.539   5.864  15.337 -1.1357 -0.6490  1.2187
 9539TIP3    H250033   6.684   5.863  15.380 -0.5449 -0.0471 -0.6849
 9540TIP3   OH250034   0.279   4.888  14.795 -0.8728 -0.4199  0.7270
 9540TIP3    H150035   0.261   4.939  14.716 -0.6668  0.4603  1.2394
 9540TIP3    H250036   0.375   4.888  14.802 -0.8102 -1.9845  0.0184
 9541TIP3   OH250037   6.540   6.128  15.253  0.1823 -0.2851  0.3853
 9541TIP3    H150038   6.541   6.202  15.314 -1.1009 -0.5956  0.7777
 9541TIP3    H250039   6.559   6.051  15.307  1.1616 -0.3032  0.0329
 9542TIP3   OH250040   5.612   1.603  14.661 -0.2372  0.0226 -0.2551
 9542TIP3    H150041   5.561   1.542  14.716 -0.3492 -1.2861 -1.7805
 9542TIP3    H250042   5.691   1.554  14.638 -0.2844  0.4893 -1.4274
 9543TIP3   OH250043   5.506   5.195  14.105 -0.3401  0.0725  0.5538
 9543TIP3    H150044   5.562   5.136  14.154 -2.7690 -1.7191  1.2526
 9543TIP3    H250045   5.479   5.144  14.029 -0.0758  1.3515 -0.4241
 9544TIP3   OH250046   2.769   5.159  14.091 -0.7814  0.0755  0.4204
 9544TIP3    H150047   2.700   5.135  14.153 -1.1816  0.7328  0.2299
 9544TIP3    H250048   2.818   5.078  14.077 -0.5820 -0.0479  1.7275
 9545TIP3   OH250049   6.013   2.075  12.438  0.2108  0.3585  0.6910
 9545TIP3    H150050   5.981   2.155  12.480 -2.1326 -0.0349 -0.2696
 9545TIP3    H250051   5.947   2.009  12.460  0.6788 -0.6386 -0.8550
 9546TIP3   OH250052   5.674   6.720  12.653 -0.1954 -0.3872  0.4588
 9546TIP3    H150053   5.679   6.813  12.633 -1.3111 -0.5294 -0.5480
 9546TIP3    H250054   5.759   6.685  12.628  0.2384  0.3596  0.8688
 9547TIP3   OH250055   6.216   7.149  12.975 -0.5907  0.6716  0.2340
 9547TIP3    H150056   6.168   7.098  12.909 -0.9823  1.5501 -0.1717
 9547TIP3    H250057   6.282   7.196  12.924  0.4530 -0.2210  0.7411
 9548TIP3   OH250058   0.645   2.299   0.674 -0.0235  0.3383  0.5440
 9548TIP3    H150059   0.565   2.345   0.648 -0.7699 -0.2300  1.7823
 9548TIP3    H250060   0.622   2.206   0.670  0.4715  0.1795  1.1983
 9549TIP3   OH250061   6.904   0.791  14.365 -0.0154 -0.3222  0.0970
 9549TIP3    H150062   6.878   0.724  14.302  1.9366  0.9626 -2.1803
 9549TIP3    H250063   6.980   0.753  14.410 -0.0426 -0.3664  0.1060
 9550TIP3   OH250064   0.151   1.413  15.878 -0.3895 -0.1599  0.1433
 9550TIP3    H150065   0.139   1.349  15.948  0.2315  0.1888  0.5768
 9550TIP3    H250066   0.062   1.438  15.854 -0.6130 -0.3513  0.7469
 9551TIP3   OH250067   5.477   6.246  15.199  0.1018  0.2698 -0.1206
 9551TIP3    H150068   5.493   6.221  15.108  0.1001 -1.4255  0.3209
 9551TIP3    H250069   5.556   6.294  15.225  0.1851  0.5898 -0.9489
 9552TIP3   OH250070   5.845   5.735  14.836 -0.3127  0.1366 -0.2848
 9552TIP3    H150071   5.899   5.752  14.759 -0.1999 -0.0271 -0.2422
 9552TIP3    H250072   5.903   5.748  14.910  0.2322 -2.0323 -0.2899
 9553TIP3   OH250073   5.782   1.880  13.661 -0.3192  0.2945 -0.3006
 9553TIP3    H150074   5.837   1.949  13.696 -0.2385 -0.2600  0.7008
 9553TIP3    H250075   5.753   1.912  13.576  1.9945  0.3637 -1.0957
 9554TIP3   OH250076   5.420   5.904   0.777  0.2162 -0.0327  0.7872
 9554TIP3    H150077   5.476   5.842   0.730 -0.6429 -0.0281 -0.2627
 9554TIP3    H250078   5.432   5.882   0.869  1.3794 -0.5160  0.5334
 9555TIP3   OH250079   7.048   5.344  15.178  0.6304 -0.4503 -0.4672
 9555TIP3    H150080   6.992   5.340  15.100 -0.5309 -0.4741  0.3599
 9555TIP3    H250081   7.075   5.253  15.192 -0.4425 -0.6918  0.0759
 9556TIP3   OH250082   4.704   6.790  15.968 -0.2665 -0.4986 -0.3476
 9556TIP3    H150083   4.786   6.753  16.000 -0.2895  0.2645  0.6584
 9556TIP3    H250084   4.723   6.816  15.878  0.6417 -0.1984 -0.0817
 9557TIP3   OH250085   4.795   6.347   0.756 -0.1461 -0.7499 -0.1045
 9557TIP3    H150086   4.753   6.262   0.768 -0.4018 -0.4401  1.2718
 9557TIP3    H250087   4.804   6.356   0.661 -1.1481 -1.8111 -0.3114
 9558TIP3   OH250088   0.067   4.869  15.161  0.0618  0.5594  0.4621
 9558TIP3    H150089   0.029   4.822  15.087 -1.1636  1.9274  0.1944
 9558TIP3    H250090   0.150   4.824  15.178 -0.1393 -0.4312 -1.0512
 9559TIP3   OH250091   1.684   5.854  15.706  0.6920  0.3480  0.3850
 9559TIP3    H150092   1.741   5.902  15.646  1.9972 -1.0324  0.4967
 9559TIP3    H250093   1.656   5.777  15.656  0.0173  0.3131  0.8088
 9560TIP3   OH250094   5.170   5.023  14.771 -0.6004 -0.0587 -0.2101
 9560TIP3    H150095   5.182   5.079  14.695  0.9159 -1.3085 -0.9185
 9560TIP3    H250096   5.223   5.064  14.840 -0.6661  0.1759 -0.2983
 9561TIP3   OH250097   1.615   4.941  14.900 -0.2202  0.9802 -0.2016
 9561TIP3    H150098   1.605   4.989  14.818 -0.7419  1.8376  0.3430
 9561TIP3    H250099   1.616   5.010  14.967 -0.4639  0.2523  0.5595
 9562TIP3   OH250100   6.696   0.056  15.958 -0.1392 -0.1606  0.0852
 9562TIP3    H150101   6.744  -0.010  16.007 -2.1165 -1.0910  0.7765
 9562TIP3    H250102   6.713   0.034  15.866  0.7296 -0.4884  0.3185
 9563TIP3   OH250103   5.223   7.059   0.251  0.3760 -0.0375  0.0280
 9563TIP3    H150104   5.171   7.098   0.180 -1.2871 -0.0446  1.2130
 9563TIP3    H250105   5.268   7.134   0.291  2.0965 -0.1424 -1.5964
 9564TIP3   OH250106   7.032   6.484  12.552 -0.6235  0.1714  0.2306
 9564TIP3    H150107   7.028   6.540  12.629 -0.1151  1.8169 -0.9213
 9564TIP3    H250108   7.125   6.467  12.540 -0.7229 -0.3160  0.1407
 9565TIP3   OH250109   0.413   6.328  15.987 -0.3643  0.0518  0.4015
 9565TIP3    H150110   0.458   6.266  16.045 -0.3850 -0.5528 -0.2328
 9565TIP3    H250111   0.390   6.277  15.910 -2.8951  0.1150  1.0665
 9566TIP3   OH250112   6.397   4.264  14.402 -0.6423 -0.7137  0.0036
 9566TIP3    H150113   6.417   4.304  14.318 -0.2493  1.7184  1.2200
 9566TIP3    H250114   6.349   4.332  14.450  1.1870 -1.2080  2.6063
 9567TIP3   OH250115   1.498   3.884  15.698 -0.4638  0.1080  0.4347
 9567TIP3    H150116   1.513   3.871  15.792 -1.4938 -0.5109  0.5239
 9567TIP3    H250117   1.586   3.889  15.660 -0.0380 -0.5058  1.3185
 9568TIP3   OH250118   1.518   6.933   0.879 -0.0754 -0.7284 -0.0849
 9568TIP3    H150119   1.501   6.962   0.969 -0.8527 -0.7443 -0.2267
 9568TIP3    H250120   1.611   6.953   0.866 -0.5318  1.5769 -0.1084
 9569TIP3   OH250121   0.543   5.056   2.432 -0.0612 -0.1755  0.0109
 9569TIP3    H150122   0.548   5.152   2.433  0.9288 -0.1967 -1.9228
 9569TIP3    H250123   0.619   5.028   2.381 -0.7226 -1.9664 -0.0159
 9570TIP3   OH250124   6.802   5.581  13.368 -0.0194 -0.2236  0.2964
 9570TIP3    H150125   6.748   5.658  13.385 -0.6055 -0.1265 -1.7678
 9570TIP3    H250126   6.886   5.601  13.407 -0.5630  0.9245  0.9067
 9571TIP3   OH250127   1.042   5.025  15.203 -0.3297  0.4347 -0.8106
 9571TIP3    H150128   1.022   5.028  15.110 -0.4070 -0.2317 -0.8188
 9571TIP3    H250129   0.972   4.971  15.240  0.5417 -0.5420 -0.5910
 9572TIP3   OH250130   6.906   5.815   2.668 -1.0717  0.5430  0.3881
 9572TIP3    H150131   6.812   5.800   2.678 -0.9454 -0.3262  0.2889
 9572TIP3    H250132   6.944   5.728   2.662 -0.2039  0.8781  0.8738
 9573TIP3   OH250133   5.734   6.875  14.863 -0.2243  0.0779  0.7565
 9573TIP3    H150134   5.681   6.795  14.855  2.1918 -1.4140 -0.8006
 9573TIP3    H250135   5.809   6.848  14.916  1.5294  0.8337 -1.3218
 9574TIP3   OH250136   6.491   0.519   1.016 -0.1239  0.5158 -1.0580
 9574TIP3    H150137   6.417   0.529   0.956 -1.2102 -0.1926  0.1383
 9574TIP3    H250138   6.559   0.577   0.981 -1.0113  0.6901 -2.5275
 9575TIP3   OH250139   6.270   5.643  14.468 -0.4774  0.3434 -0.1868
 9575TIP3    H150140   6.364   5.657  14.457 -0.0086 -2.0551  0.4965
 9575TIP3    H250141   6.235   5.639  14.379  0.2566  0.0178 -0.4628
 9576TIP3   OH250142   5.272   0.139  15.565  0.9857 -0.6329  0.8743
 9576TIP3    H150143   5.289   0.080  15.639 -0.9034 -0.2150  1.6780
 9576TIP3    H250144   5.291   0.227  15.599 -1.3826 -0.2868  1.3830
 9577TIP3   OH250145   0.153   4.205  13.778  0.6467 -0.0817 -0.5978
 9577TIP3    H150146   0.065   4.210  13.740 -1.0447  0.2073  3.1185
 9577TIP3    H250147   0.145   4.141  13.849  2.9189  1.4023  1.0668
 9578TIP3   OH250148   5.421   1.041  13.472  0.3512  0.6280  0.2851
 9578TIP3    H150149   5.374   1.089  13.403 -0.8564 -0.2032  0.5035
 9578TIP3    H250150   5.495   1.097  13.494 -1.4697  2.7953  1.1053
 9579TIP3   OH250151   5.634   1.201  13.611 -0.4139  0.0671 -0.2013
 9579TIP3    H150152   5.595   1.260  13.675  0.0918 -0.6121  0.7625
 9579TIP3    H250153   5.707   1.251  13.574  0.1989 -0.0464  0.8247
 9580TIP3   OH250154   0.805   6.497   0.488  0.1041 -0.1119  0.4747
 9580TIP3    H150155   0.844   6.582   0.469  0.3865 -0.9401 -3.0408
 9580TIP3    H250156   0.878   6.442   0.516  0.3186  0.1616  0.4533
 9581TIP3   OH250157   5.553   0.215  15.453 -0.2854  0.1640 -0.0454
 9581TIP3    H150158   5.582   0.297  15.494  1.8622  0.0376 -1.2288
 9581TIP3    H250159   5.576   0.147  15.516 -2.0141  0.4245  0.9129
 9582TIP3   OH250160   0.172   5.223  14.236  0.0093  0.2291 -0.5600
 9582TIP3    H150161   0.086   5.180  14.235 -0.7027  1.6331 -0.4910
 9582TIP3    H250162   0.208   5.205  14.149 -0.9331  0.7757 -1.0762
 9583TIP3   OH250163   5.139   4.841  13.956 -0.0446 -0.4431 -0.2927
 9583TIP3    H150164   5.061   4.880  13.995  0.0498 -0.2449 -0.3024
 9583TIP3    H250165   5.170   4.906  13.894  0.8241 -0.0013  0.5867
 9584TIP3   OH250166   4.082   6.250   1.908  0.0616  0.1850 -0.0870
 9584TIP3    H150167   4.061   6.198   1.985  0.5104 -0.0975 -0.1553
 9584TIP3    H250168   4.166   6.216   1.878  0.8623  1.6261  0.4655
 9585TIP3   OH250169   4.760   5.554  12.495 -0.5575  0.5681  0.2515
 9585TIP3    H150170   4.804   5.631  12.460  1.8232 -1.2180 -0.8100
 9585TIP3    H250171   4.689   5.589  12.548 -0.3520  3.4578 -1.2846
 9586TIP3   OH250172   5.816   5.916  15.542  0.5826  0.5228 -0.0120
 9586TIP3    H150173   5.873   5.966  15.600  0.2532  1.2736 -0.3240
 9586TIP3    H250174   5.731   5.960  15.548  0.4423  0.3618 -0.7506
 9587TIP3   OH250175   5.345   1.865  15.773  0.5056 -0.0691 -0.1028
 9587TIP3    H150176   5.357   1.780  15.815  0.7530  0.6445  1.3007
 9587TIP3    H250177   5.423   1.915  15.797 -0.6007  1.2501  0.8552
 9588TIP3   OH250178   2.036   2.010  14.941 -0.1896  1.2151 -0.6164
 9588TIP3    H150179   2.016   2.054  14.859 -0.2567 -1.8388 -2.3246
 9588TIP3    H250180   1.954   2.013  14.990 -0.8060  1.0763 -1.6248
 9589TIP3   OH250181   0.977   7.149  14.766  0.2719  0.2045 -0.1914
 9589TIP3    H150182   0.922   7.079  14.731  1.6509 -0.5539 -0.8726
 9589TIP3    H250183   0.921   7.226  14.766 -0.9127 -0.6463 -0.5008
 9590TIP3   OH250184   5.539   1.539  14.132 -0.1898 -0.0602  0.3708
 9590TIP3    H150185   5.547   1.488  14.213 -0.5402 -0.0609  0.4070
 9590TIP3    H250186   5.620   1.590  14.128 -0.5888  0.6693  1.2281
 9591TIP3   OH250187   4.826   6.001  13.084 -0.3437  0.1024  0.4092
 9591TIP3    H150188   4.786   6.066  13.027 -0.4563 -1.7484 -1.6515
 9591TIP3    H250189   4.758   5.935  13.098 -0.0495  0.1125  2.0353
 9592TIP3   OH250190   1.721   6.088  14.554 -0.5076 -0.2161  0.7575
 9592TIP3    H150191   1.677   6.004  14.566 -1.7340  0.1301 -1.0122
 9592TIP3    H250192   1.657   6.153  14.585 -0.7856  0.2145 -0.6512
 9593TIP3   OH250193   7.128   1.681  13.770 -0.1539  0.2612 -0.1342
 9593TIP3    H150194   7.118   1.591  13.739  2.5621 -0.0973 -0.1460
 9593TIP3    H250195   7.041   1.707  13.800 -1.5347 -1.4419 -2.5738
 9594TIP3   OH250196   4.753   5.867  15.819  0.1002  0.0864 -0.6071
 9594TIP3    H150197   4.688   5.931  15.788 -2.0324 -1.6419  0.1982
 9594TIP3    H250198   4.703   5.787  15.835  2.0443 -0.6524  2.2093
 9595TIP3   OH250199   0.538   2.222  15.521  0.3791  0.4668 -0.1118
 9595TIP3    H150200   0.617   2.261  15.560 -0.7944  1.5603  1.2307
 9595TIP3    H250201   0.481   2.297  15.505 -0.9486 -0.4596  0.2438
 9596TIP3   OH250202   4.595   6.307  14.619  0.0380 -0.0288  0.0442
 9596TIP3    H150203   4.529   6.250  14.581  0.8669  0.2850 -1.9408
 9596TIP3    H250204   4.568   6.318  14.710 -2.4435 -0.1887 -0.6339
 9597TIP3   OH250205   1.311   3.722  14.212  0.3982  0.0539 -0.1579
 9597TIP3    H150206   1.371   3.739  14.139  0.1492 -0.1301 -0.4083
 9597TIP3    H250207   1.235   3.776  14.193  0.9892  1.2584  0.8123
 9598TIP3   OH250208   6.720   4.865   0.229  0.0979  1.2108 -0.4914
 9598TIP3    H150209   6.695   4.806   0.300  1.1807 -0.1175 -1.1856
 9598TIP3    H250210   6.654   4.850   0.162  1.4951 -0.7559 -1.4839
 9599TIP3   OH250211   5.849   0.410  14.765  0.2609  0.1127  0.1087
 9599TIP3    H150212   5.854   0.472  14.837  2.4729 -0.2910  0.3322
 9599TIP3    H250213   5.792   0.340  14.797 -0.5909  1.0405  0.6142
 9600TIP3   OH250214   6.518   6.037  14.703 -0.2437 -0.5063  0.2159
 9600TIP3    H150215   6.457   5.987  14.756 -2.9551  2.2674 -0.1483
 9600TIP3    H250216   6.562   5.972  14.648 -2.5395 -2.6207  0.8155
 9601TIP3   OH250217   7.056   6.788  14.541 -0.2627 -0.2058  0.4221
 9601TIP3    H150218   6.971   6.750  14.561 -0.4683  0.7235  1.3523
 9601TIP3    H250219   7.108   6.775  14.620  0.2862 -0.3032  0.0455
 9602TIP3   OH250220   1.534   0.602   0.098  0.4422 -0.1607 -0.0611
 9602TIP3    H150221   1.504   0.516   0.069  1.1687 -0.7673  0.9695
 9602TIP3    H250222   1.626   0.606   0.070  0.5101  0.1434  0.2071
 9603TIP3   OH250223   1.578   2.677   0.658 -0.3125  0.0932 -0.0280
 9603TIP3    H150224   1.659   2.626   0.658 -1.3930 -1.6629 -1.0338
 9603TIP3    H250225   1.509   2.612   0.650 -1.7259  1.7054 -1.2729
 9604TIP3   OH250226   5.851   0.450  14.489 -0.1682  0.4135 -0.4974
 9604TIP3    H150227   5.841   0.484  14.579 -0.4433 -0.6309 -0.1321
 9604TIP3    H250228   5.935   0.404  14.491 -0.3512  0.0719 -0.6757
 9605TIP3   OH250229   1.790   6.914   0.825 -0.1491  0.1548 -0.2528
 9605TIP3    H150230   1.788   6.859   0.904  0.3653  0.5222  0.0162
 9605TIP3    H250231   1.883   6.920   0.802 -0.4275 -1.5381 -2.0072
 9606TIP3   OH250232   6.826   2.954  14.982 -0.8444  0.4907 -0.0152
 9606TIP3    H150233   6.752   2.896  14.962  0.0533 -0.2476 -1.2672
 9606TIP3    H250234   6.874   2.908  15.051  0.6691 -0.9923 -2.0065
 9607TIP3   OH250235   0.906   2.529  14.038 -0.3210 -0.4364  0.1299
 9607TIP3    H150236   0.899   2.590  14.111  0.7007  0.7527 -0.7263
 9607TIP3    H250237   0.995   2.542  14.004  0.1313 -2.8617  0.3067
 9608TIP3   OH250238   6.814   2.914  15.668  0.0256 -0.4718  0.4075
 9608TIP3    H150239   6.909   2.930  15.665 -0.0725  0.3533  1.4885
 9608TIP3    H250240   6.776   2.998  15.642 -0.4057 -1.2108 -1.4414
 9609TIP3   OH250241   0.584   5.556   0.055 -0.1154 -0.1063 -0.0521
 9609TIP3    H150242   0.593   5.642   0.014  1.1465 -0.1572  0.0953
 9609TIP3    H250243   0.551   5.499  -0.015  2.6440 -0.3487 -1.2128
 9610TIP3   OH250244   1.833   3.817   0.163  0.2295 -0.3676  0.0000
 9610TIP3    H150245   1.918   3.860   0.154  0.6021 -0.5530  2.1897
 9610TIP3    H250246   1.853   3.737   0.212 -1.0155 -1.1096 -0.6867
 9611TIP3   OH250247   6.295   5.699   0.264 -0.0676 -0.1264  0.3930
 9611TIP3    H150248   6.278   5.725   0.354 -1.4842  2.8987 -0.7120
 9611TIP3    H250249   6.233   5.628   0.247 -0.4866 -0.0160  1.4525
 9612TIP3   OH250250   6.658   1.953  15.238 -0.0248 -0.2443 -0.1125
 9612TIP3    H150251   6.615   1.870  15.259 -0.3250 -0.2324 -0.6706
 9612TIP3    H250252   6.662   1.954  15.142  0.3510  0.1959 -0.0934
 9613TIP3   OH250253   2.689   7.236  15.430  0.0700 -0.1044  0.3344
 9613TIP3    H150254   2.608   7.186  15.442 -0.3218  0.6723  0.9878
 9613TIP3    H250255   2.686   7.267  15.339  0.4881 -1.5610 -0.1808
 9614TIP3   OH250256   6.796   1.363  13.630 -0.3575  0.5482 -0.0546
 9614TIP3    H150257   6.734   1.422  13.674 -0.9458 -0.2852  0.2480
 9614TIP3    H250258   6.743   1.288  13.602  0.2005  0.6203 -1.3303
 9615TIP3   OH250259   1.521   1.243  15.297  0.0432  0.7537  0.5017
 9615TIP3    H150260   1.533   1.288  15.380 -0.7790  1.2059  0.3844
 9615TIP3    H250261   1.428   1.256  15.276  0.8118  2.8210 -1.7513
 9616TIP3   OH250262   0.988   1.939   0.702 -0.2909 -0.1097  0.2480
 9616TIP3    H150263   0.998   1.892   0.619 -0.6399  1.3332 -0.6240
 9616TIP3    H250264   1.043   2.017   0.692  2.4314 -1.6030  2.7086
 9617TIP3   OH250265   7.007   2.452  15.422  0.4319  1.1260 -0.6793
 9617TIP3    H150266   6.987   2.508  15.497  1.5106 -0.7817  1.1045
 9617TIP3    H250267   6.922   2.415  15.398  0.3101  0.4090  0.7523
 9618TIP3   OH250268   2.419   1.900   1.435 -0.6583 -0.0771 -0.0835
 9618TIP3    H150269   2.354   1.932   1.497  1.3492  0.9530  1.5718
 9618TIP3    H250270   2.493   1.873   1.490  0.3236 -1.2325 -1.9109
 9619TIP3   OH250271   1.829   6.730   3.135  0.0845 -0.1330  0.3745
 9619TIP3    H150272   1.857   6.812   3.175  0.2399 -0.5591  1.1583
 9619TIP3    H250273   1.737   6.721   3.161 -0.6211  0.9269 -1.6292
 9620TIP3   OH250274   2.986   3.345   0.602  0.5053 -0.2313  0.2938
 9620TIP3    H150275   3.024   3.433   0.605 -0.7598  0.3719 -0.8960
 9620TIP3    H250276   3.042   3.297   0.541  1.1594 -0.2423  0.8932
 9621TIP3   OH250277   0.870   1.013   0.323  0.0517  0.2945  0.3780
 9621TIP3    H150278   0.847   1.102   0.298 -0.6426  0.5143  1.7546
 9621TIP3    H250279   0.926   1.024   0.400  1.4307 -0.3960 -0.4981
 9622TIP3   OH250280   1.741   1.613   0.317 -0.0459  0.0092 -0.3935
 9622TIP3    H150281   1.677   1.546   0.341  0.1791 -0.2370 -0.4730
 9622TIP3    H250282   1.754   1.665   0.396 -2.1151  1.5235 -1.0250
 9623TIP3   OH250283   0.272   2.096   0.202  0.0111 -0.1809  0.0713
 9623TIP3    H150284   0.366   2.109   0.190 -0.3260  2.6986  0.1137
 9623TIP3    H250285   0.262   2.072   0.294  0.8752 -2.7895 -0.4865
 9624TIP3   OH250286   6.830   6.314   1.054 -0.2528 -0.2601  0.5103
 9624TIP3    H150287   6.913   6.278   1.085 -1.4054 -0.9131  2.9293
 9624TIP3    H250288   6.774   6.238   1.040 -0.6533  0.2174 -0.5024
 9625TIP3   OH250289   0.796   2.011   0.387  0.2275  0.2752 -0.1503
 9625TIP3    H150290   0.799   1.982   0.296  0.8121 -1.2845  0.3486
 9625TIP3    H250291   0.874   1.972   0.427  0.2977  1.4460  0.8721
 9626TIP3   OH250292   5.629   1.606   0.106 -0.0158  0.0600 -0.1078
 9626TIP3    H150293   5.645   1.693   0.070  0.3227  0.0885  0.1102
 9626TIP3    H250294   5.560   1.569   0.051  0.3467  0.1877 -0.6444
 9627TIP3   OH250295   6.532   2.624  15.624  0.1487 -0.1430  0.1488
 9627TIP3    H150296   6.471   2.683  15.580  0.6450  0.7488  0.6269
 9627TIP3    H250297   6.505   2.627  15.716 -1.2376 -2.4280 -0.1594
 9628TIP3   OH250298   2.781   0.412  15.842  0.1369 -0.4009 -0.4253
 9628TIP3    H150299   2.777   0.328  15.797 -1.8980  0.1339 -1.2889
 9628TIP3    H250300   2.862   0.453  15.811  0.7057 -1.6677 -0.6294
 9629TIP3   OH250301   0.168   7.235   0.430  0.0377  0.3140 -0.5223
 9629TIP3    H150302   0.165   7.157   0.374 -0.5147 -0.5618  0.7059
 9629TIP3    H250303   0.178   7.200   0.519 -2.6621  1.5452  0.2969
 9630TIP3   OH250304   6.765   0.983   0.238 -0.6581 -0.4474 -0.0885
 9630TIP3    H150305   6.748   0.986   0.144  1.0247 -0.3249 -0.4023
 9630TIP3    H250306   6.814   1.063   0.257 -0.3839 -0.8052  0.7716
 9631TIP3   OH250307   0.942   7.093   0.003 -0.4373 -0.2812  0.0059
 9631TIP3    H150308   1.002   7.141   0.059  0.5833 -2.3463  0.7225
 9631TIP3    H250309   0.881   7.159  -0.029  1.7021  1.7007 -0.0874
 9632TIP3   OH250310   2.014   0.392   1.320 -0.3588  0.6118  0.3593
 9632TIP3    H150311   2.067   0.321   1.356 -1.4912 -2.7848 -4.1852
 9632TIP3    H250312   1.924   0.369   1.343 -0.5396  1.9691  1.0467
 9633TIP3   OH250313   2.453   0.467   0.270 -0.5211 -0.6775 -0.0139
 9633TIP3    H150314   2.426   0.424   0.189  0.8295 -1.5071 -0.0539
 9633TIP3    H250315   2.460   0.559   0.248  2.4027 -1.2066 -1.6183
 9634TIP3   OH250316   0.953   0.824  15.392  0.5113 -0.3468 -0.1399
 9634TIP3    H150317   1.035   0.775  15.383  0.8900  0.5058 -1.4557
 9634TIP3    H250318   0.884   0.758  15.381  0.9995 -1.1897  1.6455
 9635TIP3   OH250319   5.716   3.158  15.531  0.2185 -0.3296  0.0962
 9635TIP3    H150320   5.630   3.172  15.571  0.7589  0.2665  1.0879
 9635TIP3    H250321   5.771   3.229  15.567  0.1934  1.5126 -3.3582
 9636TIP3   OH250322   1.065   3.550  15.841  0.3110  0.1436 -0.3571
 9636TIP3    H150323   1.034   3.477  15.788 -0.0775  0.1012 -0.0666
 9636TIP3    H250324   1.011   3.624  15.813  1.3371  0.5453 -1.3368
 9637TIP3   OH250325   1.603   3.057  14.382  0.3410  0.3204  0.0095
 9637TIP3    H150326   1.594   3.146  14.347  1.4819  0.6543  0.5752
 9637TIP3    H250327   1.610   3.002  14.304  2.6064  1.0377 -0.3322
 9638TIP3   OH250328   2.598   6.738  15.559  0.6894 -0.1229 -0.1437
 9638TIP3    H150329   2.533   6.680  15.519  0.5632  0.2391 -0.4750
 9638TIP3    H250330   2.651   6.681  15.614 -1.4923 -0.0242  2.1440
 9639TIP3   OH250331   0.548   6.936   1.100  0.3913 -0.2882 -0.0449
 9639TIP3    H150332   0.504   6.875   1.159 -0.1614  1.1049  1.0282
 9639TIP3    H250333   0.641   6.923   1.118  0.2989 -1.1983 -0.2185
 9640TIP3   OH250334   0.857   1.399   0.025 -0.1225  0.0162 -0.2443
 9640TIP3    H150335   0.910   1.393  -0.055 -0.6953 -0.2978 -0.6020
 9640TIP3    H250336   0.918   1.375   0.095  0.7053  1.4475 -0.4454
 9641TIP3   OH250337   0.653   0.381  14.904 -0.6743  0.7518  0.5645
 9641TIP3    H150338   0.569   0.414  14.871  0.4342  2.9280 -0.1732
 9641TIP3    H250339   0.631   0.297  14.944 -3.2066  1.2560  0.3581
 9642TIP3   OH250340   0.896   1.024   1.479 -0.1138 -0.1161  0.0282
 9642TIP3    H150341   0.824   0.998   1.537 -0.7684  0.4341 -0.5431
 9642TIP3    H250342   0.866   1.104   1.437  0.8470  0.1308 -0.1967
 9643TIP3   OH250343   2.147   2.259   0.963  0.1047  0.0643 -0.0112
 9643TIP3    H150344   2.139   2.198   1.036 -4.5755  0.7693  0.2168
 9643TIP3    H250345   2.130   2.345   1.001 -2.4548  0.4377 -1.8533
 9644TIP3   OH250346   3.814   6.670   1.324  0.0379  0.1606 -0.3103
 9644TIP3    H150347   3.752   6.609   1.364  0.4867  0.1054  0.2904
 9644TIP3    H250348   3.834   6.631   1.239 -0.4891  0.0078 -0.3689
 9645TIP3   OH250349   1.904   6.414  14.122 -1.1252  0.1280  0.3062
 9645TIP3    H150350   1.902   6.416  14.026 -0.5444  0.4640  0.2987
 9645TIP3    H250351   1.813   6.428  14.148 -1.1446  0.9699 -0.1886
 9646TIP3   OH250352   4.748   0.858  14.137 -0.1442  0.2933 -0.7186
 9646TIP3    H150353   4.754   0.815  14.052 -1.5567  1.9585 -1.6962
 9646TIP3    H250354   4.666   0.826  14.175  0.5697 -0.5821  0.1013
 9647TIP3   OH250355   2.473   6.647   0.103  0.1600  0.2911 -0.3960
 9647TIP3    H150356   2.461   6.677   0.012  1.2363 -0.6699 -0.8613
 9647TIP3    H250357   2.565   6.625   0.109  0.2917  1.2721  1.2392
 9648TIP3   OH250358   3.434   4.042   1.081  0.4267  0.0130  0.4543
 9648TIP3    H150359   3.379   3.996   1.144  0.5218 -0.3730  0.2530
 9648TIP3    H250360   3.378   4.058   1.006  0.5778 -0.3483  0.2636
 9649TIP3   OH250361   2.860   7.003   1.174  0.1823 -0.1324  0.2452
 9649TIP3    H150362   2.796   6.998   1.103  0.7141 -0.9866 -0.1772
 9649TIP3    H250363   2.936   6.954   1.142  0.7653  0.2312  1.0450
 9650TIP3   OH250364   2.623   0.031   0.390 -0.1469  0.6676  0.0340
 9650TIP3    H150365   2.629  -0.064   0.393 -0.6795  0.6602  1.7552
 9650TIP3    H250366   2.613   0.052   0.297  2.9098 -0.7337 -0.6554
 9651TIP3   OH250367   4.614   1.014   0.480  0.0030  0.6588 -0.3649
 9651TIP3    H150368   4.601   1.007   0.385  1.1453  0.6509 -0.5313
 9651TIP3    H250369   4.545   0.959   0.518 -0.4593  0.6608 -1.1876
 9652TIP3   OH250370   6.238   1.153   0.081 -0.0642 -0.1313  0.0382
 9652TIP3    H150371   6.332   1.141   0.066 -0.1360  0.5610 -0.9980
 9652TIP3    H250372   6.202   1.169  -0.006 -1.0908  0.0072  0.4842
 9653TIP3   OH250373   1.874   6.562  12.762  0.2756  0.9989 -0.3649
 9653TIP3    H150374   1.925   6.617  12.822 -1.2362  0.2571  1.6513
 9653TIP3    H250375   1.909   6.474  12.774 -1.7097  0.3991  1.3838
 9654TIP3   OH250376   2.977   5.363  14.000  0.2584 -0.5748 -0.4180
 9654TIP3    H150377   2.907   5.324  14.052 -0.3396  0.9467 -0.0601
 9654TIP3    H250378   3.040   5.396  14.064  0.4849 -0.4641 -0.6945
 9655TIP3   OH250379   2.161   0.539  15.052 -0.5697  0.2136 -0.5097
 9655TIP3    H150380   2.188   0.569  14.965 -0.1520  1.2413 -0.0311
 9655TIP3    H250381   2.120   0.615  15.093  1.8885  0.6474  1.3025
 9656TIP3   OH250382   2.650   6.706  14.569 -0.2703  0.2683 -0.2760
 9656TIP3    H150383   2.592   6.631  14.568  0.9361 -0.6824 -1.3011
 9656TIP3    H250384   2.619   6.762  14.498 -1.4598  0.9901  0.7896
 9657TIP3   OH250385   7.085   2.903   1.469  0.6241  0.4982 -0.1411
 9657TIP3    H150386   7.090   2.829   1.530  1.8457  1.4796  0.9750
 9657TIP3    H250387   7.041   2.867   1.392  0.9573 -1.3210  0.4922
 9658TIP3   OH250388   3.250   1.925   1.681  0.8956 -0.2844  0.2157
 9658TIP3    H150389   3.195   1.873   1.740 -0.3162 -0.3686 -0.9711
 9658TIP3    H250390   3.194   1.997   1.654  1.5727 -0.0452 -0.5626
 9659TIP3   OH250391   2.336   1.660   0.781  0.8008  0.2811  0.5458
 9659TIP3    H150392   2.332   1.587   0.720  3.0196  1.0166 -0.5634
 9659TIP3    H250393   2.355   1.736   0.726  1.6107  1.1668  1.9972
 9660TIP3   OH250394   0.028   0.844  14.847  0.7441  0.0874 -0.3289
 9660TIP3    H150395  -0.028   0.863  14.922  0.2146 -1.8069 -0.2038
 9660TIP3    H250396   0.090   0.917  14.844  1.5538 -0.3896  2.7287
 9661TIP3   OH250397   3.110   1.470  15.937 -0.4995 -0.1895 -0.1884
 9661TIP3    H150398   3.076   1.559  15.931  1.7569  0.6610 -0.8699
 9661TIP3    H250399   3.202   1.481  15.962  0.5026 -2.1986 -2.7136
 9662TIP3   OH250400   1.726   0.463   0.416 -0.0535 -0.4605  0.0418
 9662TIP3    H150401   1.750   0.371   0.419 -0.5262 -0.5899 -0.1341
 9662TIP3    H250402   1.809   0.510   0.412  0.1307 -0.9820 -3.4257
 9663TIP3   OH250403   3.886   2.130  15.327 -0.1248 -0.7989 -0.2090
 9663TIP3    H150404   3.911   2.038  15.337 -0.7364 -0.8375  1.0944
 9663TIP3    H250405   3.801   2.128  15.283 -0.4465 -0.8831  0.4151
 9664TIP3   OH250406   1.389   2.475  14.717  0.3349  0.1696 -0.2068
 9664TIP3    H150407   1.351   2.509  14.798  0.4544  0.1314 -0.1336
 9664TIP3    H250408   1.336   2.515  14.648 -0.6877 -0.9257 -0.0754
 9665TIP3   OH250409   2.354   1.291   0.288  0.4308 -0.2544 -0.1295
 9665TIP3    H150410   2.277   1.348   0.293 -0.4664 -1.5669  1.8336
 9665TIP3    H250411   2.335   1.220   0.349  2.9575 -0.9375 -0.0786
 9666TIP3   OH250412   1.728   1.752   0.561 -0.4237  0.1554  0.4007
 9666TIP3    H150413   1.634   1.754   0.580 -0.4296  2.1193  0.2402
 9666TIP3    H250414   1.764   1.695   0.629 -1.8603 -1.5662 -0.2368
 9667TIP3   OH250415   1.216   3.228  15.323  0.3134 -0.5000 -0.6983
 9667TIP3    H150416   1.167   3.146  15.317  2.3120 -1.7277 -0.8892
 9667TIP3    H250417   1.158   3.293  15.284 -1.8787 -1.5415  0.7393
 9668TIP3   OH250418   1.619   0.578  15.316 -0.0600  0.2415 -0.7445
 9668TIP3    H150419   1.644   0.523  15.243  0.4580  0.0829 -0.4510
 9668TIP3    H250420   1.623   0.667  15.281  0.5917  0.1943 -0.7935
 9669TIP3   OH250421   2.819   0.352   1.108  0.0243  0.0239 -0.2134
 9669TIP3    H150422   2.824   0.256   1.116  0.4991  0.1248  0.8941
 9669TIP3    H250423   2.903   0.378   1.071 -0.3808 -0.0497 -1.1802
 9670TIP3   OH250424   1.947   3.367   0.219  0.2457  0.0945  0.0118
 9670TIP3    H150425   2.024   3.320   0.250 -0.0872  0.1821  0.9783
 9670TIP3    H250426   1.932   3.435   0.284 -1.5200 -0.8487  0.6189
 9671TIP3   OH250427   2.754   0.215  15.630  0.4046 -0.1564  0.6437
 9671TIP3    H150428   2.809   0.142  15.657 -1.5929 -1.0332  2.4905
 9671TIP3    H250429   2.730   0.194  15.540  0.2908 -1.5180  0.9800
 9672TIP3   OH250430   2.207   6.583  14.502 -0.3291 -0.4885  0.2476
 9672TIP3    H150431   2.137   6.641  14.473 -0.8616 -1.1737  0.1236
 9672TIP3    H250432   2.199   6.505  14.446  1.1525 -0.1813 -0.4209
 9673TIP3   OH250433   2.803   0.898   0.550 -0.0496  0.1241 -0.0524
 9673TIP3    H150434   2.857   0.824   0.577 -2.2012 -1.3726  0.2713
 9673TIP3    H250435   2.728   0.858   0.505 -0.3590  2.2004 -1.4574
 9674TIP3   OH250436   3.625   0.765  14.536 -0.1404  0.0767  0.3109
 9674TIP3    H150437   3.576   0.696  14.581  2.2309 -0.1419  2.6020
 9674TIP3    H250438   3.588   0.847  14.570 -0.1333 -0.0631  0.6489
 9675TIP3   OH250439   6.733   2.815  13.694 -0.3054  0.1410  0.1787
 9675TIP3    H150440   6.770   2.756  13.628 -2.4300  2.4685 -3.2496
 9675TIP3    H250441   6.802   2.879  13.710  0.2358 -0.4489  0.1971
 9676TIP3   OH250442   3.415   2.259  15.243  0.1035  0.1856 -0.2145
 9676TIP3    H150443   3.423   2.303  15.159  2.2278 -1.4220 -0.8827
 9676TIP3    H250444   3.320   2.250  15.257 -0.3271  2.9883 -1.0480
 9677TIP3   OH250445   4.009   3.283  13.981  0.0072  0.6508 -0.5231
 9677TIP3    H150446   3.984   3.290  14.073 -0.5867  1.8554 -0.7692
 9677TIP3    H250447   4.100   3.315  13.979  0.1155  0.3647 -0.3191
 9678TIP3   OH250448   2.790   0.959  13.772 -0.3428 -0.2353 -0.1525
 9678TIP3    H150449   2.703   0.963  13.811 -0.0820  1.6131  0.3190
 9678TIP3    H250450   2.775   0.965  13.678 -0.8419 -2.2964 -0.2203
 9679TIP3   OH250451   3.417   5.957   1.400  0.0508 -0.3321 -0.1511
 9679TIP3    H150452   3.326   5.954   1.372 -0.0380 -1.5528  0.2117
 9679TIP3    H250453   3.463   5.899   1.339  0.1646 -1.5851  1.0953
 9680TIP3   OH250454   2.791   7.220  14.884  0.5618  0.4450  0.0686
 9680TIP3    H150455   2.704   7.258  14.896  1.1109  1.3191  1.5188
 9680TIP3    H250456   2.775   7.131  14.854 -0.8106  0.9440 -0.7294
 9681TIP3   OH250457   6.608   0.403   0.567 -0.0734 -0.7918  0.5414
 9681TIP3    H150458   6.520   0.389   0.601 -1.6338  1.8689 -2.1139
 9681TIP3    H250459   6.606   0.365   0.479  1.3401 -0.4726  0.3562
 9682TIP3   OH250460   3.181   5.060  14.968 -0.1636 -0.1579 -0.3037
 9682TIP3    H150461   3.123   5.002  14.919  0.5122  0.0735 -1.3868
 9682TIP3    H250462   3.255   5.004  14.993 -1.0061 -0.5378  1.3682
 9683TIP3   OH250463   0.886   6.337  15.072  0.0416 -0.1752  0.2472
 9683TIP3    H150464   0.849   6.318  15.158  0.4596 -0.2023  0.4202
 9683TIP3    H250465   0.815   6.379  15.024 -0.3842 -0.7128  0.4044
 9684TIP3   OH250466   3.926   3.868  14.715  0.0928  0.4429 -0.3310
 9684TIP3    H150467   3.987   3.795  14.722  0.1931  0.3855 -1.7708
 9684TIP3    H250468   3.855   3.836  14.659 -0.4711  1.0496  0.0184
 9685TIP3   OH250469   6.525   0.671   0.004 -0.3091 -0.2696  0.1605
 9685TIP3    H150470   6.431   0.685  -0.012  0.4748  2.8552 -2.1836
 9685TIP3    H250471   6.546   0.729   0.077  0.2402  0.8342 -0.8562
 9686TIP3   OH250472   5.092   2.930   0.513  0.6966 -0.2426 -0.4380
 9686TIP3    H150473   5.161   2.975   0.563  0.5610 -0.0780 -0.3988
 9686TIP3    H250474   5.071   2.853   0.566  1.6719 -0.9219 -1.0266
 9687TIP3   OH250475   6.675   7.265   4.007 -0.2139  0.4016  0.3390
 9687TIP3    H150476   6.612   7.194   3.992 -2.2729  2.1720  0.2794
 9687TIP3    H250477   6.757   7.221   4.028 -1.5261 -1.9791  0.6035
 9688TIP3   OH250478   6.640   2.100   1.175 -0.1381  0.6875  0.0381
 9688TIP3    H150479   6.643   2.074   1.082 -0.3178  1.4782 -0.1910
 9688TIP3    H250480   6.552   2.134   1.187 -0.0835  0.6656  0.4841
 9689TIP3   OH250481   5.833   0.569  14.989 -0.1809  0.0303 -0.5646
 9689TIP3    H150482   5.877   0.641  14.943 -0.2492  0.4013 -0.0429
 9689TIP3    H250483   5.888   0.553  15.066 -1.7651  1.5037  0.9166
 9690TIP3   OH250484   3.359   7.166   0.645  0.7456  0.3850 -0.4203
 9690TIP3    H150485   3.388   7.112   0.718  0.2808  0.0011 -0.5246
 9690TIP3    H250486   3.426   7.235   0.639 -0.2624  1.5966  1.6316
 9691TIP3   OH250487   3.504   4.835   0.294 -0.1421 -0.0906 -0.5425
 9691TIP3    H150488   3.532   4.841   0.386  1.1181 -2.1486 -0.7591
 9691TIP3    H250489   3.515   4.923   0.260  1.1504  0.3031  0.8073
 9692TIP3   OH250490   4.305   1.942  15.077 -0.2563  0.5116  0.3349
 9692TIP3    H150491   4.305   1.970  14.986 -0.0162 -0.9677 -0.1320
 9692TIP3    H250492   4.221   1.897  15.089  0.8616 -1.7394  0.0437
 9693TIP3   OH250493   3.020   7.248  13.894 -0.6086  0.3340  0.7575
 9693TIP3    H150494   2.986   7.205  13.973 -1.4373  0.8197  0.6677
 9693TIP3    H250495   2.948   7.241  13.831 -0.0415  0.1797  0.1346
 9694TIP3   OH250496   6.916   3.025   0.218  0.2362  0.5623  0.0786
 9694TIP3    H150497   6.932   3.111   0.258  1.9552  0.1949  0.2296
 9694TIP3    H250498   6.925   2.963   0.290  1.4769  0.0556 -0.4987
 9695TIP3   OH250499   6.996   6.193   0.197 -0.4542 -0.4433 -0.8519
 9695TIP3    H150500   7.073   6.179   0.143 -0.4645  0.1143 -1.0152
 9695TIP3    H250501   6.964   6.105   0.216  0.8768 -0.7188  0.1673
 9696TIP3   OH250502   4.841   3.964   1.026 -0.1972 -0.0463  0.3382
 9696TIP3    H150503   4.854   4.055   1.000  0.2218 -0.3980 -0.6778
 9696TIP3    H250504   4.865   3.912   0.950 -0.9003 -1.0019  0.7411
 9697TIP3   OH250505   6.113   0.559   2.462  0.5118  0.7914  0.3061
 9697TIP3    H150506   6.046   0.491   2.449  2.3345 -0.8193 -1.1210
 9697TIP3    H250507   6.179   0.517   2.518  1.3799  1.5742 -0.1244
 9698TIP3   OH250508   4.986   2.097  15.242  0.3479  0.0523  0.1432
 9698TIP3    H150509   4.991   2.083  15.147 -1.9776 -1.8984  0.2800
 9698TIP3    H250510   5.068   2.142  15.263  0.6657  1.0357 -2.8644
 9699TIP3   OH250511   4.135   0.645   3.101  0.1638 -0.6658  0.0652
 9699TIP3    H150512   4.054   0.673   3.143 -0.3722 -0.1274 -1.2952
 9699TIP3    H250513   4.176   0.726   3.071 -0.7680 -1.1800 -2.7526
 9700TIP3   OH250514   6.477   6.946  15.702  0.0362  0.1882 -0.1841
 9700TIP3    H150515   6.546   6.997  15.744 -0.3890  0.8470 -0.2851
 9700TIP3    H250516   6.489   6.857  15.736  0.1071  0.5826  0.8327
 9701TIP3   OH250517   1.769   2.679   0.412  0.0274 -0.1679 -0.0230
 9701TIP3    H150518   1.826   2.662   0.487  0.0242 -1.2998 -0.2737
 9701TIP3    H250519   1.690   2.717   0.451 -0.1677 -1.2056  0.6046
 9702TIP3   OH250520   3.582   0.366   1.097 -0.5947  0.0278  0.2656
 9702TIP3    H150521   3.596   0.461   1.099 -0.9464  0.1256 -1.3794
 9702TIP3    H250522   3.488   0.355   1.112 -0.8041  0.0220 -1.0243
 9703TIP3   OH250523   3.400   0.073  15.262  0.5628  0.3145  0.4584
 9703TIP3    H150524   3.450   0.043  15.338  1.6963 -0.8580 -0.7235
 9703TIP3    H250525   3.369  -0.007  15.220 -0.9812  0.9878  0.2664
 9704TIP3   OH250526   4.306   0.348   0.849 -0.3988 -0.2250  0.4855
 9704TIP3    H150527   4.218   0.381   0.867 -0.5005  1.0619 -2.1377
 9704TIP3    H250528   4.363   0.424   0.862  0.1470 -0.6492  0.6018
 9705TIP3   OH250529   5.868   0.101   1.491 -0.1675  0.6232 -0.2873
 9705TIP3    H150530   5.870   0.190   1.525 -1.2370  0.2319  0.8408
 9705TIP3    H250531   5.775   0.083   1.475  0.0343 -0.2982 -0.4930
 9706TIP3   OH250532   7.104   0.275  15.890 -0.4272 -0.2797 -0.1422
 9706TIP3    H150533   7.188   0.267  15.934 -0.0801 -0.8058 -0.8904
 9706TIP3    H250534   7.043   0.302  15.959  1.0039  3.4809 -0.2845
 9707TIP3   OH250535   3.785   1.180  15.207 -0.0224  0.0535 -0.6722
 9707TIP3    H150536   3.862   1.205  15.259 -1.5267  2.4551  0.5118
 9707TIP3    H250537   3.791   1.233  15.128 -0.7683  0.7360 -0.2843
 9708TIP3   OH250538   4.657   3.421  14.603  0.2673 -0.2470 -0.0723
 9708TIP3    H150539   4.609   3.346  14.568 -0.1807 -0.9994  2.0712
 9708TIP3    H250540   4.720   3.444  14.535 -0.7049 -1.5327 -1.4213
 9709TIP3   OH250541   3.695   2.137   3.215 -0.1774  0.1410 -0.7623
 9709TIP3    H150542   3.688   2.230   3.195  1.5684  0.7346  1.1841
 9709TIP3    H250543   3.786   2.115   3.197 -0.2854 -0.8930 -0.0974
 9710TIP3   OH250544   0.051   0.157   0.567 -0.5589  0.1580  0.0055
 9710TIP3    H150545   0.131   0.112   0.540  0.0635  1.9299 -1.2040
 9710TIP3    H250546   0.043   0.230   0.506 -1.8360  1.3703  1.5840
 9711TIP3   OH250547   0.811   1.148  13.970  0.0819  0.2402 -0.0344
 9711TIP3    H150548   0.764   1.214  13.920  2.4295  1.3054 -0.9169
 9711TIP3    H250549   0.858   1.198  14.037 -0.2251 -0.8258  0.9887
 9712TIP3   OH250550   4.298   0.756  15.809 -0.1773  0.2197 -0.0007
 9712TIP3    H150551   4.298   0.662  15.791 -1.1813  0.3516 -0.7210
 9712TIP3    H250552   4.350   0.794  15.738  1.3972  0.0723  1.0625
 9713TIP3   OH250553   4.915   0.705   1.282 -0.6528  0.4488 -0.1207
 9713TIP3    H150554   4.857   0.730   1.354  1.5585  0.1167  1.8679
 9713TIP3    H250555   4.941   0.788   1.242 -0.9619  0.7213  0.2428
 9714TIP3   OH250556   1.475   1.767   0.666 -0.3454  0.1325  0.6879
 9714TIP3    H150557   1.475   1.854   0.627 -2.0123  0.5187  1.5216
 9714TIP3    H250558   1.407   1.770   0.734  0.5488 -1.3823  1.6924
 9715TIP3   OH250559   2.887   0.077   0.441  0.2048 -0.4473  0.4498
 9715TIP3    H150560   2.948   0.091   0.368  2.1670  1.8646  2.4469
 9715TIP3    H250561   2.806   0.120   0.413  1.2312  1.2198 -0.0393
 9716TIP3   OH250562   3.256   1.343  14.093  0.3648  0.3284 -0.4578
 9716TIP3    H150563   3.210   1.422  14.122  1.6786  0.9904 -0.1223
 9716TIP3    H250564   3.188   1.290  14.051 -0.8858  0.8623  0.8322
 9717TIP3   OH250565   2.544   0.053  14.240 -0.0459 -0.5251 -0.6916
 9717TIP3    H150566   2.534   0.028  14.332  0.1707 -0.0875 -0.5520
 9717TIP3    H250567   2.632   0.090  14.234 -0.7039  1.0970 -0.6955
 9718TIP3   OH250568   0.946   1.251   0.681 -0.4515  0.4930  0.3108
 9718TIP3    H150569   0.855   1.243   0.652 -0.2394  2.7078 -1.0471
 9718TIP3    H250570   0.989   1.172   0.648 -1.3284  0.6369 -1.2198
 9719TIP3   OH250571   6.152   0.931  14.053 -0.8162  0.0510  0.0856
 9719TIP3    H150572   6.074   0.982  14.075 -1.0868 -1.0683  1.9129
 9719TIP3    H250573   6.180   0.894  14.137  2.0423  0.9229 -0.4272
 9720TIP3   OH250574   4.048   0.647  15.560  0.2406 -0.4335  0.1835
 9720TIP3    H150575   4.073   0.601  15.640 -2.1716 -1.4340  0.4090
 9720TIP3    H250576   4.094   0.731  15.565  1.9295 -1.3863  1.4760
 9721TIP3   OH250577   3.870   1.220   1.124 -0.3233 -0.2369 -0.2360
 9721TIP3    H150578   3.878   1.290   1.060 -0.0007 -0.5140 -0.4990
 9721TIP3    H250579   3.925   1.150   1.090  0.2626 -0.1968  0.6000
 9722TIP3   OH250580   1.871   0.294  14.931 -0.3912 -0.0531  0.5593
 9722TIP3    H150581   1.937   0.285  14.863 -0.0757 -0.3218  0.8974
 9722TIP3    H250582   1.831   0.208  14.937 -1.6641  0.4440 -0.5363
 9723TIP3   OH250583   2.967   0.716  13.162 -0.6685  0.6788 -0.2763
 9723TIP3    H150584   2.953   0.630  13.202 -1.3750  1.2641  0.7412
 9723TIP3    H250585   3.054   0.709  13.122 -1.0325 -0.7486 -0.8438
 9724TIP3   OH250586   3.137   1.888   0.826  0.9060  0.0630  0.4620
 9724TIP3    H150587   3.209   1.924   0.877 -0.2215  0.0081  2.1362
 9724TIP3    H250588   3.067   1.872   0.890 -0.6878  0.3615 -1.1393
 9725TIP3   OH250589   3.048   0.938  12.902 -0.2693  0.9420  0.1029
 9725TIP3    H150590   2.974   0.925  12.961 -1.4845  2.5426 -1.0237
 9725TIP3    H250591   3.037   0.871  12.835  0.2515  0.1190  0.8218
 9726TIP3   OH250592   6.514   6.933   1.767  0.1204 -0.6519  0.4158
 9726TIP3    H150593   6.484   7.024   1.762 -1.8476 -1.3479 -1.4943
 9726TIP3    H250594   6.518   6.914   1.861  0.7862  1.4606  0.8455
 9727TIP3   OH250595   1.271   0.054   0.448  0.9167 -0.0890  0.1238
 9727TIP3    H150596   1.362   0.029   0.466  0.8055 -0.8378 -0.3605
 9727TIP3    H250597   1.277   0.145   0.419  1.6188 -0.4243 -0.8168
 9728TIP3   OH250598   0.561   0.932  14.865  0.5418 -0.2624  0.4279
 9728TIP3    H150599   0.528   0.902  14.780  0.2932 -0.8975  0.7528
 9728TIP3    H250600   0.508   0.886  14.930 -0.3666  1.4478  0.9384
 9729TIP3   OH250601   5.859   2.272  15.266 -0.5841 -0.4180 -0.6935
 9729TIP3    H150602   5.953   2.273  15.250 -0.5317 -1.9487 -0.5836
 9729TIP3    H250603   5.829   2.188  15.231 -1.9851  0.2378 -1.1280
 9730TIP3   OH250604   4.790   6.819   1.623 -0.0147  0.5382  0.4409
 9730TIP3    H150605   4.835   6.737   1.643 -0.7551 -0.0361 -0.1935
 9730TIP3    H250606   4.773   6.814   1.529 -3.7286 -0.4346  1.1179
 9731TIP3   OH250607   5.976   2.565  15.398 -0.1442 -0.2594  0.0521
 9731TIP3    H150608   5.927   2.583  15.318  1.6114  1.9029 -0.6022
 9731TIP3    H250609   6.059   2.527  15.367  0.9014  1.3959  0.7475
 9732TIP3   OH250610   5.185   1.991   0.991 -0.9464  0.0043  0.4404
 9732TIP3    H150611   5.151   1.903   1.011 -1.3411  0.0973  0.1912
 9732TIP3    H250612   5.133   2.019   0.915 -0.7010  0.3823  0.4154
 9733TIP3   OH250613   4.054   6.092   2.142 -0.3312 -0.2950 -0.1147
 9733TIP3    H150614   3.994   6.133   2.205 -1.6299  1.1246 -2.2168
 9733TIP3    H250615   4.041   5.998   2.155 -1.1810 -0.0149  1.1764
 9734TIP3   OH250616   6.858   0.392  14.874  0.2185 -0.0450  0.5883
 9734TIP3    H150617   6.888   0.470  14.920 -0.1610  0.5791 -0.2031
 9734TIP3    H250618   6.937   0.358  14.831  0.5802 -0.6459  1.6918
 9735TIP3   OH250619   4.460   1.299   0.382 -0.0400 -0.3056 -0.2446
 9735TIP3    H150620   4.553   1.278   0.378 -0.4433 -2.0566 -1.1109
 9735TIP3    H250621   4.438   1.330   0.294 -0.5410 -1.1012 -0.4045
 9736TIP3   OH250622   5.116   1.234  15.382 -0.3146  0.0036  0.2673
 9736TIP3    H150623   5.046   1.268  15.327 -1.7266  0.0345  2.0191
 9736TIP3    H250624   5.118   1.140  15.362 -0.2692  0.1489 -0.4200
 9737TIP3   OH250625   1.963   3.053  15.333  0.0053 -0.2625  0.5364
 9737TIP3    H150626   2.015   3.028  15.410  0.0184 -1.7485  0.0604
 9737TIP3    H250627   2.028   3.062  15.263 -0.4097 -2.8094 -0.2283
 9738TIP3   OH250628   2.781   0.751  15.017  0.6738  0.1132  0.2773
 9738TIP3    H150629   2.806   0.835  14.979 -3.1679  0.8070 -0.9800
 9738TIP3    H250630   2.773   0.770  15.111  0.8783  0.8728  0.1492
 9739TIP3   OH250631   6.372   0.142   0.894  0.3339 -0.0521  0.1931
 9739TIP3    H150632   6.284   0.166   0.922  0.4151  1.3876 -0.7293
 9739TIP3    H250633   6.428   0.165   0.969  0.0686  0.1364  0.3359
 9740TIP3   OH250634   4.755   6.778   0.501 -0.2290 -0.0837  0.0145
 9740TIP3    H150635   4.729   6.775   0.409  2.2915  0.2238 -0.7260
 9740TIP3    H250636   4.830   6.719   0.508  0.4094  0.8606  1.6037
 9741TIP3   OH250637   4.586   0.222   0.019  0.1947  0.2361 -0.0512
 9741TIP3    H150638   4.573   0.138   0.063 -0.4692 -0.5664 -1.7139
 9741TIP3    H250639   4.612   0.198  -0.070  0.0768  1.7983 -0.5169
 9742TIP3   OH250640   5.815   1.311  13.390 -0.0680  0.9977 -0.0533
 9742TIP3    H150641   5.829   1.230  13.341  1.3940 -0.6996  3.0052
 9742TIP3    H250642   5.890   1.366  13.367  0.8988 -0.0013  0.6836
 9743TIP3   OH250643   4.054   0.603  14.901  0.4616  0.3186 -0.3139
 9743TIP3    H150644   4.069   0.695  14.922 -0.0268  0.4904 -0.7218
 9743TIP3    H250645   4.119   0.583  14.835  2.0843 -0.2545  1.4069
 9744TIP3   OH250646   4.749   1.180  13.770 -0.4900 -0.4735  0.0551
 9744TIP3    H150647   4.811   1.207  13.703  1.0131  0.2353  1.6738
 9744TIP3    H250648   4.751   1.084  13.769  2.0068 -0.4802  1.2645
 9745TIP3   OH250649   4.873   7.247   0.133 -0.1478 -0.0909 -0.4072
 9745TIP3    H150650   4.792   7.289   0.163 -0.2231  0.0212 -0.7677
 9745TIP3    H250651   4.902   7.195   0.208 -0.8162 -0.5158 -0.4380
 9746TIP3   OH250652   6.122   0.299  15.343 -0.0128 -0.6649 -0.6004
 9746TIP3    H150653   6.083   0.245  15.412 -0.4854  1.6893  1.0330
 9746TIP3    H250654   6.119   0.244  15.264 -1.0826 -2.7371  0.8539
 9747TIP3   OH250655   2.829   3.137  15.998 -0.2315 -0.5059 -0.7937
 9747TIP3    H150656   2.913   3.170  16.031 -0.5784 -2.9834  2.8126
 9747TIP3    H250657   2.765   3.170  16.061 -1.4839 -1.8754 -1.3362
 9748TIP3   OH250658   5.370   0.211   0.486 -0.0836 -0.4965  0.5427
 9748TIP3    H150659   5.436   0.196   0.418 -0.8725 -2.2205  0.1260
 9748TIP3    H250660   5.288   0.223   0.438 -0.3608 -0.0118  1.1268
 9749TIP3   OH250661   6.491   7.222   0.382 -0.3023  0.1280 -0.3366
 9749TIP3    H150662   6.548   7.176   0.443  0.6668  0.5447 -0.9170
 9749TIP3    H250663   6.402   7.201   0.411  0.1285 -1.8281 -0.3942
 9750TIP3   OH250664   6.118   3.201  14.501  0.4137  0.0155 -0.4159
 9750TIP3    H150665   6.198   3.240  14.465  0.2703  1.4605  0.7687
 9750TIP3    H250666   6.048   3.258  14.469  0.0945  0.1159  0.4553
 9751TIP3   OH250667   5.885   1.741  15.745  0.3661 -0.0970 -0.2473
 9751TIP3    H150668   5.934   1.740  15.663  0.3847 -1.0839 -0.2302
 9751TIP3    H250669   5.794   1.759  15.719  0.1921 -1.4116 -0.5958
 9752TIP3   OH250670   4.458   2.415   3.259  0.3836 -0.0625 -0.0847
 9752TIP3    H150671   4.369   2.446   3.275  0.5954  1.6450 -1.8576
 9752TIP3    H250672   4.512   2.466   3.318  0.3781  0.4381 -0.5045
 9753TIP3   OH250673   5.792   0.223   0.155  0.4090 -0.2813  0.4990
 9753TIP3    H150674   5.800   0.281   0.231 -0.5074  0.5532 -0.0339
 9753TIP3    H250675   5.883   0.206   0.129  0.6939  0.8048  0.7457
 9754TIP3   OH250676   0.158   1.090  14.788 -0.4423 -0.7305 -0.0965
 9754TIP3    H150677   0.252   1.099  14.800 -0.4293 -0.2302 -0.5808
 9754TIP3    H250678   0.140   1.128  14.702 -1.2815  0.4998  0.5919
 9755TIP3   OH250679   6.011   1.420  15.501  0.1936 -0.0995  0.3403
 9755TIP3    H150680   6.093   1.381  15.469 -0.5638 -2.2526  0.9208
 9755TIP3    H250681   5.968   1.349  15.549 -1.4821  1.3436  1.0294
 9756TIP3   OH250682   5.418   1.538  15.955  0.4233  0.6375  0.2578
 9756TIP3    H150683   5.425   1.517  15.862  0.1174  1.8609 -0.0460
 9756TIP3    H250684   5.388   1.457  15.996 -0.8910  0.5164 -0.9120
 9757TIP3   OH250685   6.595   1.341   0.051 -0.4276 -0.1023 -0.0526
 9757TIP3    H150686   6.544   1.415   0.084  0.9526  1.1117 -0.5918
 9757TIP3    H250687   6.686   1.361   0.075  0.0483 -1.2790 -0.8036
 9758TIP3   OH250688   4.341   1.438  14.948 -0.0514  0.1297 -0.6356
 9758TIP3    H150689   4.264   1.402  14.992 -0.3557 -0.0636 -1.3136
 9758TIP3    H250690   4.307   1.511  14.896  0.3391  0.5059 -0.3690
 9759TIP3   OH250691   1.625   4.623  14.801 -0.3046 -0.2355  0.6783
 9759TIP3    H150692   1.589   4.538  14.825  0.2534 -0.5496  0.3983
 9759TIP3    H250693   1.693   4.604  14.737 -1.5635  0.5706 -0.9357
 9760TIP3   OH250694   5.929   2.774   0.316  0.4827 -0.6692  0.1826
 9760TIP3    H150695   5.875   2.772   0.237  0.5451  0.5575  0.1030
 9760TIP3    H250696   5.930   2.683   0.346  0.6963 -1.2101 -1.3832
 9761TIP3   OH250697   2.224   3.591   0.581  0.2101 -0.6401  0.2304
 9761TIP3    H150698   2.297   3.642   0.545  0.0406 -0.0342  0.7371
 9761TIP3    H250699   2.266   3.514   0.620  0.6931  0.2766  1.5384
 9762TIP3   OH250700   1.521   3.366   0.910 -0.9548 -0.1819  0.3745
 9762TIP3    H150701   1.513   3.432   0.842  1.7894 -0.5783 -0.3905
 9762TIP3    H250702   1.538   3.416   0.990 -1.2400  0.1440  0.2302
 9763TIP3   OH250703   7.255   3.058  14.769 -0.3172 -0.4420 -0.2685
 9763TIP3    H150704   7.254   3.139  14.717  1.7730  0.2551  0.6949
 9763TIP3    H250705   7.205   3.080  14.848  0.9714  0.2062  0.3790
 9764TIP3   OH250706   1.016   4.824   1.438  0.0629  0.0707 -0.7398
 9764TIP3    H150707   0.927   4.835   1.403 -0.1724 -0.6343 -0.3800
 9764TIP3    H250708   1.019   4.733   1.467  0.6392  0.3268  0.0128
 9765TIP3   OH250709   0.802   2.938   1.105  0.6489 -0.0958 -0.1456
 9765TIP3    H150710   0.835   3.017   1.063  0.5265 -0.3478 -0.7114
 9765TIP3    H250711   0.755   2.891   1.036  0.6134 -0.6021  0.2192
 9766TIP3   OH250712   7.092   2.090  15.898 -0.1853  0.9990 -0.0985
 9766TIP3    H150713   7.005   2.078  15.860 -0.3271  1.3875  0.1042
 9766TIP3    H250714   7.087   2.173  15.944 -0.0852  0.4119  0.9747
 9767TIP3   OH250715   0.620   2.921   1.312 -0.1728  0.3365 -0.6499
 9767TIP3    H150716   0.546   2.968   1.273  0.5964  1.1755 -1.0982
 9767TIP3    H250717   0.695   2.946   1.259  0.6678  0.4925  0.6025
 9768TIP3   OH250718   3.150   2.027  14.475  0.6360  0.0048  0.3238
 9768TIP3    H150719   3.225   2.075  14.440  0.0161  0.5366 -0.2813
 9768TIP3    H250720   3.189   1.952  14.520  1.4301 -1.0816 -2.0775
 9769TIP3   OH250721   2.025   1.879   0.428 -0.0075  0.2644  0.3376
 9769TIP3    H150722   1.974   1.945   0.475  0.6559  0.3388  0.9432
 9769TIP3    H250723   2.009   1.798   0.477  1.4394  0.5246  1.2511
 9770TIP3   OH250724   7.071   2.349  15.018  0.0297  0.0696 -0.1909
 9770TIP3    H150725   7.022   2.428  15.039 -0.6716 -0.4549  0.1603
 9770TIP3    H250726   7.159   2.365  15.051  0.1385  1.0766 -0.9553
 9771TIP3   OH250727   2.032   4.627  15.270 -0.0776 -0.2398  0.0956
 9771TIP3    H150728   1.991   4.553  15.225  2.8666 -1.2128 -1.0864
 9771TIP3    H250729   2.068   4.590  15.350 -0.8974  0.4925  0.8194
 9772TIP3   OH250730   0.122   2.171   1.697 -0.1745  0.5219 -0.0059
 9772TIP3    H150731   0.068   2.095   1.717 -0.9284  0.3406 -2.5159
 9772TIP3    H250732   0.180   2.143   1.626 -0.0350  2.0721 -0.5422
 9773TIP3   OH250733   2.014   1.874   2.289 -0.3783  0.0161  0.1455
 9773TIP3    H150734   2.099   1.879   2.333 -0.0586 -2.2814 -0.1369
 9773TIP3    H250735   1.952   1.854   2.358 -0.2746 -0.9645 -0.0389
 9774TIP3   OH250736   1.343   4.316   0.359 -0.7601 -0.2207  0.7227
 9774TIP3    H150737   1.264   4.296   0.310 -0.1081 -0.5381 -0.2057
 9774TIP3    H250738   1.352   4.411   0.354  0.2098 -0.3883 -1.2117
 9775TIP3   OH250739   6.598   3.330  13.219 -0.4123 -0.0137  0.0330
 9775TIP3    H150740   6.650   3.320  13.298  1.4746  2.2125 -0.8648
 9775TIP3    H250741   6.625   3.257  13.164  0.3787  0.0408  0.3378
 9776TIP3   OH250742   0.923   5.112   2.154 -0.6379  0.2475  0.3289
 9776TIP3    H150743   0.970   5.099   2.237  0.3988  0.6118 -0.1867
 9776TIP3    H250744   0.853   5.047   2.156  0.5903 -1.1200  0.6242
 9777TIP3   OH250745   6.791   3.041  14.719  0.1501 -0.5597  0.7260
 9777TIP3    H150746   6.850   2.972  14.689  0.2757 -0.1227 -0.0228
 9777TIP3    H250747   6.782   3.025  14.813 -0.0189 -1.7513  0.5143
 9778TIP3   OH250748   2.430   3.864  15.891 -0.2504 -0.0499 -0.3927
 9778TIP3    H150749   2.481   3.873  15.811 -0.3946 -0.8171 -0.5710
 9778TIP3    H250750   2.382   3.782  15.880 -0.6246  0.0783  0.2752
 9779TIP3   OH250751   5.796   4.846   2.839  0.3341  0.4902  0.3392
 9779TIP3    H150752   5.725   4.866   2.900 -0.5795  1.6287 -1.0835
 9779TIP3    H250753   5.753   4.805   2.764  1.1572  1.3866 -0.6310
 9780TIP3   OH250754   2.568   3.710  14.772 -0.1530 -0.5360  0.0581
 9780TIP3    H150755   2.594   3.642  14.835 -1.4055  0.8142  2.0903
 9780TIP3    H250756   2.497   3.670  14.722 -0.1429 -1.0919  0.4829
 9781TIP3   OH250757   2.536   1.757  14.819  0.1167  0.0169 -0.2146
 9781TIP3    H150758   2.466   1.709  14.862 -0.6105  0.3203 -1.0396
 9781TIP3    H250759   2.549   1.711  14.736 -2.1414  2.5356 -2.0485
 9782TIP3   OH250760   2.166   2.525   0.262 -0.0531  0.0438 -0.0964
 9782TIP3    H150761   2.197   2.569   0.183  0.7928  0.9024  0.6959
 9782TIP3    H250762   2.243   2.522   0.319  0.2394 -3.4981 -0.5664
 9783TIP3   OH250763   0.987   3.449  14.930 -0.0351  0.1034 -0.5125
 9783TIP3    H150764   1.074   3.456  14.891  0.7257  0.8491  1.2609
 9783TIP3    H250765   0.949   3.370  14.892  1.8870 -0.8935 -0.3784
 9784TIP3   OH250766   0.916   2.082  15.767 -0.3900  0.1013  0.1153
 9784TIP3    H150767   0.965   2.143  15.823  0.3922  0.0626 -0.5242
 9784TIP3    H250768   0.909   2.002  15.819  1.8025 -0.5065 -0.4877
 9785TIP3   OH250769   0.184   3.894   0.335 -0.2204 -0.2918 -0.1922
 9785TIP3    H150770   0.230   3.936   0.407  0.0631  0.8466 -1.0353
 9785TIP3    H250771   0.242   3.824   0.307  0.8762  0.9449 -1.0513
 9786TIP3   OH250772   0.459   1.775   0.252  0.0134  0.1868 -0.0502
 9786TIP3    H150773   0.405   1.820   0.317  0.3441 -0.5308  0.7298
 9786TIP3    H250774   0.415   1.792   0.169  0.0276  1.7957  0.2513
 9787TIP3   OH250775   0.540   4.376  15.955  0.2114  0.3901 -0.4654
 9787TIP3    H150776   0.498   4.446  15.905 -1.0040 -1.7280 -2.5795
 9787TIP3    H250777   0.467   4.330  15.997  0.9770  0.2775  0.7542
 9788TIP3   OH250778   6.658   3.274  13.710 -0.0567  0.2516 -0.9050
 9788TIP3    H150779   6.711   3.196  13.696 -1.0070 -0.4650 -0.6166
 9788TIP3    H250780   6.715   3.336  13.755  0.4147 -0.6392 -0.2801
 9789TIP3   OH250781   2.430   4.509   1.171  0.2835  0.6420 -0.9244
 9789TIP3    H150782   2.368   4.481   1.104  0.5010 -0.7799 -0.5532
 9789TIP3    H250783   2.401   4.466   1.251  0.9252  1.0883 -0.4422
 9790TIP3   OH250784   0.167   4.838   0.506  0.7087 -0.6974  0.2881
 9790TIP3    H150785   0.163   4.792   0.590  0.0938 -1.8954 -0.3895
 9790TIP3    H250786   0.183   4.930   0.530 -0.7869 -0.7931  1.7773
 9791TIP3   OH250787   3.121   2.330   1.009  0.1447  0.2492  0.0399
 9791TIP3    H150788   3.214   2.336   0.985  0.5706  0.1724  1.6257
 9791TIP3    H250789   3.115   2.247   1.057 -1.2582 -1.0255 -2.2418
 9792TIP3   OH250790   2.103   0.221   0.848  0.4607 -0.0035  0.4081
 9792TIP3    H150791   2.064   0.269   0.921  2.0797  0.1101  1.2271
 9792TIP3    H250792   2.191   0.257   0.840  0.9482 -1.3246 -0.3828
 9793TIP3   OH250793   0.524   3.831   2.271  0.2700 -0.6051  0.2836
 9793TIP3    H150794   0.441   3.875   2.251  1.3476  0.2795 -2.4099
 9793TIP3    H250795   0.497   3.749   2.312 -1.9906 -0.6703 -1.2076
 9794TIP3   OH250796   1.642   2.848  13.549 -0.8701 -0.3445 -0.1063
 9794TIP3    H150797   1.646   2.923  13.609  0.2860  1.7119 -2.6654
 9794TIP3    H250798   1.548   2.829  13.542 -1.2437  1.3849 -0.0354
 9795TIP3   OH250799   1.905   2.536  14.436 -0.4441  0.7080  0.2689
 9795TIP3    H150800   1.935   2.568  14.521 -0.7698  0.7802  0.3589
 9795TIP3    H250801   1.837   2.472  14.457  0.5014 -0.3579  0.0982
 9796TIP3   OH250802   6.149   2.135   1.217  0.0040  0.0520 -0.1180
 9796TIP3    H150803   6.237   2.172   1.225 -0.2690  0.5653  0.5877
 9796TIP3    H250804   6.120   2.159   1.129  0.3558  0.3594 -0.1468
 9797TIP3   OH250805   2.554   2.370   1.441  0.0742 -0.0745  0.1864
 9797TIP3    H150806   2.493   2.418   1.496 -0.1321  0.3120 -0.3717
 9797TIP3    H250807   2.557   2.282   1.479 -0.0241  0.2015  0.8353
 9798TIP3   OH250808   1.781   4.950  15.819 -1.0746 -0.2112  0.1709
 9798TIP3    H150809   1.861   4.902  15.838 -1.5725 -1.0549  0.1431
 9798TIP3    H250810   1.743   4.905  15.743 -1.2636  0.5551 -0.1957
 9799TIP3   OH250811   0.866   3.283   0.050  0.5794 -0.3250 -0.4407
 9799TIP3    H150812   0.942   3.276  -0.008 -0.3320 -1.7233 -1.4848
 9799TIP3    H250813   0.805   3.216   0.018 -0.2843 -0.5492  1.5995
 9800TIP3   OH250814   0.379   4.831   0.293  0.7640  0.0185  0.3609
 9800TIP3    H150815   0.352   4.899   0.232 -1.4238 -1.9543 -0.9303
 9800TIP3    H250816   0.302   4.814   0.347  0.7524 -2.5942 -0.4401
 9801TIP3   OH250817   4.804   2.810   0.310 -0.4425 -0.5761 -0.4999
 9801TIP3    H150818   4.730   2.749   0.307  0.2284 -1.3615 -1.3738
 9801TIP3    H250819   4.800   2.857   0.227 -0.7084  0.2756 -0.0050
 9802TIP3   OH250820   4.345   0.765   0.106 -0.3407 -0.1439  0.0756
 9802TIP3    H150821   4.272   0.732   0.158 -0.5632  0.2609  0.0268
 9802TIP3    H250822   4.325   0.738   0.016 -0.0337 -0.7106  0.1728
 9803TIP3   OH250823   2.862   2.763  15.547 -0.0098 -0.4221  0.1215
 9803TIP3    H150824   2.779   2.805  15.527 -0.1819 -0.5630  0.5499
 9803TIP3    H250825   2.887   2.796  15.633  0.3021 -0.5013  0.0648
 9804TIP3   OH250826   4.693   2.322  15.793  0.1000 -0.3065  0.5343
 9804TIP3    H150827   4.769   2.285  15.748  0.7699  0.6026  0.9162
 9804TIP3    H250828   4.652   2.247  15.837 -0.3687 -1.1404 -1.2943
 9805TIP3   OH250829   3.047   3.009   2.917 -0.0673 -0.4631 -0.9887
 9805TIP3    H150830   3.062   3.088   2.970  0.4351 -2.0044  1.2001
 9805TIP3    H250831   3.095   3.026   2.835 -1.9687  2.5261 -1.5961
 9806TIP3   OH250832   4.311   3.073   2.019  0.1906  0.2488  0.5594
 9806TIP3    H150833   4.396   3.038   1.991 -0.2530  0.0662 -0.5547
 9806TIP3    H250834   4.316   3.167   1.998  0.2507  0.3090  0.8349
 9807TIP3   OH250835   3.116   0.355  15.763  1.2434  0.1960  0.1311
 9807TIP3    H150836   3.086   0.412  15.833  0.4980  0.7023 -0.5863
 9807TIP3    H250837   3.153   0.414  15.697  0.2973 -0.1225 -0.6978
 9808TIP3   OH250838   4.237   3.897  14.510 -0.8230  0.2389 -0.6159
 9808TIP3    H150839   4.278   3.971  14.465 -0.4707  0.4379  0.0310
 9808TIP3    H250840   4.212   3.837  14.439 -1.1965  1.0139 -1.1524
 9809TIP3   OH250841   1.156   1.281  14.760 -0.3671  0.5263  0.2816
 9809TIP3    H150842   1.156   1.360  14.706 -0.1116 -0.1492 -0.7141
 9809TIP3    H250843   1.075   1.236  14.737  0.1384 -0.1691 -0.1485
 9810TIP3   OH250844   2.555   1.871   1.761  0.6326 -0.2011 -0.2770
 9810TIP3    H150845   2.588   1.871   1.851  1.8556  2.4235 -0.6885
 9810TIP3    H250846   2.628   1.839   1.708  0.4268 -0.2940 -0.5055
 9811TIP3   OH250847   3.401   3.018   2.573 -0.0601 -0.0096  0.1864
 9811TIP3    H150848   3.390   2.994   2.482  0.0524  3.0774 -0.7007
 9811TIP3    H250849   3.477   2.968   2.603 -1.7460 -3.1394 -0.5541
 9812TIP3   OH250850   2.724   3.578  15.202  0.2367 -0.0051 -0.2638
 9812TIP3    H150851   2.767   3.654  15.161  1.8698 -1.1002 -0.6417
 9812TIP3    H250852   2.643   3.567  15.153  1.1042  0.0793 -1.7408
 9813TIP3   OH250853   5.368   3.169  15.054 -0.0495 -0.0099  0.3906
 9813TIP3    H150854   5.297   3.211  15.005  1.2946  0.3413 -1.3209
 9813TIP3    H250855   5.350   3.191  15.145 -1.2295  1.4649 -0.1715
 9814TIP3   OH250856   3.447   2.172   2.464  0.3633 -0.1273 -0.1817
 9814TIP3    H150857   3.522   2.131   2.421  1.3382  0.6561  0.7760
 9814TIP3    H250858   3.474   2.263   2.479 -0.7142  0.1197  0.3125
 9815TIP3   OH250859   2.556   4.598  13.991 -0.0499  0.5001  0.1794
 9815TIP3    H150860   2.622   4.636  14.049  1.4845  0.3557 -1.4483
 9815TIP3    H250861   2.532   4.515  14.034  3.5864 -1.2783 -1.0620
 9816TIP3   OH250862   2.250   2.921   2.139 -0.3694  0.2960  0.0099
 9816TIP3    H150863   2.317   2.962   2.084  1.5134 -2.6877 -0.0515
 9816TIP3    H250864   2.290   2.913   2.225 -1.2898  0.0381  0.4259
 9817TIP3   OH250865   2.286   4.418   0.550 -0.4533  0.6085 -0.2658
 9817TIP3    H150866   2.336   4.354   0.600  0.3159  0.7094 -0.8955
 9817TIP3    H250867   2.340   4.438   0.473 -0.9102  1.6213 -0.3494
 9818TIP3   OH250868   1.125   3.779  15.402  0.2527 -0.4724 -0.2640
 9818TIP3    H150869   1.200   3.724  15.380 -0.0269 -1.9397  2.2263
 9818TIP3    H250870   1.149   3.866  15.369  2.6650 -1.0943 -0.2718
 9819TIP3   OH250871   0.017   3.387   1.350  0.0161 -0.0261 -0.1671
 9819TIP3    H150872  -0.058   3.393   1.291 -0.1314  0.7066  0.0929
 9819TIP3    H250873   0.005   3.304   1.396  0.7233 -1.1548 -1.9744
 9820TIP3   OH250874   1.891   4.434  15.115 -0.1998  0.0951  0.0598
 9820TIP3    H150875   1.808   4.469  15.147  0.3545  2.1721 -0.6817
 9820TIP3    H250876   1.883   4.436  15.019  0.7019  0.3430 -0.0189
 9821TIP3   OH250877   4.402   2.394   1.936 -0.5291 -0.2881  0.1760
 9821TIP3    H150878   4.311   2.374   1.955 -1.9564  2.2757 -3.2400
 9821TIP3    H250879   4.417   2.356   1.850  1.0386  0.8234 -0.0668
 9822TIP3   OH250880   4.438   5.564  15.663 -0.1622 -0.6489 -0.2085
 9822TIP3    H150881   4.450   5.615  15.583 -1.1057 -0.1791 -0.0576
 9822TIP3    H250882   4.479   5.617  15.731 -1.4772  0.1148  0.0128
 9823TIP3   OH250883   2.096   2.519   1.016  0.4477  0.2179  0.2027
 9823TIP3    H150884   2.131   2.608   1.015  0.5523  0.1934  1.5063
 9823TIP3    H250885   2.005   2.530   1.043  0.3893 -0.0503  0.1110
 9824TIP3   OH250886   1.748   3.577  14.909  0.0880 -0.2071  0.0998
 9824TIP3    H150887   1.684   3.640  14.875  0.3321  0.0089  0.0440
 9824TIP3    H250888   1.715   3.492  14.880 -0.3499 -0.1247  0.3457
 9825TIP3   OH250889   1.434   2.219   2.043  0.6474  1.1404  0.1055
 9825TIP3    H150890   1.413   2.289   1.982 -1.6675  1.9231  1.7466
 9825TIP3    H250891   1.362   2.156   2.034  1.4054  0.2078  0.4465
 9826TIP3   OH250892   0.907   4.007   1.090 -0.1447 -0.0509 -0.2126
 9826TIP3    H150893   0.926   3.914   1.074 -0.4760  0.0725 -1.3805
 9826TIP3    H250894   0.875   4.039   1.006 -1.8095  0.6817  0.6782
 9827TIP3   OH250895   3.115   0.699   0.931 -0.2287 -0.5596  0.0828
 9827TIP3    H150896   3.121   0.792   0.910  0.9413 -1.4016 -3.4590
 9827TIP3    H250897   3.173   0.688   1.006  1.2967  1.1790 -0.8019
 9828TIP3   OH250898   2.620   4.611   1.015 -0.1139 -0.2561 -0.5728
 9828TIP3    H150899   2.568   4.613   0.934 -1.0533  0.6815  0.0469
 9828TIP3    H250900   2.560   4.577   1.081  0.0790  0.7734  0.1367
 9829TIP3   OH250901   0.988   1.718  14.280 -0.3950  0.3555 -0.4849
 9829TIP3    H150902   1.001   1.760  14.364  0.2715 -0.9051  0.0589
 9829TIP3    H250903   0.917   1.655  14.295 -0.8556  0.7328 -1.0776
 9830TIP3   OH250904   2.419   4.761   0.460  0.2380 -0.0671 -0.7515
 9830TIP3    H150905   2.381   4.805   0.384 -2.4651 -1.5471 -0.3159
 9830TIP3    H250906   2.434   4.671   0.431 -0.6387 -0.5967  0.3985
 9831TIP3   OH250907   4.417   4.503   0.168 -0.5356 -0.6301  0.3011
 9831TIP3    H150908   4.330   4.521   0.202 -0.9186 -1.5340 -0.1931
 9831TIP3    H250909   4.421   4.408   0.159  0.5219 -0.6081  0.3738
 9832TIP3   OH250910   1.156   4.965  15.509 -0.4032 -0.0446 -0.3703
 9832TIP3    H150911   1.102   4.900  15.555 -0.9060  0.3544 -0.3858
 9832TIP3    H250912   1.150   5.043  15.564 -0.8109  0.3634 -0.9819
 9833TIP3   OH250913   2.353   2.300  14.782 -0.0355  0.6331  0.0269
 9833TIP3    H150914   2.281   2.331  14.726 -1.0370  0.1493  1.0096
 9833TIP3    H250915   2.403   2.240  14.727 -0.2041  1.1965 -0.7600
 9834TIP3   OH250916   2.255   1.996   1.668  0.2282 -0.2344  0.5531
 9834TIP3    H150917   2.172   1.989   1.622  1.5240  0.7617 -2.0309
 9834TIP3    H250918   2.233   2.043   1.749 -2.2478 -2.9085  1.5319
 9835TIP3   OH250919   2.175   3.814  14.337  0.5171  0.2134 -0.8655
 9835TIP3    H150920   2.224   3.818  14.420  0.2982 -0.4281 -0.7002
 9835TIP3    H250921   2.152   3.722  14.327 -1.5562  0.6393 -0.4140
 9836TIP3   OH250922   2.228   4.410  15.281  0.3743  0.4071 -0.7221
 9836TIP3    H150923   2.153   4.372  15.236  0.6586 -0.3549 -0.5493
 9836TIP3    H250924   2.290   4.338  15.291  0.4711  0.6683  0.5515
 9837TIP3   OH250925   1.455   1.830  15.505  0.0956  0.6556 -0.2928
 9837TIP3    H150926   1.420   1.815  15.593  0.4234 -0.1555 -0.2886
 9837TIP3    H250927   1.453   1.925  15.493 -0.2546  0.7453  0.4634
 9838TIP3   OH250928   3.624   2.622  14.361 -0.1160  0.1257 -0.1296
 9838TIP3    H150929   3.546   2.674  14.341 -0.7828 -1.0199 -0.5754
 9838TIP3    H250930   3.609   2.589  14.450 -1.4648 -2.3983 -1.2530
 9839TIP3   OH250931   1.082   2.437   4.395 -0.8412  0.2594 -0.0761
 9839TIP3    H150932   1.153   2.459   4.454  0.0402  0.8787 -1.3380
 9839TIP3    H250933   1.073   2.513   4.338 -1.6244 -0.3382 -0.7825
 9840TIP3   OH250934   3.225   3.104   0.530 -0.2407 -0.4968 -0.1180
 9840TIP3    H150935   3.154   3.042   0.545  0.2196 -1.2215 -0.9234
 9840TIP3    H250936   3.247   3.137   0.617 -1.6793 -0.1401  0.1118
 9841TIP3   OH250937   4.704   2.130   0.254  0.4370  0.1842 -0.3098
 9841TIP3    H150938   4.789   2.139   0.298  0.2307  0.7654 -0.0276
 9841TIP3    H250939   4.656   2.067   0.308  1.0147 -0.8401 -0.9731
 9842TIP3   OH250940   3.831   4.520   0.711  0.5965 -0.2630 -0.8575
 9842TIP3    H150941   3.861   4.609   0.692  0.6015 -0.6902 -3.0069
 9842TIP3    H250942   3.795   4.525   0.799  2.2029  1.4586 -0.2790
 9843TIP3   OH250943   5.129   0.733   2.223 -0.3824  0.5467 -0.7780
 9843TIP3    H150944   5.082   0.793   2.282 -0.0034 -0.7041  0.8203
 9843TIP3    H250945   5.196   0.788   2.182  0.9150  0.9254  1.7702
 9844TIP3   OH250946   5.099   2.858   0.257  0.1082  0.0495 -0.4162
 9844TIP3    H150947   5.078   2.879   0.348 -1.4520 -2.3077 -0.1954
 9844TIP3    H250948   5.046   2.919   0.205  0.6228  1.0562  0.2304
 9845TIP3   OH250949   7.244   4.040  15.631  0.5767 -0.0492  0.5094
 9845TIP3    H150950   7.252   4.073  15.541  0.0528 -0.1850  0.4095
 9845TIP3    H250951   7.150   4.046  15.650  0.6787 -0.0772  1.0279
 9846TIP3   OH250952   5.417   3.868  15.009  0.0089 -0.3692 -0.3329
 9846TIP3    H150953   5.370   3.787  15.028 -2.0545  0.9486  0.3334
 9846TIP3    H250954   5.499   3.862  15.058 -2.4844  0.2719  4.1318
 9847TIP3   OH250955   4.138   1.544   0.316 -0.2926 -0.4833  0.4738
 9847TIP3    H150956   4.165   1.511   0.401 -0.0466 -1.4113  0.0367
 9847TIP3    H250957   4.078   1.616   0.337  3.2733  2.3137  1.4410
 9848TIP3   OH250958   2.974   2.697  13.106  0.4106 -0.1869  0.3496
 9848TIP3    H150959   2.961   2.641  13.183 -0.7290 -0.4107  0.0074
 9848TIP3    H250960   2.993   2.783  13.142 -1.2201 -0.0378  0.9087
 9849TIP3   OH250961   3.237   2.285   0.380  0.2496 -0.5099 -0.3241
 9849TIP3    H150962   3.319   2.310   0.336  1.4980 -1.1210  1.5673
 9849TIP3    H250963   3.224   2.352   0.447 -0.0645 -1.1451  0.2599
 9850TIP3   OH250964   5.059   2.794  15.009  0.1527 -0.1778  0.0458
 9850TIP3    H150965   5.054   2.769  14.916  2.5804  2.2433 -0.8047
 9850TIP3    H250966   5.121   2.731  15.047  0.6295  0.0101 -0.4139
 9851TIP3   OH250967   4.366   3.608   1.065  0.0230  0.1288 -0.6140
 9851TIP3    H150968   4.452   3.575   1.040  0.1380 -2.0489  2.3497
 9851TIP3    H250969   4.359   3.586   1.158 -2.8374  2.2732 -0.2742
 9852TIP3   OH250970   3.078   4.489   0.105  1.0617 -0.5594  0.1105
 9852TIP3    H150971   3.138   4.431   0.058  2.4994 -1.0784  2.5104
 9852TIP3    H250972   3.136   4.549   0.153 -0.3398 -0.5558  1.8289
 9853TIP3   OH250973   5.496   2.283   1.856 -0.0750  0.4633 -0.2178
 9853TIP3    H150974   5.478   2.267   1.949  1.6836 -0.0925  0.0459
 9853TIP3    H250975   5.444   2.361   1.834 -1.8267 -0.3866  0.7785
 9854TIP3   OH250976   3.856   0.961  11.535  0.9501  0.0425  0.5581
 9854TIP3    H150977   3.793   0.915  11.480 -1.1231  2.3715  0.9110
 9854TIP3    H250978   3.938   0.958  11.485  0.0802 -1.2938 -0.8229
 9855TIP3   OH250979   4.715   1.731  15.043 -0.2303 -0.1659  0.0781
 9855TIP3    H150980   4.763   1.769  15.117  0.9022 -1.0805 -0.1843
 9855TIP3    H250981   4.679   1.806  14.997  0.3547  0.4950  0.6778
 9856TIP3   OH250982   6.206   4.068  15.868  0.1694  0.2922 -0.0749
 9856TIP3    H150983   6.174   3.999  15.927 -0.3751 -0.0110 -0.7189
 9856TIP3    H250984   6.146   4.065  15.794  0.9777  0.5432 -0.7360
 9857TIP3   OH250985   5.251   4.296  15.836  0.0927  0.7246 -0.0175
 9857TIP3    H150986   5.190   4.264  15.769  1.2253 -2.9275  0.6005
 9857TIP3    H250987   5.210   4.271  15.919  1.7868 -0.5789  0.4413
 9858TIP3   OH250988   4.124   2.293  15.802 -0.2316  0.2037 -0.4454
 9858TIP3    H150989   4.086   2.258  15.721  0.2162  0.9394 -0.9773
 9858TIP3    H250990   4.123   2.219  15.863 -0.0263 -0.5069 -1.3078
 9859TIP3   OH250991   5.120   1.533  15.127  0.1795  0.2160  0.5326
 9859TIP3    H150992   5.164   1.457  15.089  1.1487  1.9756 -1.9793
 9859TIP3    H250993   5.027   1.517  15.114  0.3567 -0.6876  0.3519
 9860TIP3   OH250994   3.356   3.224   0.224  0.1929 -0.1955 -0.2489
 9860TIP3    H150995   3.271   3.199   0.261 -0.0320  1.4464  0.3792
 9860TIP3    H250996   3.410   3.243   0.301  1.3791 -1.9262 -0.6101
 9861TIP3   OH250997   1.718   3.697   1.241 -0.2265  0.0235  0.2322
 9861TIP3    H150998   1.772   3.643   1.299  1.4581  0.6913 -0.6738
 9861TIP3    H250999   1.746   3.672   1.153 -1.5876  0.2029 -0.2601
 9862TIP3   OH251000   5.566   0.584   0.188 -0.1182 -0.2142 -0.9737
 9862TIP3    H151001   5.494   0.646   0.178 -0.8033 -0.8004  0.2025
 9862TIP3    H251002   5.537   0.505   0.142 -0.4890 -0.6537  0.0040
 9863TIP3   OH251003   3.522   2.456   0.627 -0.3196 -0.1585  0.2775
 9863TIP3    H151004   3.517   2.383   0.689 -0.0421 -0.6491 -0.2735
 9863TIP3    H251005   3.468   2.429   0.553  1.1039 -0.5118 -0.6440
 9864TIP3   OH251006   3.991   3.044   0.805  0.0430 -0.2375  1.1013
 9864TIP3    H151007   3.982   3.132   0.770 -0.7279 -0.7232  0.0763
 9864TIP3    H251008   3.950   3.048   0.891  1.7326  0.8959  1.8771
 9865TIP3   OH251009   4.077   3.173   2.180  0.3265 -0.0345  0.1596
 9865TIP3    H151010   4.146   3.131   2.127  0.1382  1.3674 -1.2437
 9865TIP3    H251011   4.121   3.249   2.219 -0.0706  0.0697  0.3988
 9866TIP3   OH251012   6.381   3.538  15.459  0.0524  0.0150  0.5189
 9866TIP3    H151013   6.395   3.534  15.364  1.2100 -0.4348  0.7044
 9866TIP3    H251014   6.291   3.570  15.468 -0.2747 -0.5079 -0.7390
 9867TIP3   OH251015   2.909   0.430  14.684  0.5043 -0.1132  0.4110
 9867TIP3    H151016   2.837   0.446  14.622  0.3625  2.2488  1.1435
 9867TIP3    H251017   2.960   0.510  14.683  2.0136 -1.0303  1.4087
 9868TIP3   OH251018   2.675   3.747   2.710  0.0801 -0.1910  0.3237
 9868TIP3    H151019   2.717   3.808   2.770  3.0194 -2.1402  0.3306
 9868TIP3    H251020   2.713   3.661   2.732 -0.3271 -1.2706 -2.8939
 9869TIP3   OH251021   4.258   3.450   3.290 -0.7888  0.5410  0.7050
 9869TIP3    H151022   4.241   3.491   3.206  0.9769 -0.5659 -0.2219
 9869TIP3    H251023   4.171   3.430   3.325 -1.5417  1.2048 -0.7425
 9870TIP3   OH251024   2.710   2.495   2.189 -0.2514  0.0079  0.0442
 9870TIP3    H151025   2.628   2.537   2.164 -0.5614 -0.4551  0.3033
 9870TIP3    H251026   2.691   2.449   2.270  0.5474  0.8053  0.6914
 9871TIP3   OH251027   7.298   4.396   1.451  0.1356 -0.8661 -0.1450
 9871TIP3    H151028   7.307   4.301   1.445 -1.0022 -1.1834  2.4376
 9871TIP3    H251029   7.223   4.417   1.394  0.1400 -1.5614 -0.4086
 9872TIP3   OH251030   4.146   4.164  15.890 -0.4690 -0.2517 -0.0769
 9872TIP3    H151031   4.055   4.152  15.864 -1.7264 -3.0783  5.0520
 9872TIP3    H251032   4.145   4.238  15.951  0.4866 -0.8497  0.6881
 9873TIP3   OH251033   3.024   1.672   0.548  0.2495 -0.4557  0.6817
 9873TIP3    H151034   3.107   1.710   0.578  1.1772 -0.7365 -1.4690
 9873TIP3    H251035   2.961   1.743   0.558  0.7693 -0.1706  2.1268
 9874TIP3   OH251036   4.472   2.742   0.857 -0.3244  0.7005  0.6269
 9874TIP3    H151037   4.388   2.697   0.849  1.2151 -2.0883 -1.1077
 9874TIP3    H251038   4.462   2.821   0.804 -1.2825 -0.5792 -1.1900
 9875TIP3   OH251039   6.673   4.355   0.743  0.0324  0.5432 -0.2973
 9875TIP3    H151040   6.716   4.270   0.752 -0.9619 -0.0738 -1.3389
 9875TIP3    H251041   6.743   4.416   0.719  0.8079  0.1046  0.8091
 9876TIP3   OH251042   5.860   1.989  15.177  0.0797  0.0108  0.7891
 9876TIP3    H151043   5.870   1.963  15.269  1.3642  0.9859  0.9516
 9876TIP3    H251044   5.895   1.916  15.127  1.0194  0.2255  1.1338
 9877TIP3   OH251045   2.646   3.076   1.901 -0.0799  0.0403  0.4638
 9877TIP3    H151046   2.703   3.144   1.863  0.1013  0.2399  1.0878
 9877TIP3    H251047   2.705   3.024   1.955 -0.2309 -0.5964  0.0163
 9878TIP3   OH251048   3.206   2.566   2.565  0.1385 -0.5020  0.2630
 9878TIP3    H151049   3.164   2.520   2.492 -1.6413 -0.8369  1.4671
 9878TIP3    H251050   3.248   2.496   2.616 -2.1145 -0.7913  1.7975
 9879TIP3   OH251051   3.295   1.208   0.562 -0.4255  0.0623 -0.6593
 9879TIP3    H151052   3.312   1.301   0.573 -0.5027  0.0574 -0.5005
 9879TIP3    H251053   3.225   1.203   0.497 -0.6697  0.1277 -0.4014
 9880TIP3   OH251054   4.557   4.281  15.432 -0.2086  0.2434 -0.2269
 9880TIP3    H151055   4.476   4.233  15.413 -0.0075  0.6070 -2.0924
 9880TIP3    H251056   4.587   4.244  15.514 -1.2209 -1.3129 -0.5247
 9881TIP3   OH251057   6.386   4.922  15.505  0.2819  0.0989  0.1490
 9881TIP3    H151058   6.482   4.922  15.503  0.2609  0.2891 -0.8525
 9881TIP3    H251059   6.362   4.829  15.504  0.4295  0.0665 -1.1226
 9882TIP3   OH251060   4.615   2.113  15.989 -0.0015 -0.0230 -0.0645
 9882TIP3    H151061   4.626   2.019  15.973 -0.1606 -0.2200  0.9518
 9882TIP3    H251062   4.645   2.125  16.079  0.1229  0.9219 -0.2302
 9883TIP3   OH251063   0.797   2.950   0.255  0.2583  0.3241 -0.0668
 9883TIP3    H151064   0.888   2.978   0.260  0.8449 -1.6732  0.8505
 9883TIP3    H251065   0.767   2.948   0.346  0.2638 -2.0854 -0.1036
 9884TIP3   OH251066   6.605   2.989  14.367 -0.0302 -0.2399  0.0153
 9884TIP3    H151067   6.542   3.001  14.296 -0.4832 -0.6655  0.3404
 9884TIP3    H251068   6.672   2.931  14.331 -0.8091 -1.3066  0.2679
 9885TIP3   OH251069   0.364   1.895   1.814 -0.1172 -0.2383  0.7603
 9885TIP3    H151070   0.335   1.878   1.724 -0.5155 -2.2810  1.2475
 9885TIP3    H251071   0.287   1.876   1.868 -0.2002  1.9834  1.4914
 9886TIP3   OH251072   5.021   2.786   2.526  0.3304 -0.0468 -0.7069
 9886TIP3    H151073   5.099   2.770   2.579 -0.7598 -0.7815  0.7319
 9886TIP3    H251074   5.054   2.820   2.443  2.2268 -1.3023 -0.4893
 9887TIP3   OH251075   4.610   1.972  14.888 -0.0945  0.4606  0.5684
 9887TIP3    H151076   4.516   1.974  14.868  0.1623  0.5143 -0.6675
 9887TIP3    H251077   4.653   1.989  14.804  1.0594 -1.3766  0.7552
 9888TIP3   OH251078   4.225   0.241  15.001  0.3243 -0.4112  0.4761
 9888TIP3    H151079   4.195   0.204  14.918 -1.6587 -2.5186  2.0721
 9888TIP3    H251080   4.165   0.313  15.019 -0.4213 -1.1565  0.9927
 9889TIP3   OH251081   5.152   2.435  14.254 -0.5030 -0.4257 -0.3057
 9889TIP3    H151082   5.233   2.394  14.223 -1.3542 -0.8768 -2.0179
 9889TIP3    H251083   5.124   2.491  14.181 -0.5011  1.5608  1.1725
 9890TIP3   OH251084   5.691   1.515  15.081  0.3859 -0.2762  0.6940
 9890TIP3    H151085   5.723   1.497  15.169  0.0847 -1.4063  0.5798
 9890TIP3    H251086   5.599   1.489  15.084 -0.0679  1.2386  0.5047
 9891TIP3   OH251087   6.433   3.548   0.217  0.2489 -0.2830 -0.5231
 9891TIP3    H151088   6.465   3.637   0.230 -2.2125  0.3590  1.5754
 9891TIP3    H251089   6.433   3.536   0.122 -2.7882  3.2990 -1.0792
 9892TIP3   OH251090   4.756   2.828  13.832  0.2667  0.1917 -0.3775
 9892TIP3    H151091   4.835   2.814  13.780  0.2959  0.7533 -0.4875
 9892TIP3    H251092   4.786   2.876  13.909  0.1212 -0.0691 -0.1573
 9893TIP3   OH251093   5.348   4.959   0.384 -0.0472  0.0660  0.0652
 9893TIP3    H151094   5.326   5.035   0.330 -0.1404 -0.5870 -0.8166
 9893TIP3    H251095   5.377   4.997   0.467 -3.0063  0.9891  0.7094
 9894TIP3   OH251096   7.078   5.660  13.449 -0.9525  0.2482 -0.3523
 9894TIP3    H151097   7.108   5.746  13.417 -3.1537  1.3687  0.5412
 9894TIP3    H251098   7.115   5.598  13.387  1.1951  1.7706 -0.6778
 9895TIP3   OH251099   5.093   4.338   1.353  0.3112  0.4066 -0.1591
 9895TIP3    H151100   5.138   4.258   1.327  1.2127  0.5018  1.0544
 9895TIP3    H251101   5.098   4.395   1.276  2.1778  0.3691 -0.0889
 9896TIP3   OH251102   6.475   3.648   0.652 -0.1859  0.3263  0.4171
 9896TIP3    H151103   6.453   3.691   0.734  0.8095 -1.2951  1.5733
 9896TIP3    H251104   6.411   3.681   0.589  0.3142  3.1814  1.3314
 9897TIP3   OH251105   7.221   1.865  15.085 -0.1437 -0.0768  0.5012
 9897TIP3    H151106   7.162   1.804  15.128  0.3429 -0.0531  1.2054
 9897TIP3    H251107   7.216   1.945  15.137 -0.2603  0.2596 -0.0207
 9898TIP3   OH251108   5.129   1.091   0.562 -0.1074 -0.2855 -0.0637
 9898TIP3    H151109   5.185   1.066   0.489  1.3636 -1.6716  1.5110
 9898TIP3    H251110   5.042   1.056   0.540  0.3712 -0.8372 -1.0610
 9899TIP3   OH251111   4.714   1.282   0.005 -0.5915 -0.0269  0.2879
 9899TIP3    H151112   4.781   1.227  -0.035 -0.6306  1.1990 -1.5372
 9899TIP3    H251113   4.661   1.221   0.058  0.7318 -1.3257  0.1474
 9900TIP3   OH251114   5.540   1.095  15.948  0.2248  0.5418 -0.4396
 9900TIP3    H151115   5.611   1.141  15.992  1.8107 -0.9881 -1.3368
 9900TIP3    H251116   5.560   1.002  15.961 -1.8048  0.0957 -0.3938
 9901TIP3   OH251117   3.536   2.061   1.427  0.4400 -0.2587 -0.0696
 9901TIP3    H151118   3.601   2.131   1.425 -0.5898  0.6860 -0.7026
 9901TIP3    H251119   3.583   1.986   1.463  2.0297  0.2729 -1.0126
 9902TIP3   OH251120   0.214   2.683   0.317 -0.1730  0.1273  0.1885
 9902TIP3    H151121   0.177   2.750   0.374 -0.5972 -0.5110  0.6755
 9902TIP3    H251122   0.195   2.600   0.362  0.7934 -0.2842 -0.1531
 9903TIP3   OH251123   5.868   2.978  15.846  0.1215 -0.3297  0.7003
 9903TIP3    H151124   5.816   3.058  15.840  0.5030 -0.0665  0.9538
 9903TIP3    H251125   5.830   2.921  15.779  0.0622  0.1806  0.2945
 9904TIP3   OH251126   6.135   3.229   0.245  0.3377  0.1713 -0.0269
 9904TIP3    H151127   6.218   3.196   0.212 -0.9343 -1.7624 -1.4165
 9904TIP3    H251128   6.072   3.209   0.175 -1.6093  0.0357  1.7172
 9905TIP3   OH251129   5.473   1.786  14.476 -0.1005  0.6528  0.1673
 9905TIP3    H151130   5.392   1.751  14.438  0.5272  1.1807 -1.7008
 9905TIP3    H251131   5.534   1.712  14.476 -0.4859  0.3144  1.3710
 9906TIP3   OH251132   4.422   1.954   1.605  0.7726  0.1759 -0.4617
 9906TIP3    H151133   4.417   1.876   1.551  0.1859 -0.1488  0.0530
 9906TIP3    H251134   4.332   1.984   1.614  0.9539  0.7157 -0.3732
 9907TIP3   OH251135   5.418   1.942   0.240 -0.3951 -0.5800  0.5140
 9907TIP3    H151136   5.367   1.999   0.183  1.0028  1.2848  1.1063
 9907TIP3    H251137   5.355   1.912   0.306 -1.4254 -0.7453 -0.5361
 9908TIP3   OH251138   6.377   1.926   0.189  0.8021 -0.1861 -0.0437
 9908TIP3    H151139   6.349   1.857   0.250  1.3804  1.4891  2.1743
 9908TIP3    H251140   6.392   1.880   0.106  0.1226 -2.5452  1.1041
 9909TIP3   OH251141   0.063   3.714   2.171  0.5301 -0.3452 -0.6607
 9909TIP3    H151142   0.033   3.668   2.250 -1.2543  0.3214 -0.9113
 9909TIP3    H251143   0.105   3.793   2.205  1.8593 -1.1892 -0.3052
 9910TIP3   OH251144   7.145   0.248   1.140  0.1885  0.1457  0.2171
 9910TIP3    H151145   7.050   0.255   1.152  0.0145  0.6921 -1.3863
 9910TIP3    H251146   7.179   0.237   1.229 -1.2939  0.9099  0.9072
 9911TIP3   OH251147   4.584   2.648   0.336  0.1879  0.1344  0.2014
 9911TIP3    H151148   4.549   2.559   0.337  0.0138  0.1865 -0.5861
 9911TIP3    H251149   4.510   2.703   0.361  0.0049  0.1494 -0.3718
 9912TIP3   OH251150   6.662   6.786   0.786  0.3400  0.4493 -0.4433
 9912TIP3    H151151   6.751   6.809   0.815 -0.0895  0.5775  0.7983
 9912TIP3    H251152   6.655   6.692   0.805  0.6818  0.1437 -1.7969
 9913TIP3   OH251153   4.126   4.165  14.697 -0.4101 -0.6471  0.6306
 9913TIP3    H151154   4.036   4.186  14.723 -1.0238 -2.3083 -0.0672
 9913TIP3    H251155   4.150   4.089  14.750  1.2488  0.8566  2.0993
 9914TIP3   OH251156   6.380   3.231  15.924 -0.0654  0.1979  0.2278
 9914TIP3    H151157   6.476   3.226  15.923 -0.0963 -0.2517 -0.5301
 9914TIP3    H251158   6.357   3.219  16.016  0.5382 -0.9077  0.2492
 9915TIP3   OH251159   2.572   4.975   0.729 -0.0238  0.5122  0.4125
 9915TIP3    H151160   2.573   4.942   0.819  1.6931  0.0860  0.2531
 9915TIP3    H251161   2.585   5.070   0.738 -0.1114  0.5022  0.6361
 9916TIP3   OH251162   3.400   4.482  15.353  0.3220 -0.0976 -0.1849
 9916TIP3    H151163   3.379   4.421  15.282 -0.5615  1.1800 -1.0249
 9916TIP3    H251164   3.389   4.429  15.432  2.8978 -1.9851 -1.0217
 9917TIP3   OH251165   3.571   5.096  14.093  0.4609  0.1713 -0.1157
 9917TIP3    H151166   3.480   5.066  14.099  0.3564 -0.0533 -2.3009
 9917TIP3    H251167   3.564   5.187  14.066  0.8777  0.3697  0.4447
 9918TIP3   OH251168   0.533   6.174  14.295  0.2013 -0.2923  0.6040
 9918TIP3    H151169   0.582   6.115  14.352  0.2283  0.8367  1.7698
 9918TIP3    H251170   0.568   6.261  14.314  1.1191 -0.0300 -2.1094
 9919TIP3   OH251171   1.269   5.983   1.597 -0.1519 -0.0672  0.4331
 9919TIP3    H151172   1.339   6.007   1.536  0.2861 -2.8567 -0.2357
 9919TIP3    H251173   1.196   5.956   1.542 -0.7023 -0.0455  1.1383
 9920TIP3   OH251174   2.825   4.183  15.555  0.0046 -0.7794  0.9210
 9920TIP3    H151175   2.859   4.135  15.631 -0.1928 -1.5671  0.5261
 9920TIP3    H251176   2.829   4.275  15.580 -0.1728 -1.0403  1.9305
 9921TIP3   OH251177   7.263   2.696   1.174  0.2542 -0.4232  0.5649
 9921TIP3    H151178   7.223   2.779   1.151  0.5015 -0.1379  1.1483
 9921TIP3    H251179   7.342   2.720   1.223  1.0422 -0.9774 -0.4101
 9922TIP3   OH251180   2.408   4.865   0.191 -0.1366  0.2551  0.1729
 9922TIP3    H151181   2.435   4.956   0.203  0.5934  0.0606  0.0346
 9922TIP3    H251182   2.478   4.826   0.138 -0.5294 -0.3419  0.0887
 9923TIP3   OH251183   2.195   5.624   2.185  0.0978 -0.6516 -0.1839
 9923TIP3    H151184   2.187   5.646   2.278 -0.3491  1.1821 -0.6484
 9923TIP3    H251185   2.226   5.533   2.185 -0.5496 -0.8946  1.7476
 9924TIP3   OH251186   6.589   5.430   1.526  0.6706 -0.4724 -0.1720
 9924TIP3    H151187   6.560   5.471   1.444 -0.2526 -0.2862  0.2359
 9924TIP3    H251188   6.578   5.336   1.510  0.5016 -0.4374 -0.2695
 9925TIP3   OH251189   0.539   3.391   0.226  0.3573  0.3264 -0.1272
 9925TIP3    H151190   0.536   3.487   0.235  0.3794  0.2705  0.4596
 9925TIP3    H251191   0.561   3.377   0.134  0.3022  0.8877 -0.2297
 9926TIP3   OH251192   0.647   5.155  14.761 -0.7305  0.2846 -0.0690
 9926TIP3    H151193   0.636   5.061  14.776  1.4015 -0.0283 -0.3981
 9926TIP3    H251194   0.664   5.192  14.847  0.0103  0.1447 -0.1565
 9927TIP3   OH251195   1.860   5.654  14.261  0.0899  0.3032  0.2385
 9927TIP3    H151196   1.843   5.727  14.202  0.2064  0.0623 -0.0930
 9927TIP3    H251197   1.955   5.644  14.261  0.1185  0.5705  0.7889
 9928TIP3   OH251198   2.765   3.664  15.983 -0.5856 -0.1372 -0.2781
 9928TIP3    H151199   2.679   3.623  15.975  0.0104 -1.9086  1.7817
 9928TIP3    H251200   2.827   3.591  15.987  1.1091  1.1171 -2.3408
 9929TIP3   OH251201   1.456   5.462   0.146 -0.1667  0.2217 -0.3313
 9929TIP3    H151202   1.527   5.474   0.083  0.5498 -0.3994  0.3489
 9929TIP3    H251203   1.482   5.513   0.222 -0.8803  0.7142 -0.4138
 9930TIP3   OH251204   6.588   5.809  14.953 -0.0545 -0.1977  0.2985
 9930TIP3    H151205   6.555   5.844  15.036 -0.3156 -0.1735  0.1835
 9930TIP3    H251206   6.679   5.786  14.972  0.3032  1.0741  0.2265
 9931TIP3   OH251207   0.739   6.073   0.394 -0.0675 -0.1187 -0.0716
 9931TIP3    H151208   0.723   5.984   0.365  1.6840  0.2517 -2.3459
 9931TIP3    H251209   0.834   6.084   0.389 -0.4466  2.8406 -3.0407
 9932TIP3   OH251210   3.366   5.330   0.126 -0.4678 -0.1181 -0.2228
 9932TIP3    H151211   3.336   5.344   0.037  0.7529 -2.5292 -1.0525
 9932TIP3    H251212   3.288   5.344   0.181 -1.7315 -0.7855 -1.8338
 9933TIP3   OH251213   1.368   5.997  15.155  0.5342  0.4715  0.2663
 9933TIP3    H151214   1.375   6.092  15.152 -0.3500  0.5196 -0.3506
 9933TIP3    H251215   1.384   5.969  15.065 -0.5217  0.1308  0.1834
 9934TIP3   OH251216   1.518   4.329   1.463  0.0324 -0.3378 -0.1592
 9934TIP3    H151217   1.531   4.294   1.551 -0.5577 -0.3928 -0.0947
 9934TIP3    H251218   1.437   4.289   1.432 -1.0308  1.4798  0.1738
 9935TIP3   OH251219   3.958   4.755  14.953  0.7261 -0.3130  0.5147
 9935TIP3    H151220   3.937   4.847  14.969 -0.4599 -0.3932 -0.5768
 9935TIP3    H251221   3.905   4.707  15.017 -0.9619 -0.4026 -0.9359
 9936TIP3   OH251222   6.475   3.293  15.528  0.5002 -0.9201  0.2114
 9936TIP3    H151223   6.462   3.384  15.503 -0.4483 -1.6710 -2.1652
 9936TIP3    H251224   6.410   3.277  15.597 -2.0418 -0.8256 -2.0610
 9937TIP3   OH251225   3.042   3.539   4.234  0.4153  0.3265 -0.1962
 9937TIP3    H151226   3.070   3.466   4.179  0.5042 -0.2117  0.5539
 9937TIP3    H251227   2.974   3.582   4.183 -0.0929 -0.6670 -0.3823
 9938TIP3   OH251228   7.078   6.971   3.296  0.3311  0.2114 -0.3397
 9938TIP3    H151229   7.031   6.888   3.298 -0.2940  0.5488 -0.7815
 9938TIP3    H251230   7.016   7.035   3.331  0.7374  0.5276 -0.1881
 9939TIP3   OH251231   2.160   5.388  15.223  0.2589 -0.2830 -0.6791
 9939TIP3    H151232   2.108   5.402  15.302 -0.0980 -0.1259 -0.9412
 9939TIP3    H251233   2.211   5.468  15.213 -0.1776 -0.0455 -0.9731
 9940TIP3   OH251234   1.177   4.957  13.767 -0.1060 -0.3050  0.1855
 9940TIP3    H151235   1.157   4.864  13.753  1.6060 -0.7605  0.5632
 9940TIP3    H251236   1.189   4.992  13.678  1.3319 -0.9669  0.0942
 9941TIP3   OH251237   6.796   6.623  14.061  0.1280 -0.0620  0.2050
 9941TIP3    H151238   6.722   6.671  14.096 -0.6376  0.9607 -2.6331
 9941TIP3    H251239   6.871   6.682  14.073  0.2950 -0.6564  2.1165
 9942TIP3   OH251240   1.394   6.964  15.560  0.3486  0.0396  0.0013
 9942TIP3    H151241   1.448   6.930  15.631 -0.1095 -0.8693 -0.0729
 9942TIP3    H251242   1.305   6.937  15.583 -0.2323  2.2543  0.5798
 9943TIP3   OH251243   1.319   2.472  15.560  0.1204  0.4431 -0.2424
 9943TIP3    H151244   1.311   2.549  15.504  0.1900  0.2561 -0.5117
 9943TIP3    H251245   1.383   2.498  15.626  0.5220  0.4419 -0.6301
 9944TIP3   OH251246   6.413   5.097   1.805  0.3130  0.4005 -0.3311
 9944TIP3    H151247   6.335   5.136   1.846  0.1342 -0.3496  0.0443
 9944TIP3    H251248   6.486   5.135   1.855  0.1216 -0.0251  0.2829
 9945TIP3   OH251249   7.208   3.551  13.180  0.2422  0.0511 -0.6588
 9945TIP3    H151250   7.184   3.585  13.094  0.6100 -0.1470 -0.8396
 9945TIP3    H251251   7.276   3.611  13.211  0.8080 -0.4422 -0.9260
 9946TIP3   OH251252   0.921   5.373  13.658  0.4671  0.1893 -0.3159
 9946TIP3    H151253   1.004   5.327  13.657  0.7995  0.7451  0.7367
 9946TIP3    H251254   0.935   5.450  13.603  0.5728  0.1614 -0.3256
 9947TIP3   OH251255   0.623   4.596  15.053 -0.0503  0.1583 -0.4422
 9947TIP3    H151256   0.634   4.666  15.117  0.7622 -2.1663  2.0848
 9947TIP3    H251257   0.701   4.542  15.063 -1.7598 -2.4489 -0.5604
 9948TIP3   OH251258   0.208   6.926  15.919  0.0245  0.4144  0.0876
 9948TIP3    H151259   0.236   6.963  16.003  2.4609  1.7339 -1.2816
 9948TIP3    H251260   0.216   6.998  15.856 -2.1457 -0.4503 -1.2490
 9949TIP3   OH251261   5.753   5.165   0.136  0.9070 -0.1917  0.2392
 9949TIP3    H151262   5.664   5.130   0.136  0.4697  0.8318 -1.8055
 9949TIP3    H251263   5.800   5.111   0.199 -0.9674 -1.2377  0.7859
 9950TIP3   OH251264   1.444   4.973   0.966  0.1985  0.1850  0.1169
 9950TIP3    H151265   1.371   4.960   0.905  0.7136 -1.6288 -0.1360
 9950TIP3    H251266   1.520   4.985   0.910  0.3921  0.2812  0.3987
 9951TIP3   OH251267   1.383   4.689  15.487 -0.2396 -0.0655  0.1609
 9951TIP3    H151268   1.342   4.652  15.565  0.4671 -1.2208  0.0097
 9951TIP3    H251269   1.312   4.732  15.440 -0.9668 -0.6754  0.6891
 9952TIP3   OH251270   0.675   5.342  15.530 -0.2620  0.4186  0.5781
 9952TIP3    H151271   0.652   5.287  15.605  1.0864 -1.0667 -0.0582
 9952TIP3    H251272   0.727   5.413  15.567  1.0621 -0.7336  0.9826
 9953TIP3   OH251273   1.748   5.571   1.533 -0.4572 -0.7120  0.0865
 9953TIP3    H151274   1.828   5.524   1.511 -0.3301 -1.1943  1.5360
 9953TIP3    H251275   1.775   5.663   1.540 -0.3280 -0.6776 -0.8861
 9954TIP3   OH251276   1.803   6.941  15.193  0.1571  0.0454 -0.5220
 9954TIP3    H151277   1.762   7.002  15.254 -0.2336  1.5037 -2.2110
 9954TIP3    H251278   1.876   6.903  15.242 -0.1087  1.2423  0.8198
 9955TIP3   OH251279   7.164   4.589   0.116  0.0754 -0.0927  0.0818
 9955TIP3    H151280   7.205   4.655   0.172  1.1867 -0.9540  0.3200
 9955TIP3    H251281   7.188   4.613   0.027 -0.0711  0.1882  0.1176
 9956TIP3   OH251282   2.829   2.906  15.773  1.2120  0.4505 -0.3082
 9956TIP3    H151283   2.739   2.925  15.799  1.7342  1.6113  0.7056
 9956TIP3    H251284   2.865   2.857  15.847  2.3778  2.8219  0.7463
 9957TIP3   OH251285   4.079   3.625  15.927  0.0741 -0.4052  0.5029
 9957TIP3    H151286   4.075   3.703  15.983 -1.1077 -0.0852 -0.0203
 9957TIP3    H251287   4.053   3.656  15.841 -2.9463 -1.8482  0.8163
 9958TIP3   OH251288   2.565   2.870  15.863  0.4112 -0.5290  0.3894
 9958TIP3    H151289   2.500   2.871  15.933  0.1857  1.2005  0.1848
 9958TIP3    H251290   2.561   2.782  15.826 -2.5051 -0.1449 -0.2660
 9959TIP3   OH251291   3.815   4.296  15.030 -0.6520  0.2576 -0.1681
 9959TIP3    H151292   3.736   4.350  15.025 -1.3948 -0.7692  0.3678
 9959TIP3    H251293   3.801   4.239  15.106 -0.4521 -1.5830 -1.4759
 9960TIP3   OH251294   4.131   5.568  12.430 -0.4153  0.3948  0.4546
 9960TIP3    H151295   4.127   5.649  12.378  1.1628 -0.4947 -1.0766
 9960TIP3    H251296   4.048   5.524  12.411 -0.1743  0.4395 -0.7435
 9961TIP3   OH251297   3.321   4.985  14.139  0.2147 -0.6506  0.1446
 9961TIP3    H151298   3.269   4.997  14.060  1.7939 -2.4786 -1.2131
 9961TIP3    H251299   3.303   4.895  14.167  0.7663 -0.4883  1.0456
 9962TIP3   OH251300   1.723   6.092  14.898  0.1320  0.5058 -0.0300
 9962TIP3    H151301   1.673   6.010  14.894  1.3520 -0.2341 -0.3387
 9962TIP3    H251302   1.675   6.152  14.841  0.0223 -0.4299 -0.9371
 9963TIP3   OH251303   2.963   4.049  15.354  0.2037 -0.4363 -0.6499
 9963TIP3    H151304   2.884   3.994  15.353  0.2258 -0.4719 -0.0583
 9963TIP3    H251305   2.951   4.109  15.427  1.1635 -1.0850  0.0576
 9964TIP3   OH251306   1.833   4.339   0.423  0.0334  0.3144  0.2570
 9964TIP3    H151307   1.919   4.297   0.424  0.2999  0.8562  0.6768
 9964TIP3    H251308   1.831   4.387   0.341  0.1445  0.3177  0.2554
 9965TIP3   OH251309   3.251   6.422   2.369  0.2508  0.2206  0.4673
 9965TIP3    H151310   3.265   6.504   2.322  1.4764  0.0036  0.4347
 9965TIP3    H251311   3.277   6.440   2.459  2.7976 -0.7543 -0.0275
 9966TIP3   OH251312   5.744   4.872   0.244 -0.1861  0.0589 -0.3751
 9966TIP3    H151313   5.691   4.895   0.168 -0.2434 -0.6235 -0.5459
 9966TIP3    H251314   5.833   4.899   0.220  0.2246 -2.2838 -1.6586
 9967TIP3   OH251315   4.116   4.734  15.396 -0.2381  0.0083 -0.2519
 9967TIP3    H151316   4.050   4.789  15.438 -0.3752 -1.5215  1.5832
 9967TIP3    H251317   4.139   4.669  15.462  2.3612 -0.1165 -1.2411
 9968TIP3   OH251318   3.410   6.678   0.324  0.2133  0.8726 -0.1993
 9968TIP3    H151319   3.458   6.738   0.268  2.1113  0.0479  0.5099
 9968TIP3    H251320   3.369   6.616   0.263  1.6370  0.4280 -0.7189
 9969TIP3   OH251321   1.632   4.904  15.198 -0.3829  0.2044  0.0002
 9969TIP3    H151322   1.710   4.877  15.246 -0.5835  1.8136  1.2841
 9969TIP3    H251323   1.578   4.949  15.263 -3.9139 -3.6643 -0.0011
 9970TIP3   OH251324   4.015   2.993   0.374 -0.3738  0.5710 -0.4688
 9970TIP3    H151325   4.061   2.953   0.447 -3.2070  1.0482  1.6930
 9970TIP3    H251326   4.050   3.082   0.369  1.1993 -0.0722 -0.9550
 9971TIP3   OH251327   3.324   5.815   2.201 -0.4166  0.0464  0.1838
 9971TIP3    H151328   3.392   5.774   2.255  0.9732  2.1436  0.0719
 9971TIP3    H251329   3.322   5.762   2.121 -0.1377 -1.0646  0.9052
 9972TIP3   OH251330   1.778   5.169  14.703  0.4561  0.1111  0.0271
 9972TIP3    H151331   1.771   5.122  14.620  0.3467 -1.0267  0.6657
 9972TIP3    H251332   1.841   5.118  14.754 -1.7253 -0.9120  1.7643
 9973TIP3   OH251333   3.578   3.027   0.166  0.4534  0.7534  0.1769
 9973TIP3    H151334   3.533   3.062   0.242 -1.1869 -1.5293  0.3164
 9973TIP3    H251335   3.512   3.026   0.097  1.2466  0.5692 -0.5938
 9974TIP3   OH251336   5.193   3.438  15.182 -0.0056  0.5626 -0.5576
 9974TIP3    H151337   5.213   3.441  15.089 -2.4338  1.2308 -1.0871
 9974TIP3    H251338   5.116   3.382  15.188  0.3108  0.2829  1.0811
 9975TIP3   OH251339   3.227   4.359  15.894 -0.2895  0.0996 -0.0894
 9975TIP3    H151340   3.309   4.356  15.845 -1.5372  1.5328 -2.3225
 9975TIP3    H251341   3.162   4.320  15.835 -1.4393  0.0260  1.1954
 9976TIP3   OH251342   3.557   5.295  14.384  0.5381 -0.6443 -0.0245
 9976TIP3    H151343   3.650   5.292  14.406  0.7581  1.8883 -0.4818
 9976TIP3    H251344   3.514   5.319  14.466  0.4821  0.0750 -0.2627
 9977TIP3   OH251345   2.402   4.164  14.450 -0.3935 -0.1267 -0.2268
 9977TIP3    H151346   2.459   4.088  14.460 -1.6332 -0.9864  0.3930
 9977TIP3    H251347   2.461   4.239  14.458  0.4987 -0.9908  1.5393
 9978TIP3   OH251348   1.355   5.854  15.383  0.1055  0.6260  0.1676
 9978TIP3    H151349   1.290   5.792  15.352 -0.3970  0.6867  1.0821
 9978TIP3    H251350   1.359   5.921  15.315  0.4830 -0.2651 -0.7125
 9979TIP3   OH251351   7.001   4.829   0.228 -0.2961 -0.1753  0.3126
 9979TIP3    H151352   6.907   4.846   0.233 -0.2898  0.2136 -0.6957
 9979TIP3    H251353   7.035   4.900   0.172  0.5773 -0.3581  0.6052
 9980TIP3   OH251354   3.145   6.879  14.297  0.2962 -0.0582 -0.1099
 9980TIP3    H151355   3.070   6.832  14.334  0.0146  0.0564 -0.5329
 9980TIP3    H251356   3.174   6.937  14.367 -1.6813  1.8647 -0.8414
 9981TIP3   OH251357   3.926   2.889  15.740  0.1635 -0.0730 -1.0714
 9981TIP3    H151358   3.992   2.946  15.780 -0.3015 -1.8195  2.3635
 9981TIP3    H251359   3.971   2.805  15.729 -0.8622 -0.6980 -0.5822
 9982TIP3   OH251360   0.224   6.274  14.696  0.4922 -0.2197  0.1108
 9982TIP3    H151361   0.233   6.313  14.609  0.3615  1.1389  0.6987
 9982TIP3    H251362   0.146   6.315  14.733  2.0182  1.1422  1.8740
 9983TIP3   OH251363   4.292   4.494  15.931  0.3835  0.0806 -0.1880
 9983TIP3    H151364   4.329   4.519  15.846  0.9646 -0.9943 -0.2663
 9983TIP3    H251365   4.368   4.489  15.990 -0.0035  0.7201  0.3650
 9984TIP3   OH251366   2.658   5.532  14.806 -0.0577 -0.1421 -0.7191
 9984TIP3    H151367   2.711   5.518  14.885  0.2048 -0.6288 -0.9842
 9984TIP3    H251368   2.568   5.530  14.838  0.0884  3.9210  0.2935
 9985TIP3   OH251369   2.442   5.146  14.184  0.1139  0.3578 -0.2239
 9985TIP3    H151370   2.492   5.213  14.138  0.1034  0.0109 -0.7438
 9985TIP3    H251371   2.388   5.105  14.115 -1.7754  1.5342  0.5076
 9986TIP3   OH251372   4.608   4.726   0.275  0.0931  0.5659  0.3316
 9986TIP3    H151373   4.542   4.794   0.259 -0.0851  0.6121  1.2124
 9986TIP3    H251374   4.566   4.645   0.247  0.2860  0.8089 -0.6795
 9987TIP3   OH251375   3.262   5.562   1.142 -0.3011  0.1483  0.5000
 9987TIP3    H151376   3.318   5.506   1.089  1.1562  0.4403  1.6756
 9987TIP3    H251377   3.194   5.592   1.082  0.2055 -1.0566 -0.7020
 9988TIP3   OH251378   2.424   4.249   0.761  0.1541 -0.1547  0.2260
 9988TIP3    H151379   2.370   4.170   0.755 -0.6427  0.4643 -0.8284
 9988TIP3    H251380   2.438   4.261   0.854  0.7749 -1.8848  0.3725
 9989TIP3   OH251381   3.661   4.182  14.033  0.0387  0.5754 -0.2858
 9989TIP3    H151382   3.748   4.155  14.004  0.8106  2.2757  0.3180
 9989TIP3    H251383   3.660   4.277  14.020 -0.7163  0.9665  2.2038
 9990TIP3   OH251384   4.360   6.125  14.232 -0.1869 -0.0645 -0.1475
 9990TIP3    H151385   4.270   6.091  14.236  0.1597 -0.8478  1.0731
 9990TIP3    H251386   4.372   6.170  14.315  0.2776  0.7505 -0.6511
 9991TIP3   OH251387   3.274   4.160  14.668  0.0741  0.4869 -0.4491
 9991TIP3    H151388   3.319   4.244  14.660  0.3811  0.3798  0.1298
 9991TIP3    H251389   3.237   4.162  14.756  0.3510 -0.1209 -0.3218
 9992TIP3   OH251390   4.303   5.995  13.980 -0.2677 -0.1534  0.3025
 9992TIP3    H151391   4.366   6.027  14.044  0.9851  0.2293 -1.1011
 9992TIP3    H251392   4.227   6.053  13.990  0.3413  0.5856  0.6957
 9993TIP3   OH251393   1.678   3.655  15.981 -0.2086 -0.0438  0.2227
 9993TIP3    H151394   1.742   3.710  16.026  0.9142 -0.1786 -1.2036
 9993TIP3    H251395   1.609   3.716  15.954  1.3059  0.8193 -1.8706
 9994TIP3   OH251396   2.258   4.062  15.240 -0.3207  0.0261 -0.8038
 9994TIP3    H151397   2.179   4.114  15.227 -1.1244 -0.6204  1.3276
 9994TIP3    H251398   2.324   4.126  15.269 -0.5385  0.2637 -0.8329
 9995TIP3   OH251399   2.684   5.716   0.618 -0.2233 -0.6336 -0.6928
 9995TIP3    H151400   2.634   5.795   0.635 -0.0691 -0.7686  0.4226
 9995TIP3    H251401   2.756   5.744   0.561  0.1643  0.1374  0.1657
 9996TIP3   OH251402   1.867   6.012  15.531  0.3439  0.2928 -0.2023
 9996TIP3    H151403   1.931   6.084  15.533 -0.0440  0.7714 -3.4791
 9996TIP3    H251404   1.851   5.997  15.438 -0.5107 -3.2430  0.4641
 9997TIP3   OH251405   6.285   3.893  15.287  0.0529  0.5311  0.2829
 9997TIP3    H151406   6.377   3.909  15.310 -0.2128  0.0002  1.7782
 9997TIP3    H251407   6.289   3.827  15.218  0.7873  0.1420  0.6878
 9998TIP3   OH251408   6.411   5.258  14.836 -0.2266 -0.3919  0.4578
 9998TIP3    H151409   6.341   5.212  14.789  0.5180 -1.4001  0.3115
 9998TIP3    H251410   6.380   5.262  14.926 -1.0992  0.4149  0.1228
 9999TIP3   OH251411   6.392   4.889   0.224  0.0004 -0.0571  0.2928
 9999TIP3    H151412   6.442   4.921   0.149  3.0956 -2.0272  1.4531
 9999TIP3    H251413   6.323   4.835   0.186  2.8254 -2.7826 -1.1210
10000TIP3   OH251414   5.047   4.788   1.378 -0.5338  0.0511  0.0231
10000TIP3    H151415   5.068   4.881   1.378 -2.1702  0.4412 -0.8308
10000TIP3    H251416   4.993   4.776   1.457 -0.2835 -0.1737  0.1591
10001TIP3   OH251417   4.556   5.743  14.690 -0.4606  0.0835  0.0749
10001TIP3    H151418   4.519   5.716  14.606  2.0333 -0.3207 -0.9264
10001TIP3    H251419   4.562   5.839  14.683 -0.0225  0.0292 -0.3106
10002TIP3   OH251420   6.217   3.687  14.778 -0.2978 -0.3906 -0.7803
10002TIP3    H151421   6.242   3.601  14.746 -0.3093 -0.8940  0.5411
10002TIP3    H251422   6.234   3.746  14.704  2.5447 -1.0602 -0.6915
10003TIP3   OH251423   6.672   4.474  14.360  0.2774  0.3668 -0.1884
10003TIP3    H151424   6.703   4.565  14.361  0.9523  0.1573 -1.0619
10003TIP3    H251425   6.581   4.480  14.387 -0.2350  1.5338 -2.0265
10004TIP3   OH251426   4.363   4.832  15.820  0.8271  0.7311  0.1074
10004TIP3    H151427   4.413   4.751  15.816 -1.8140 -0.9343 -1.0644
10004TIP3    H251428   4.374   4.872  15.734  2.6467  2.0024  0.8930
10005TIP3   OH251429   3.266   3.991   0.642  0.0745  0.2729  0.7608
10005TIP3    H151430   3.311   3.971   0.724 -0.0538  0.1658  0.8067
10005TIP3    H251431   3.287   3.917   0.585  0.9395  0.8113  0.3772
10006TIP3   OH251432   1.252   5.216  12.421  0.0669 -0.8846 -0.7711
10006TIP3    H151433   1.207   5.232  12.504  0.6059 -2.6297 -0.1391
10006TIP3    H251434   1.289   5.302  12.398  0.0540 -0.4225  0.8607
10007TIP3   OH251435   4.151   3.328  13.615 -0.0938 -0.1880  0.2324
10007TIP3    H151436   4.170   3.235  13.630 -0.5453 -0.2738  0.2776
10007TIP3    H251437   4.208   3.374  13.677 -0.2330 -0.4551  0.5628
10008TIP3   OH251438   5.943   3.047  13.814  0.7010 -0.1720  0.2029
10008TIP3    H151439   5.856   3.074  13.843  0.6718 -1.7489  1.6886
10008TIP3    H251440   5.966   3.110  13.746 -2.0180 -0.3386 -0.9535
10009TIP3   OH251441   6.335   3.646  13.425 -0.3537 -0.0159  0.3772
10009TIP3    H151442   6.385   3.710  13.374 -1.3781  0.1473 -0.4480
10009TIP3    H251443   6.249   3.686  13.436 -1.0785 -1.3426 -0.3537
10010TIP3   OH251444   6.585   6.300  15.470 -0.1659  0.0720  0.1137
10010TIP3    H151445   6.615   6.389  15.451  1.0950 -0.2532  0.5299
10010TIP3    H251446   6.573   6.299  15.565 -0.6418 -0.0713  0.0537
10011TIP3   OH251447   6.216   4.707  15.834  0.0284 -0.3985 -0.4560
10011TIP3    H151448   6.301   4.676  15.866  0.0011  0.0434  0.0630
10011TIP3    H251449   6.171   4.627  15.806  0.5440 -0.6568 -0.5709
10012TIP3   OH251450   7.028   3.647  15.655  0.1794  0.1280  0.1359
10012TIP3    H151451   7.095   3.704  15.693 -0.6176  0.4332  1.0850
10012TIP3    H251452   7.022   3.573  15.715  0.2921 -0.3324 -0.4144
10013TIP3   OH251453   3.835   4.859  15.469 -0.1540  0.3411  0.3002
10013TIP3    H151454   3.892   4.928  15.434  0.2409  0.0680  0.3976
10013TIP3    H251455   3.823   4.882  15.561 -0.4937  0.5940  0.1924
10014TIP3   OH251456   3.582   4.349   0.979  0.1265  0.0177  0.1639
10014TIP3    H151457   3.593   4.442   0.997  1.9393 -0.1943  0.2875
10014TIP3    H251458   3.501   4.343   0.930  0.4378  1.7750 -0.5902
10015TIP3   OH251459   3.305   5.288   1.624 -0.9838 -0.3174 -0.4323
10015TIP3    H151460   3.309   5.347   1.699 -2.6800 -0.9807  0.2215
10015TIP3    H251461   3.218   5.304   1.586 -0.6571 -0.9404 -1.4611
10016TIP3   OH251462   5.106   5.767   1.494 -0.7280 -0.0045 -0.2469
10016TIP3    H151463   5.031   5.806   1.448 -2.2184  0.1017  2.1584
10016TIP3    H251464   5.131   5.833   1.558 -0.1203 -1.0398  0.5856
10017TIP3   OH251465   2.784   5.869  15.350 -0.0413 -0.7727 -0.0380
10017TIP3    H151466   2.818   5.826  15.272 -1.0895  1.4897 -1.7892
10017TIP3    H251467   2.697   5.829  15.363  0.1754 -1.2203  0.0472
10018TIP3   OH251468   5.315   4.989  14.203  0.7693 -0.4165  0.5390
10018TIP3    H151469   5.377   5.062  14.208  2.0382 -1.4431  0.2607
10018TIP3    H251470   5.300   4.977  14.110 -0.9825  0.7420  0.6537
10019TIP3   OH251471   3.348   4.499   0.804 -0.0322  0.0292  0.1159
10019TIP3    H151472   3.322   4.431   0.741  0.6304 -0.3616  0.2576
10019TIP3    H251473   3.376   4.572   0.749  0.7856 -0.4039 -0.0516
10020TIP3   OH251474   3.517   5.421   0.663 -0.2585 -0.1991  0.3737
10020TIP3    H151475   3.514   5.443   0.756  0.5424 -1.8022  0.8011
10020TIP3    H251476   3.552   5.499   0.620 -0.3505  0.4352  1.4567
10021TIP3   OH251477   6.186   4.714  15.214 -0.1749 -0.1948 -0.0004
10021TIP3    H151478   6.143   4.777  15.272 -0.1171 -1.5113  1.5115
10021TIP3    H251479   6.262   4.761  15.179 -0.3939  0.7137  0.7387
10022TIP3   OH251480   5.347   5.050  13.906  0.4937 -0.2396 -0.7802
10022TIP3    H151481   5.262   5.049  13.861  0.5180 -0.7449 -0.8194
10022TIP3    H251482   5.408   5.010  13.844  0.6936 -0.1716 -0.6285
10023TIP3   OH251483   4.068   5.567   0.408 -0.4573  0.2434 -0.5444
10023TIP3    H151484   4.085   5.491   0.352 -2.9563 -0.9343  0.2128
10023TIP3    H251485   3.980   5.552   0.442 -0.0384  2.2803  1.5622
10024TIP3   OH251486   3.138   6.559  13.594  0.4057 -0.2252  0.0359
10024TIP3    H151487   3.072   6.625  13.577  1.2548  0.5398 -0.3145
10024TIP3    H251488   3.090   6.486  13.634 -0.4099  0.9113  1.1508
10025TIP3   OH251489   4.627   7.033  15.239  0.1859  0.0818  1.2365
10025TIP3    H151490   4.698   7.091  15.211 -0.1367  1.5957  3.4382
10025TIP3    H251491   4.557   7.049  15.175  2.0707 -2.0668 -1.4720
10026TIP3   OH251492   4.203   3.533  14.145 -0.4451  0.4550  0.2686
10026TIP3    H151493   4.276   3.531  14.207 -0.9731  1.4416  0.9436
10026TIP3    H251494   4.243   3.548  14.060  0.3467 -1.4796  0.2736
10027TIP3   OH251495   5.736   6.763   1.167 -0.1475  0.1930 -0.4213
10027TIP3    H151496   5.757   6.670   1.175  0.7038  0.5606  1.7613
10027TIP3    H251497   5.807   6.799   1.114  1.1489  0.1419  1.2347
10028TIP3   OH251498   7.000   2.337   0.402  0.3172 -0.1266 -0.0885
10028TIP3    H151499   6.978   2.402   0.469  1.7233  0.2938 -0.0207
10028TIP3    H251500   7.043   2.266   0.451 -1.7475 -1.3969 -0.0766
10029TIP3   OH251501   5.873   6.220  14.053 -0.2736  0.0394  0.5031
10029TIP3    H151502   5.848   6.172  14.132  3.3466 -0.0896  1.6514
10029TIP3    H251503   5.911   6.154  13.995  0.7517  0.7621  0.3282
10030TIP3   OH251504   6.881   5.444  13.953 -0.2189 -0.2589  0.0492
10030TIP3    H151505   6.967   5.427  13.916  0.6643 -0.7879  2.2537
10030TIP3    H251506   6.836   5.497  13.887  1.3389 -1.0294 -1.6553
10031TIP3   OH251507   4.964   3.088  13.195 -0.0668  0.4462  0.3381
10031TIP3    H151508   4.979   3.001  13.231  1.8585  0.1513 -1.0340
10031TIP3    H251509   4.953   3.145  13.271  0.6539 -0.6748  1.2963
10032TIP3   OH251510   4.552   7.096  14.593 -0.1654 -0.3008 -0.1822
10032TIP3    H151511   4.642   7.125  14.583 -0.6093  0.5902 -1.9947
10032TIP3    H251512   4.501   7.177  14.598 -0.8540 -0.7929  0.8711
10033TIP3   OH251513   6.547   2.773  12.963  0.2891  0.4945  0.1219
10033TIP3    H151514   6.642   2.765  12.963  0.0769 -2.6142  0.0716
10033TIP3    H251515   6.526   2.814  12.880  1.4406 -1.2137 -1.0301
10034TIP3   OH251516   4.569   2.822  15.889  0.1078  0.5362  0.7989
10034TIP3    H151517   4.617   2.744  15.919  1.3234  1.0325  0.1605
10034TIP3    H251518   4.586   2.825  15.795 -0.9725  0.8739  0.6136
10035TIP3   OH251519   4.420   4.048   0.369  0.3206  0.3502  0.0548
10035TIP3    H151520   4.330   4.029   0.396  0.6441  0.1923  1.0105
10035TIP3    H251521   4.457   3.962   0.349  0.9845  0.1950  1.9109
10036TIP3   OH251522   5.377   6.658  14.455  0.4571  0.0780 -0.0721
10036TIP3    H151523   5.403   6.694  14.539 -0.9123  0.3369  0.2566
10036TIP3    H251524   5.349   6.734  14.404  1.3255 -0.0708 -0.7864
10037TIP3   OH251525   4.238   3.537  15.232 -0.1726 -0.4987  0.4124
10037TIP3    H151526   4.294   3.544  15.309 -1.1991  0.8941  1.0647
10037TIP3    H251527   4.194   3.622  15.227  1.0675  0.0386 -2.6543
10038TIP3   OH251528   4.754   4.728   0.812 -0.6339 -0.5274  0.3291
10038TIP3    H151529   4.681   4.666   0.818 -0.0488 -1.2236  0.4215
10038TIP3    H251530   4.713   4.814   0.804 -1.4588 -0.9362  0.1490
10039TIP3   OH251531   0.745   5.230  13.814 -0.0130 -1.0732 -0.5955
10039TIP3    H151532   0.776   5.279  13.738  2.9531 -2.8420 -0.6033
10039TIP3    H251533   0.803   5.257  13.885 -1.8455 -0.5129  0.7394
10040TIP3   OH251534   7.265   5.652   0.322  0.0206 -0.0268  0.3971
10040TIP3    H151535   7.335   5.590   0.301 -0.0619  0.1187 -0.3150
10040TIP3    H251536   7.184   5.603   0.307 -0.0587  0.4787 -0.9115
10041TIP3   OH251537   0.083   5.408   2.068  0.3602  1.1271  0.1290
10041TIP3    H151538   0.061   5.322   2.103  0.1625  0.9578 -0.4090
10041TIP3    H251539   0.145   5.391   1.997  0.3020  1.4283  0.0020
10042TIP3   OH251540   7.188   5.584  15.102  0.3194 -0.1168 -0.4467
10042TIP3    H151541   7.260   5.582  15.164  0.1570 -0.3606 -0.2643
10042TIP3    H251542   7.152   5.495  15.104 -1.2791  0.5233  1.0162
10043TIP3   OH251543   7.253   5.132  15.609 -0.0041 -0.7182  0.2557
10043TIP3    H151544   7.300   5.171  15.536  0.4170  2.2454  2.0501
10043TIP3    H251545   7.163   5.123  15.578  0.0249  1.1392 -0.4303
10044TIP3   OH251546   6.420   3.058  14.159  0.2938 -0.1175  0.2488
10044TIP3    H151547   6.345   3.103  14.197  0.0369  0.6158 -1.1302
10044TIP3    H251548   6.382   2.989  14.105  0.5935  0.8314 -1.1759
10045TIP3   OH251549   5.294   2.031  15.257  0.5095 -0.0091 -0.1207
10045TIP3    H151550   5.239   1.968  15.211  1.4574 -1.6932  0.9851
10045TIP3    H251551   5.382   1.994  15.250  1.0601  1.1304  0.6856
10046TIP3   OH251552   0.777   4.885   1.953 -0.1486  0.1357  0.3446
10046TIP3    H151553   0.702   4.872   1.894 -1.2089  0.6550  1.5571
10046TIP3    H251554   0.833   4.948   1.907 -0.6655  0.0818 -0.3743
10047TIP3   OH251555   7.237   5.632   1.279  0.0594 -0.4840  0.0468
10047TIP3    H151556   7.313   5.690   1.281 -0.3759  0.0254  2.5016
10047TIP3    H251557   7.166   5.686   1.244 -0.0076  0.0455  1.0085
10048TIP3   OH251558   5.025   6.579  14.488  0.3992 -0.2783 -0.4219
10048TIP3    H151559   4.983   6.660  14.517  2.2107  0.7598 -0.6241
10048TIP3    H251560   5.073   6.548  14.565  0.3874 -0.7170 -0.5875
10049TIP3   OH251561   4.564   6.267  13.215  0.0266 -0.8649  0.2517
10049TIP3    H151562   4.627   6.336  13.236 -2.3820  1.4573 -0.0094
10049TIP3    H251563   4.530   6.240  13.300  0.5506 -1.3794  0.3070
10050TIP3   OH251564   5.850   4.688  15.325 -0.4225 -0.3000  0.0528
10050TIP3    H151565   5.912   4.761  15.327 -0.8906  0.0983  0.2499
10050TIP3    H251566   5.767   4.727  15.353 -1.2483 -0.3499 -2.1573
10051TIP3   OH251567   5.299   4.831  15.755  0.0316  0.1446 -0.0935
10051TIP3    H151568   5.272   4.740  15.766 -2.9307  0.6933 -2.1827
10051TIP3    H251569   5.236   4.881  15.808  1.2225  1.0193  0.5129
10052TIP3   OH251570   5.328   2.107  13.968  0.2309 -0.6430 -0.2198
10052TIP3    H151571   5.250   2.109  13.912 -0.0525 -0.1567  0.1780
10052TIP3    H251572   5.399   2.136  13.912  0.1727 -1.3805 -0.6678
10053TIP3   OH251573   5.315   5.218   0.776  0.1412  0.3927 -0.2634
10053TIP3    H151574   5.250   5.214   0.846  0.9878 -0.7644  0.4816
10053TIP3    H251575   5.340   5.310   0.773 -0.4792  0.5951  0.4263
10054TIP3   OH251576   5.900   4.570  15.724 -0.4901 -0.1863  0.1573
10054TIP3    H151577   5.909   4.544  15.816  0.8778 -0.2115  0.0264
10054TIP3    H251578   5.842   4.646  15.727  0.8327  0.8025  1.2134
10055TIP3   OH251579   6.307   4.121   1.292  0.2925 -0.1128 -0.5341
10055TIP3    H151580   6.367   4.114   1.367  1.9819 -0.7762 -1.9234
10055TIP3    H251581   6.246   4.048   1.304 -0.1422  0.4393  0.7793
10056TIP3   OH251582   5.429   2.800   1.664  0.2196 -0.0280  0.0729
10056TIP3    H151583   5.516   2.784   1.703  0.3521  1.6654  0.5176
10056TIP3    H251584   5.367   2.770   1.730  0.4613  0.8677  0.7121
10057TIP3   OH251585   7.298   4.216  12.799  0.0006 -0.6420  0.1703
10057TIP3    H151586   7.242   4.281  12.758 -0.1365 -1.0501 -0.2869
10057TIP3    H251587   7.372   4.206  12.739 -0.0258 -0.9721  0.1886
10058TIP3   OH251588   4.613   0.749   1.144  0.4506 -0.1880 -0.1588
10058TIP3    H151589   4.543   0.785   1.089  1.7769  1.0884 -1.0289
10058TIP3    H251590   4.688   0.742   1.086  1.2363 -0.9281  0.9399
10059TIP3   OH251591   0.676   5.686  15.671 -0.3504 -0.6987 -0.0697
10059TIP3    H151592   0.739   5.621  15.639 -0.2681 -1.2802  1.2343
10059TIP3    H251593   0.724   5.769  15.668  0.5859 -1.1747  1.1465
10060TIP3   OH251594   5.095   4.800  15.101 -0.7980 -0.0637 -0.0436
10060TIP3    H151595   5.009   4.813  15.062 -2.2406  1.3993  3.3587
10060TIP3    H251596   5.104   4.705  15.110 -2.4454 -0.2048  0.2878
10061TIP3   OH251597   0.763   4.558  15.649  0.6556 -0.1028  0.0550
10061TIP3    H151598   0.769   4.495  15.720  0.3286 -0.9409 -0.6541
10061TIP3    H251599   0.752   4.643  15.693  1.1100 -0.5342  1.0041
10062TIP3   OH251600   6.478   0.063   0.128  0.3577  0.2840 -0.1975
10062TIP3    H151601   6.501   0.004   0.200  0.6765  0.0366 -0.4967
10062TIP3    H251602   6.557   0.065   0.073 -0.0883 -0.0050 -0.8560
10063TIP3   OH251603   0.276   4.686   0.724 -0.2987 -0.3782 -0.0659
10063TIP3    H151604   0.196   4.696   0.776 -0.2444  0.3407 -0.1118
10063TIP3    H251605   0.339   4.647   0.785 -0.3676  0.0528  0.2888
10064TIP3   OH251606   0.972   4.837   0.459  0.3495 -0.1269  0.4503
10064TIP3    H151607   1.061   4.866   0.476  0.9545 -0.6978 -1.6695
10064TIP3    H251608   0.921   4.918   0.451  0.7538  0.2015  1.2050
10065TIP3   OH251609   1.531   4.022   3.009 -0.3358  0.4683 -0.0915
10065TIP3    H151610   1.513   3.969   3.087 -1.2203 -0.0153 -0.6162
10065TIP3    H251611   1.537   3.958   2.938 -1.5238  1.0854 -0.7538
10066TIP3   OH251612   1.042   3.860  15.657 -0.9666  0.4784  0.4902
10066TIP3    H151613   0.974   3.807  15.701 -1.3904  0.5337 -0.0979
10066TIP3    H251614   1.076   3.803  15.588 -1.7112  1.1093 -0.4110
10067TIP3   OH251615   6.287   0.246   0.074 -0.4933 -0.3458 -0.1885
10067TIP3    H151616   6.277   0.249   0.170 -1.6028 -0.5309 -0.2970
10067TIP3    H251617   6.363   0.190   0.060  0.2895  0.4668  0.6202
10068TIP3   OH251618   6.822   5.637   1.107 -0.0575  0.0987  0.1050
10068TIP3    H151619   6.822   5.548   1.071 -0.0231  0.3493 -0.5099
10068TIP3    H251620   6.736   5.672   1.083 -0.5033 -0.1535  1.3004
10069TIP3   OH251621   6.927   5.246   0.845 -0.4671  0.0773 -0.3845
10069TIP3    H151622   6.903   5.179   0.780  0.8668 -1.5639  0.7499
10069TIP3    H251623   6.919   5.200   0.929 -0.8207  1.7617  0.5103
10070TIP3   OH251624   2.942   4.433  12.380  0.5903 -0.1036 -0.0829
10070TIP3    H151625   2.896   4.475  12.308  1.2208 -1.6410 -1.4158
10070TIP3    H251626   2.875   4.381  12.425  0.0279  1.4898  0.9492
10071TIP3   OH251627   1.919   6.247  14.565  0.2702 -0.4821 -0.1883
10071TIP3    H151628   1.835   6.201  14.565  0.1646 -0.3559  2.1425
10071TIP3    H251629   1.981   6.185  14.602  0.6860  0.2889  0.4257
10072TIP3   OH251630   1.523   4.916   0.455 -0.4141  0.0063 -0.4715
10072TIP3    H151631   1.611   4.920   0.417 -0.1303 -0.9466  0.0824
10072TIP3    H251632   1.526   4.979   0.527 -0.2348  0.1018 -0.5611
10073TIP3   OH251633   0.402   5.996   0.829 -0.8779 -0.2307  0.1720
10073TIP3    H151634   0.396   5.911   0.785  0.3215 -0.0465 -0.3762
10073TIP3    H251635   0.328   6.045   0.795 -0.5381 -0.4451 -0.9093
10074TIP3   OH251636   3.592   5.766   0.714 -0.0715 -0.6775  1.1360
10074TIP3    H151637   3.610   5.838   0.775 -0.3039  0.7813 -0.4801
10074TIP3    H251638   3.508   5.788   0.675 -0.0348 -1.7179  0.4591
10075TIP3   OH251639   7.039   0.583  14.659  0.1282  0.0066 -0.2867
10075TIP3    H151640   7.070   0.600  14.570  0.9589 -0.4901 -0.0944
10075TIP3    H251641   7.100   0.519  14.694 -0.8148 -0.5943  0.2858
10076TIP3   OH251642   0.442   3.265  13.341  0.5405  0.5937 -0.2027
10076TIP3    H151643   0.361   3.254  13.291  0.6861 -1.2903 -0.0523
10076TIP3    H251644   0.511   3.249  13.277  0.7692  0.6415  0.0336
10077TIP3   OH251645   7.163   6.084  14.665  0.4146 -0.0155 -0.6156
10077TIP3    H151646   7.223   6.091  14.591  0.1732 -2.3911 -1.0601
10077TIP3    H251647   7.102   6.014  14.641 -1.7689  1.4762  0.3809
10078TIP3   OH251648   0.785   4.518   0.946 -0.1474  0.3355 -0.4779
10078TIP3    H151649   0.761   4.448   1.007 -0.8984  0.4883 -0.5852
10078TIP3    H251650   0.838   4.475   0.879  0.3402  0.0918  0.0672
10079TIP3   OH251651   1.323   0.540   0.301 -0.4241 -0.2967  0.1180
10079TIP3    H151652   1.405   0.566   0.345  0.1489 -0.3759 -0.8910
10079TIP3    H251653   1.258   0.601   0.335  0.7056  1.8825 -1.4590
10080TIP3   OH251654   1.753   0.463  15.974 -0.2045  0.4381  0.0526
10080TIP3    H151655   1.752   0.388  15.915 -1.6456 -1.4002  2.3269
10080TIP3    H251656   1.842   0.498  15.968  0.0651 -0.5508 -2.1197
10081TIP3   OH251657   3.669   6.856   1.628  0.2077  0.2495  0.6105
10081TIP3    H151658   3.596   6.805   1.593  0.9115 -0.1020 -0.3941
10081TIP3    H251659   3.738   6.791   1.643 -0.5081  0.1784  3.9843
10082TIP3   OH251660   2.316   5.842  15.640 -0.0923  0.1482 -0.0166
10082TIP3    H151661   2.227   5.830  15.606  0.1181 -0.0981 -0.4881
10082TIP3    H251662   2.367   5.872  15.564  0.3082 -0.0884  0.1558
10083TIP3   OH251663   7.150   6.906   0.858  0.1988  0.5295 -0.4632
10083TIP3    H151664   7.229   6.950   0.890  1.1764 -0.0802 -1.9656
10083TIP3    H251665   7.082   6.973   0.861  1.3856  1.8140 -1.6220
10084TIP3   OH251666   0.078   0.058  15.800  0.0355  0.1642  0.0492
10084TIP3    H151667   0.139  -0.013  15.777 -0.7005 -0.0274 -1.3790
10084TIP3    H251668   0.126   0.138  15.779 -0.3023  0.0052 -1.4222
10085TIP3   OH251669   6.843   7.049   1.747 -0.0525 -0.0750 -0.4865
10085TIP3    H151670   6.750   7.066   1.734  0.0465  1.6577  0.8906
10085TIP3    H251671   6.851   7.027   1.840  0.7185 -1.6306 -0.9075
10086TIP3   OH251672   0.598   1.869  14.894  0.5949 -0.3460 -0.1399
10086TIP3    H151673   0.558   1.864  14.807  2.2297  1.9461 -1.0643
10086TIP3    H251674   0.609   1.962  14.910  2.7180 -0.8279  1.4139
10087TIP3   OH251675   5.719   2.812   0.753  0.2416  0.1209  0.3355
10087TIP3    H151676   5.652   2.745   0.762 -1.9580  2.1669 -0.4114
10087TIP3    H251677   5.679   2.881   0.701  2.5832  1.8539  0.6985
10088TIP3   OH251678   2.721   0.156   0.137 -0.7488 -0.1530 -0.7323
10088TIP3    H151679   2.772   0.140   0.058 -0.4403 -1.9932 -0.1845
10088TIP3    H251680   2.643   0.102   0.127 -0.6502 -0.4999  0.2496
10089TIP3   OH251681   1.460   0.372  14.851 -0.4858  0.0002  0.0110
10089TIP3    H151682   1.488   0.463  14.855  1.1210 -0.4011 -1.3414
10089TIP3    H251683   1.514   0.328  14.917 -0.6210 -0.1147  0.0422
10090TIP3   OH251684   1.264   6.067  14.634 -0.6353  0.4031  0.1949
10090TIP3    H151685   1.307   6.094  14.553 -2.9300  0.1986 -1.1301
10090TIP3    H251686   1.181   6.114  14.634 -2.2066 -2.2259  0.6716
10091TIP3   OH251687   1.858   6.847   0.219  0.0011  0.1254  0.5460
10091TIP3    H151688   1.873   6.929   0.172  0.5918  0.7821  1.8527
10091TIP3    H251689   1.910   6.855   0.299  1.8511 -2.4620 -0.3347
10092TIP3   OH251690   2.155   0.086   1.689  0.2026 -0.3032 -0.1787
10092TIP3    H151691   2.162   0.029   1.765 -2.7486 -0.4203  0.0757
10092TIP3    H251692   2.159   0.175   1.725  1.2734 -0.3313 -0.1956
10093TIP3   OH251693   0.684   7.267   0.483 -0.5380  0.4961  0.0521
10093TIP3    H151694   0.689   7.321   0.562 -1.0178  0.2227  0.2750
10093TIP3    H251695   0.765   7.285   0.436 -0.5380  1.1434  0.2987
10094TIP3   OH251696   2.609   0.120   1.511 -0.0487 -0.3785 -0.2921
10094TIP3    H151697   2.655   0.038   1.491  0.9560  0.8369 -3.2805
10094TIP3    H251698   2.632   0.139   1.602  0.2973 -2.9999  0.2153
10095TIP3   OH251699   6.639   1.057  15.603 -0.4308 -0.3234  0.2441
10095TIP3    H151700   6.719   1.065  15.551 -0.9319 -1.0455 -0.6635
10095TIP3    H251701   6.586   0.994  15.554 -1.6483  0.3349  0.7167
10096TIP3   OH251702   1.544   0.607   0.782 -0.1811  0.2296  0.9694
10096TIP3    H151703   1.591   0.675   0.829  0.1549  0.1210  0.7884
10096TIP3    H251704   1.563   0.526   0.830  1.5868 -0.1715 -0.3562
10097TIP3   OH251705   0.841   5.592  14.644  0.3872 -0.0107 -0.2988
10097TIP3    H151706   0.756   5.548  14.645 -0.5924  1.7985  1.0158
10097TIP3    H251707   0.875   5.580  14.733  0.2455  1.5571 -0.0188
10098TIP3   OH251708   0.631   0.387   0.009  0.1244  0.0558  0.5718
10098TIP3    H151709   0.692   0.322  -0.025 -0.4261 -0.8670  1.3272
10098TIP3    H251710   0.639   0.381   0.104 -2.0772 -1.0166  0.7396
10099TIP3   OH251711   1.929   6.772   2.079 -0.5260 -0.4779  0.3536
10099TIP3    H151712   1.862   6.834   2.106  1.0575  0.5705  1.9962
10099TIP3    H251713   1.884   6.711   2.021 -2.5561  1.0297  0.3095
10100TIP3   OH251714   7.110   4.324   1.774 -0.2080 -0.4157 -0.1070
10100TIP3    H151715   7.101   4.415   1.748 -1.3123 -1.0660 -2.0646
10100TIP3    H251716   7.136   4.328   1.867 -1.2287  1.8425  0.1002
10101TIP3   OH251717   0.362   1.487  14.119 -0.3958 -0.0762 -0.4685
10101TIP3    H151718   0.312   1.515  14.195  1.1055  1.2783  0.0512
10101TIP3    H251719   0.348   1.555  14.054  0.2758  0.0026 -0.5350
10102TIP3   OH251720   3.212   5.660  15.136 -0.2867 -0.0598 -0.0267
10102TIP3    H151721   3.141   5.651  15.073  0.8279  3.1687 -1.8573
10102TIP3    H251722   3.262   5.578  15.128 -2.8349 -1.6642  0.1331
10103TIP3   OH251723   3.019   6.212  14.422 -0.7071 -0.5123  0.6264
10103TIP3    H151724   3.109   6.235  14.399 -1.0325  0.0395 -0.0960
10103TIP3    H251725   2.997   6.139  14.364 -1.9042  1.5910 -1.6118
10104TIP3   OH251726   0.652   6.361  14.461 -0.1437  0.2259  0.2314
10104TIP3    H151727   0.575   6.365  14.519 -1.8914 -3.0873 -1.6966
10104TIP3    H251728   0.691   6.275  14.479 -0.4314 -0.6546 -3.0665
10105TIP3   OH251729   6.957   0.618  15.002 -0.6406  0.2007  0.1568
10105TIP3    H151730   6.929   0.693  15.056 -0.8705 -0.3743  0.8378
10105TIP3    H251731   7.050   0.633  14.988 -0.4359  0.0143  1.2699
10106TIP3   OH251732   1.230   0.203  15.015  0.6195  0.2785  0.4505
10106TIP3    H151733   1.280   0.183  14.935  2.4814 -0.5524  1.7816
10106TIP3    H251734   1.154   0.251  14.984  0.0946 -2.0663 -2.0777
10107TIP3   OH251735   3.853   5.348  13.574  0.5132  0.5919 -0.1848
10107TIP3    H151736   3.769   5.324  13.536  0.9040 -0.3462 -0.4638
10107TIP3    H251737   3.841   5.333  13.668  0.4246  0.2764 -0.2443
10108TIP3   OH251738   2.487   0.238  15.111  0.1784  0.1212  0.6583
10108TIP3    H151739   2.475   0.261  15.018 -0.3564 -1.7586  0.2327
10108TIP3    H251740   2.402   0.255  15.151  0.6964  1.9059  1.0399
10109TIP3   OH251741   3.099   5.914  13.779  0.0572  0.0025  0.1608
10109TIP3    H151742   3.191   5.905  13.756 -0.2822  0.6286 -1.5030
10109TIP3    H251743   3.072   5.995  13.736 -1.6081 -0.8702 -0.4819
10110TIP3   OH251744   3.645   0.655   1.116  0.4438 -0.8072 -0.2544
10110TIP3    H151745   3.618   0.737   1.158 -1.1096 -0.5539 -1.6805
10110TIP3    H251746   3.737   0.668   1.094  1.3201 -0.9788  3.1034
10111TIP3   OH251747   1.302   6.052   1.297  0.0027  0.3094 -0.1910
10111TIP3    H151748   1.290   6.029   1.205 -2.9482 -0.6063  0.3614
10111TIP3    H251749   1.393   6.029   1.316 -0.2366 -2.3698 -2.0651
10112TIP3   OH251750   1.088   5.710  15.689  0.0564 -0.2682  0.2312
10112TIP3    H151751   1.089   5.806  15.694 -0.4494 -0.2762  0.5680
10112TIP3    H251752   1.153   5.682  15.753 -0.5108 -0.1706  0.8594
10113TIP3   OH251753   3.515   5.083   0.126  0.0940  0.4720 -0.5091
10113TIP3    H151754   3.467   5.166   0.125  1.7563  1.4388 -1.7700
10113TIP3    H251755   3.580   5.092   0.057  1.4844 -1.1943  0.5560
10114TIP3   OH251756   1.182   6.716   2.402 -0.1325 -0.4968  0.2048
10114TIP3    H151757   1.250   6.653   2.378  0.6513  0.3721  0.1183
10114TIP3    H251758   1.171   6.771   2.324 -1.3041 -0.9534  0.0385
10115TIP3   OH251759   3.402   5.491  15.462 -0.6454  0.6616  0.1458
10115TIP3    H151760   3.347   5.492  15.540  0.9281 -0.4598  1.3108
10115TIP3    H251761   3.375   5.413  15.414 -1.0967  0.9398 -0.0551
10116TIP3   OH251762   2.320   7.236   1.144  0.2934  0.3737  0.4621
10116TIP3    H151763   2.402   7.220   1.099 -0.3458  0.3731 -0.7113
10116TIP3    H251764   2.338   7.310   1.202  0.9670  0.7327 -0.2064
10117TIP3   OH251765   2.802   0.061   2.720 -0.7436 -0.5488  0.3540
10117TIP3    H151766   2.711   0.092   2.720 -0.6636 -0.3067  0.2465
10117TIP3    H251767   2.803  -0.012   2.782 -1.4103 -1.7711 -1.0457
10118TIP3   OH251768   5.357   4.012   0.207 -0.1791  0.0365  0.5495
10118TIP3    H151769   5.293   3.963   0.156  0.0033 -2.4776  2.6261
10118TIP3    H251770   5.413   4.054   0.142 -1.0812 -1.5723 -1.3006
10119TIP3   OH251771   4.437   7.131  15.081 -0.1774  0.7380  0.0225
10119TIP3    H151772   4.471   7.220  15.072 -0.7480  1.3003  2.9260
10119TIP3    H251773   4.396   7.113  14.997  0.9618  2.7709 -1.0193
10120TIP3   OH251774   4.078   6.311  13.697 -0.2196  0.3818 -0.4412
10120TIP3    H151775   4.061   6.299  13.603  1.1776  2.4751 -0.9936
10120TIP3    H251776   4.003   6.269  13.740 -1.1611 -0.1364 -2.4935
10121TIP3   OH251777   3.828   5.262  15.431  0.4728 -0.0522 -0.1338
10121TIP3    H151778   3.863   5.215  15.355  1.0892  0.1024  0.0473
10121TIP3    H251779   3.847   5.354  15.413  1.2252 -0.0712  0.5029
10122TIP3   OH251780   2.075   6.504  15.971  0.2841 -0.3606  0.2779
10122TIP3    H151781   2.130   6.426  15.960  1.2739  0.4608 -0.6869
10122TIP3    H251782   2.016   6.503  15.896  0.2407 -0.2176  0.3107
10123TIP3   OH251783   0.495   7.124   0.613 -0.1913 -0.4192 -0.0839
10123TIP3    H151784   0.552   7.055   0.647 -1.2257 -0.3393  1.8870
10123TIP3    H251785   0.551   7.172   0.551  1.4285 -1.2230  0.7069
10124TIP3   OH251786   2.623   5.456  15.989 -0.1611 -0.0110  0.5308
10124TIP3    H151787   2.702   5.506  16.008 -1.0765  1.1049  1.3731
10124TIP3    H251788   2.633   5.432  15.896  2.0044 -1.4166  1.0790
10125TIP3   OH251789   3.726   6.990   0.239 -0.1139 -0.3934  0.1508
10125TIP3    H151790   3.669   7.066   0.228  0.1760 -0.1581  0.2470
10125TIP3    H251791   3.670   6.915   0.222 -0.7468 -0.2164  1.4150
10126TIP3   OH251792   2.569   6.994   2.484 -0.2077 -0.2928  0.0557
10126TIP3    H151793   2.586   6.915   2.535  1.6797  0.1702  0.1971
10126TIP3    H251794   2.542   6.962   2.398 -1.8880 -1.0721  0.8420
10127TIP3   OH251795   2.267   5.757  14.140  0.5516 -0.0352  0.2734
10127TIP3    H151796   2.350   5.765  14.094  0.4020  0.5205  0.0912
10127TIP3    H251797   2.277   5.811  14.218  0.0587  0.7417 -0.1937
10128TIP3   OH251798   1.264   0.378  14.271 -0.4933 -0.3706 -0.1265
10128TIP3    H151799   1.221   0.356  14.188 -2.1524 -0.6046  0.7675
10128TIP3    H251800   1.195   0.369  14.336  1.3240 -2.2066  1.5816
10129TIP3   OH251801   3.152   0.656  14.964 -0.1541 -0.0168 -0.2615
10129TIP3    H151802   3.114   0.583  15.012  0.5354 -0.7327 -0.7950
10129TIP3    H251803   3.116   0.734  15.007  0.4858 -0.6417  1.4265
10130TIP3   OH251804   2.204   5.683   0.243 -0.0776  0.0156  0.1260
10130TIP3    H151805   2.273   5.620   0.220 -0.7262  0.2705 -2.7706
10130TIP3    H251806   2.246   5.768   0.236  0.0640  0.0333  1.2190
10131TIP3   OH251807   1.473   6.768  14.308 -0.6467 -0.4254  0.1408
10131TIP3    H151808   1.563   6.738  14.308 -0.6293 -0.3762 -0.1922
10131TIP3    H251809   1.433   6.724  14.233 -0.3469  1.1661 -0.9847
10132TIP3   OH251810   3.198   5.800  15.624 -0.0760 -0.3809  0.7905
10132TIP3    H151811   3.168   5.819  15.535  0.3124 -0.0410  0.7296
10132TIP3    H251812   3.131   5.838  15.680  0.1393  0.2067  0.6533
10133TIP3   OH251813   3.712   5.616  15.739  0.9378 -0.3079 -0.2670
10133TIP3    H151814   3.723   5.710  15.752  0.0410  0.1145 -2.4007
10133TIP3    H251815   3.681   5.607  15.649  1.8720 -2.7099 -0.3988
10134TIP3   OH251816   3.877   5.352  13.246  0.6280  0.8261 -1.0192
10134TIP3    H151817   3.952   5.395  13.288  1.5108 -0.0760 -1.6615
10134TIP3    H251818   3.885   5.260  13.272 -0.4796  0.7892 -0.7832
10135TIP3   OH251819   3.830   4.392  15.923 -0.4109  0.1779  0.4292
10135TIP3    H151820   3.795   4.474  15.958  0.5614  0.8583 -0.1436
10135TIP3    H251821   3.906   4.372  15.978  0.8749  1.0358 -0.9613
10136TIP3   OH251822   2.402   0.794  15.201  0.0429  0.0246 -0.0841
10136TIP3    H151823   2.344   0.764  15.271 -0.0512  0.7586  0.1514
10136TIP3    H251824   2.421   0.715  15.151 -1.0339 -0.2480 -0.0723
10137TIP3   OH251825   2.720   1.178   1.680  0.3977  0.2134  0.0650
10137TIP3    H151826   2.667   1.129   1.617  0.9352 -1.8481  1.1597
10137TIP3    H251827   2.811   1.158   1.656  0.6127  0.0466  0.9762
10138TIP3   OH251828   3.353   6.311   1.098 -0.5052 -0.5648  0.3231
10138TIP3    H151829   3.335   6.222   1.066  0.4575 -1.1547  1.3834
10138TIP3    H251830   3.388   6.357   1.022 -2.6077 -0.5816 -0.6815
10139TIP3   OH251831   3.587   5.018  15.309 -1.3033  0.6250  0.0320
10139TIP3    H151832   3.548   4.936  15.281 -0.4156  0.0533  0.4263
10139TIP3    H251833   3.631   4.997  15.391 -1.2069  1.5312  0.2206
10140TIP3   OH251834   3.474   6.967   0.817  0.4728 -0.1337  0.1016
10140TIP3    H151835   3.402   6.930   0.868  0.9626 -1.3082 -0.0383
10140TIP3    H251836   3.541   6.987   0.881  0.9415 -1.2595 -0.0249
10141TIP3   OH251837   4.380   5.757  14.027 -0.2288  0.1222  0.2594
10141TIP3    H151838   4.471   5.779  14.006 -0.7463  1.6981 -0.4521
10141TIP3    H251839   4.332   5.838  14.009 -2.2686 -1.6696 -2.6917
10142TIP3   OH251840   1.618   1.067  15.873  0.3510 -0.2955 -0.5171
10142TIP3    H151841   1.629   0.980  15.834  2.0938  0.3908 -1.5721
10142TIP3    H251842   1.674   1.065  15.951  0.8994  0.0843 -0.8953
10143TIP3   OH251843   4.246   5.322  15.247 -0.3504  0.1586  0.1062
10143TIP3    H151844   4.230   5.362  15.332  0.6576  0.2292  0.2740
10143TIP3    H251845   4.325   5.365  15.215 -0.4910 -0.1583 -0.6840
10144TIP3   OH251846   6.987   7.258   0.747 -0.2349  0.1283 -0.0131
10144TIP3    H151847   6.979   7.320   0.675 -1.1461  1.8510  1.5463
10144TIP3    H251848   7.081   7.240   0.754 -0.1223  0.0797 -1.4895
10145TIP3   OH251849   5.941   5.366  14.483  0.1429 -0.2584 -0.4162
10145TIP3    H151850   5.996   5.392  14.557  0.5096 -1.5369 -0.2239
10145TIP3    H251851   5.965   5.274  14.467 -1.0371 -0.4467 -1.1302
10146TIP3   OH251852   4.354   0.368  15.940 -1.0005 -0.0510  0.2082
10146TIP3    H151853   4.305   0.368  16.022 -0.9707  0.0650  0.2265
10146TIP3    H251854   4.422   0.302  15.952  1.0816  2.2264  1.5088
10147TIP3   OH251855   5.568   7.089   0.010 -0.3525  0.0064 -0.2195
10147TIP3    H151856   5.512   7.119   0.082 -1.8286 -1.9623 -0.4910
10147TIP3    H251857   5.648   7.140   0.018 -0.8087  0.3735  2.3503
10148TIP3   OH251858   5.095   4.450   2.441 -0.0096  0.2286 -0.3391
10148TIP3    H151859   5.172   4.486   2.397  0.6214  0.8890  1.2884
10148TIP3    H251860   5.097   4.357   2.419  0.5189  0.4706 -1.3631
10149TIP3   OH251861   3.958   5.027  15.291  0.7252  0.5979 -0.6964
10149TIP3    H151862   3.926   5.053  15.204  0.5775  0.0542 -0.8108
10149TIP3    H251863   4.053   5.033  15.284  0.9162 -2.4783 -1.9247
10150TIP3   OH251864   1.366   6.262  15.102 -0.0043 -0.2672 -0.1431
10150TIP3    H151865   1.284   6.293  15.065 -0.6857 -2.1034 -0.1982
10150TIP3    H251866   1.429   6.332  15.084 -1.3502  0.7630 -0.8538
10151TIP3   OH251867   5.122   1.372  15.624 -0.1771 -0.0187  0.0554
10151TIP3    H151868   5.033   1.406  15.629 -0.6086 -1.0835 -0.3221
10151TIP3    H251869   5.121   1.311  15.550  1.1264  0.7319 -0.5900
10152TIP3   OH251870   2.971   6.974  14.709  0.2411 -0.6305 -0.2932
10152TIP3    H151871   2.999   7.066  14.712  1.3495 -0.9911  0.7565
10152TIP3    H251872   2.891   6.971  14.760  1.3231 -0.6287  1.4191
10153TIP3   OH251873   4.734   0.482   1.187 -0.2021 -0.8710  0.1760
10153TIP3    H151874   4.674   0.511   1.118 -0.2358 -1.9794 -0.2621
10153TIP3    H251875   4.791   0.558   1.202 -0.2854 -0.5706 -0.9658
10154TIP3   OH251876   5.549   6.770   0.240 -0.1999 -0.2772  0.5345
10154TIP3    H151877   5.565   6.678   0.258  1.3831 -0.3810 -1.2236
10154TIP3    H251878   5.542   6.775   0.145  0.4708  1.5055  0.5499
10155TIP3   OH251879   3.138   6.462   0.429  0.0206 -0.5010 -0.1332
10155TIP3    H151880   3.199   6.395   0.398  0.5949  0.3867 -0.9645
10155TIP3    H251881   3.137   6.451   0.524  1.1093 -0.8517 -0.1501
10156TIP3   OH251882   1.190   0.550   0.032  0.0811  0.4696 -0.7328
10156TIP3    H151883   1.193   0.454   0.034 -0.3167  0.4465 -1.3092
10156TIP3    H251884   1.242   0.577   0.108  1.7424 -0.1673 -1.6392
10157TIP3   OH251885   4.924   6.648   0.148 -0.0342  0.1776 -0.6939
10157TIP3    H151886   4.909   6.701   0.226  0.7784  0.4901 -0.7457
10157TIP3    H251887   4.961   6.710   0.085 -1.2526  0.0706 -1.5329
10158TIP3   OH251888   3.943   5.892   0.136 -0.4281 -0.0307 -0.2396
10158TIP3    H151889   3.932   5.815   0.080  0.6412  0.5369 -1.2557
10158TIP3    H251890   3.951   5.856   0.224 -1.8780 -0.9521 -0.4669
10159TIP3   OH251891   5.870   5.610   1.996 -0.5318  0.5790 -0.3381
10159TIP3    H151892   5.838   5.678   1.937 -1.9009  0.8468  0.6875
10159TIP3    H251893   5.826   5.628   2.079  0.8513 -0.1980  0.5743
10160TIP3   OH251894   4.424   0.543  13.917  0.1554  0.1023 -0.1745
10160TIP3    H151895   4.459   0.595  13.844 -0.4387 -0.5824 -0.9608
10160TIP3    H251896   4.501   0.498  13.952  0.4833  0.6135 -0.2338
10161TIP3   OH251897   5.806   0.841  15.398 -0.2431 -0.6715 -0.1597
10161TIP3    H151898   5.845   0.870  15.315 -2.0504 -1.5526 -1.3390
10161TIP3    H251899   5.861   0.768  15.426  0.2805 -0.4722 -0.6579
10162TIP3   OH251900   5.715   4.223   0.460  0.1006 -0.3301  0.0475
10162TIP3    H151901   5.691   4.174   0.538 -0.0235  1.1367  0.9466
10162TIP3    H251902   5.633   4.261   0.429  0.3109 -0.0691 -0.1944
10163TIP3   OH251903   3.304   5.529  13.629  0.0060 -0.6540  0.3279
10163TIP3    H151904   3.214   5.527  13.662  0.1854 -0.0635  0.8698
10163TIP3    H251905   3.341   5.444  13.656 -1.0435 -1.8193 -1.8302
10164TIP3   OH251906   1.885   5.324   0.403  0.3775 -0.3050 -0.5529
10164TIP3    H151907   1.877   5.415   0.432  1.6495  0.3803 -2.2976
10164TIP3    H251908   1.979   5.310   0.393  0.0981 -1.3194 -1.8360
10165TIP3   OH251909   5.787   6.489   1.058  0.1586  0.2843 -0.3847
10165TIP3    H151910   5.750   6.401   1.060  1.6809 -0.3546  0.6452
10165TIP3    H251911   5.847   6.489   0.984 -1.3069  1.0826 -1.5901
10166TIP3   OH251912   3.627   4.758  15.715 -0.1378 -0.2935 -0.2925
10166TIP3    H151913   3.587   4.838  15.748  2.6329  1.2616 -0.5842
10166TIP3    H251914   3.709   4.749  15.764 -0.1379 -2.6542 -0.6481
10167TIP3   OH251915   3.294   6.408  14.004 -0.2482  0.4178  0.5907
10167TIP3    H151916   3.213   6.357  14.009  0.8320 -1.6214 -1.3414
10167TIP3    H251917   3.353   6.365  14.066  0.2006  0.1625  0.0026
10168TIP3   OH251918   1.331   0.255   0.176  0.5672 -0.2564 -0.5274
10168TIP3    H151919   1.389   0.299   0.114  1.9719 -2.2328 -0.6675
10168TIP3    H251920   1.311   0.322   0.242  4.0766  0.1506  0.2283
10169TIP3   OH251921   3.511   6.978  15.231 -0.2237 -0.0287 -0.0724
10169TIP3    H151922   3.477   7.027  15.156 -1.3194 -0.0095  0.4235
10169TIP3    H251923   3.457   7.007  15.304  0.2163 -0.7640  0.5478
10170TIP3   OH251924   2.417   0.206  15.746 -0.1280 -0.3664  0.1504
10170TIP3    H151925   2.341   0.227  15.693  0.6850  3.6322  0.4067
10170TIP3    H251926   2.490   0.206  15.685  0.0993 -1.0686  0.4131
10171TIP3   OH251927   5.965   5.701   0.084 -0.4198  0.0518  0.1609
10171TIP3    H151928   6.016   5.771   0.043  1.3801 -1.3610 -0.0584
10171TIP3    H251929   5.962   5.724   0.177 -0.4089  0.7619 -0.0124
10172TIP3   OH251930   4.683   0.389  15.598  0.3468  0.1475 -0.4329
10172TIP3    H151931   4.690   0.377  15.503 -1.3521  1.8534 -0.8134
10172TIP3    H251932   4.626   0.465  15.608  0.8749  0.2651  1.9631
10173TIP3   OH251933   5.014   6.520   0.792  0.1342  0.1376  0.1589
10173TIP3    H151934   5.039   6.525   0.700  0.6606 -0.1130  0.2854
10173TIP3    H251935   4.949   6.450   0.796 -0.7218  0.9087 -0.1991
10174TIP3   OH251936   5.237   6.965   0.569 -0.0568 -0.1904  0.3385
10174TIP3    H151937   5.252   7.051   0.531 -1.4781  0.4269  1.1589
10174TIP3    H251938   5.150   6.970   0.608 -1.0488 -2.6291 -1.3719
10175TIP3   OH251939   3.832   6.617   0.742  0.0770  0.1551  0.4922
10175TIP3    H151940   3.777   6.557   0.693  0.4374 -0.3510  0.6974
10175TIP3    H251941   3.813   6.703   0.706 -3.2014  0.4362  2.6530
10176TIP3   OH251942   6.190   5.800  15.718 -0.0187  0.2958 -0.1047
10176TIP3    H151943   6.116   5.781  15.776 -0.1790 -1.2882 -0.8193
10176TIP3    H251944   6.255   5.734  15.740  1.3891  1.9693  0.8383
10177TIP3   OH251945   1.634   5.142  13.340 -0.2612  0.1889 -0.2982
10177TIP3    H151946   1.573   5.104  13.276 -0.5726  0.5253 -0.2058
10177TIP3    H251947   1.720   5.114  13.310 -0.5368 -1.2291  0.2008
10178TIP3   OH251948   4.796   6.283  15.811  0.7394 -0.4312 -0.1773
10178TIP3    H151949   4.890   6.274  15.793  0.9924  0.6776  0.5485
10178TIP3    H251950   4.758   6.306  15.726  0.9179 -2.2342 -0.7645
10179TIP3   OH251951   0.940   6.929   0.714 -0.2414  0.0278 -0.6206
10179TIP3    H151952   1.016   6.886   0.754  0.1686  0.8759 -0.4547
10179TIP3    H251953   0.976   6.974   0.638 -0.8215 -0.6493 -1.2971
10180TIP3   OH251954   6.282   5.181  15.593  0.5136  0.0614 -0.1496
10180TIP3    H151955   6.187   5.182  15.578  0.2728  1.0506  1.2679
10180TIP3    H251956   6.311   5.098  15.556 -0.8962 -0.1958 -0.7195
10181TIP3   OH251957   6.731   0.261   1.054 -0.0299  0.8627  0.1436
10181TIP3    H151958   6.751   0.294   0.967  0.5217 -0.4515 -0.2424
10181TIP3    H251959   6.711   0.339   1.106  0.8663  1.7466 -0.8326
10182TIP3   OH251960   7.220   0.937  15.729 -0.2261  0.1810  0.3333
10182TIP3    H151961   7.299   0.882  15.734  1.1120  1.5757 -3.2778
10182TIP3    H251962   7.171   0.901  15.654 -0.9797  1.8079  0.0162
10183TIP3   OH251963   7.276   4.648  14.351 -0.1655 -0.7448  0.5422
10183TIP3    H151964   7.246   4.638  14.261  0.2176 -0.7560  0.4157
10183TIP3    H251965   7.347   4.584  14.360  0.0835 -0.4443  0.7233
10184TIP3   OH251966   3.323   5.073   1.256  0.1573 -0.3635 -0.2263
10184TIP3    H151967   3.232   5.042   1.255  0.2206 -0.5111 -1.7079
10184TIP3    H251968   3.365   5.019   1.323 -0.0229 -2.7458 -1.9707
10185TIP3   OH251969   1.740   0.091  15.584  0.7570 -0.0243  0.0906
10185TIP3    H151970   1.663   0.036  15.597  0.2137  0.9561  1.0548
10185TIP3    H251971   1.716   0.148  15.511  0.6665  0.1144  0.2294
10186TIP3   OH251972   0.883   4.675  15.429  0.4659 -0.4076 -0.1742
10186TIP3    H151973   0.831   4.644  15.503 -1.1767  1.5746 -0.4322
10186TIP3    H251974   0.970   4.639  15.443  0.4397  0.6804  3.2398
10187TIP3   OH251975   1.836   1.575   0.775 -0.9737  0.0977 -0.6426
10187TIP3    H151976   1.763   1.581   0.837 -0.6613  1.7713 -0.4217
10187TIP3    H251977   1.911   1.552   0.829 -0.8612  0.7725 -0.5053
10188TIP3   OH251978   5.337   5.390   1.863  0.3871 -0.5393 -0.0121
10188TIP3    H151979   5.280   5.326   1.820  1.4038 -1.0582 -0.5970
10188TIP3    H251980   5.339   5.363   1.955 -0.5234 -0.3598  0.0616
10189TIP3   OH251981   6.160   0.847  15.571 -0.2774  0.1512  0.1866
10189TIP3    H151982   6.070   0.869  15.596  0.3656  2.3846  0.6463
10189TIP3    H251983   6.214   0.892  15.636  1.2008 -1.0030 -0.2096
10190TIP3   OH251984   6.037   1.554  14.775 -0.1545  0.4932  0.3448
10190TIP3    H151985   5.974   1.504  14.826  1.6936 -0.4684  1.7615
10190TIP3    H251986   6.121   1.511  14.791  0.7058  0.9795 -2.4629
10191TIP3   OH251987   6.420   0.492  15.658 -0.0283 -0.7283 -0.4566
10191TIP3    H151988   6.456   0.439  15.728  1.9641 -0.5640 -1.3254
10191TIP3    H251989   6.325   0.479  15.663  0.1914 -1.5985  1.5228
10192TIP3   OH251990   4.834   6.285   1.254 -0.6339  0.0429  0.1866
10192TIP3    H151991   4.858   6.196   1.229 -0.2995  0.6025 -1.5097
10192TIP3    H251992   4.744   6.295   1.222 -1.5265 -0.4645  2.4394
10193TIP3   OH251993   6.134   6.132   0.485  0.3841 -0.1299 -0.0677
10193TIP3    H151994   6.128   6.064   0.552  1.3536  1.2499  1.4675
10193TIP3    H251995   6.145   6.084   0.403  0.8375 -1.8382  0.9670
10194TIP3   OH251996   0.036   6.548   0.839  0.6729  0.1277  0.4574
10194TIP3    H151997  -0.015   6.566   0.759 -0.7920  0.1085  1.3680
10194TIP3    H251998   0.051   6.454   0.837 -0.0787  0.0057  0.6303
10195TIP3   OH251999   7.013   4.513  15.784  0.1593 -0.2469 -0.0297
10195TIP3    H152000   7.089   4.564  15.811 -0.6871  1.1250 -0.1888
10195TIP3    H252001   6.987   4.466  15.863  0.0317  0.7546  0.5307
10196TIP3   OH252002   4.853   5.967   0.214 -0.3067  0.1529  0.3011
10196TIP3    H152003   4.839   6.012   0.131 -0.2073  2.6677  1.6033
10196TIP3    H252004   4.947   5.968   0.227 -0.4352  1.4753  1.3118
10197TIP3   OH252005   7.021   7.032  14.831  0.6660  0.8704 -0.3907
10197TIP3    H152006   7.011   7.082  14.750  1.1995  1.5413 -0.0472
10197TIP3    H252007   7.070   6.954  14.805  0.1818  0.7106 -0.8507
10198TIP3   OH252008   5.719   0.863   1.530  0.8383  0.0831 -0.4939
10198TIP3    H152009   5.757   0.935   1.581  1.5086 -1.1209  0.7274
10198TIP3    H252010   5.736   0.887   1.439 -1.1343  2.7003 -0.2416
10199TIP3   OH252011   6.817   5.789   1.741 -0.0714 -0.6194 -0.7090
10199TIP3    H152012   6.801   5.742   1.823  0.6249  1.9952  1.0002
10199TIP3    H252013   6.912   5.783   1.728  0.4468  2.6295  1.0670
10200TIP3   OH252014   6.913   7.027  15.493 -0.6789  0.1029 -0.0129
10200TIP3    H152015   6.935   6.946  15.447  0.3354  0.5708 -0.3778
10200TIP3    H252016   6.957   7.095  15.443 -0.6187  0.7669  0.9284
10201TIP3   OH252017   5.869   0.392   0.379  0.3039  0.3414 -0.7739
10201TIP3    H152018   5.811   0.465   0.360  0.7558  0.9092  0.0541
10201TIP3    H252019   5.953   0.418   0.342  0.5169  0.3134 -0.3002
10202TIP3   OH252020   6.409   6.135   1.125  0.7331  0.2436  0.1621
10202TIP3    H152021   6.343   6.125   1.195  1.9402 -0.2114  1.2490
10202TIP3    H252022   6.419   6.047   1.088 -0.6063  0.6646 -1.2528
10203TIP3   OH252023   7.284   5.010   1.139  0.3809  0.3325  0.2094
10203TIP3    H152024   7.308   4.952   1.067 -1.9747 -0.2999 -0.1080
10203TIP3    H252025   7.282   4.952   1.216 -0.5994  0.2573  0.1362
10204TIP3   OH252026   5.645   0.891  14.549  0.2149 -0.4509  0.6743
10204TIP3    H152027   5.730   0.849  14.532  0.5814  0.4254  0.2965
10204TIP3    H252028   5.587   0.856  14.481  0.6477  0.0279  0.0584
10205TIP3   OH252029   3.377   5.553  14.171  0.0838  0.4591 -0.2636
10205TIP3    H152030   3.308   5.611  14.139 -0.5345  0.5336  1.1725
10205TIP3    H252031   3.331   5.487  14.223  0.9946 -0.0941 -0.1497
10206TIP3   OH252032   6.036   6.113  15.729  0.1545 -0.7446  0.1523
10206TIP3    H152033   6.063   6.164  15.805  0.1580 -0.6130  0.0643
10206TIP3    H252034   6.104   6.046  15.720 -0.0424 -0.9877  0.4824
10207TIP3   OH252035   6.860   4.814  15.852 -1.1286  0.1423 -0.2500
10207TIP3    H152036   6.941   4.808  15.903 -1.4387  0.6009  0.3119
10207TIP3    H252037   6.888   4.848  15.767 -0.7402  0.4226 -0.0155
10208TIP3   OH252038   6.651   1.441   1.854  0.4483  0.2323 -0.3984
10208TIP3    H152039   6.595   1.504   1.901  0.8021  1.5619 -1.7368
10208TIP3    H252040   6.627   1.452   1.762 -0.8024 -2.9132 -0.5280
10209TIP3   OH252041   1.176   2.047  15.438 -0.5234  0.2351 -0.1039
10209TIP3    H152042   1.082   2.041  15.455 -0.9831  3.7712 -0.8683
10209TIP3    H252043   1.184   2.039  15.343 -0.4436  2.8284 -0.3696
10210TIP3   OH252044   0.604   0.198   2.128  0.2824  0.1397 -0.4009
10210TIP3    H152045   0.599   0.251   2.048  0.7444 -0.7150 -1.0100
10210TIP3    H252046   0.582   0.259   2.199 -0.1808  0.8974 -1.1805
10211TIP3   OH252047   0.864   0.310   0.675 -0.1582  0.1982 -0.2775
10211TIP3    H152048   0.949   0.282   0.708 -0.6475 -0.0088  0.8311
10211TIP3    H252049   0.800   0.255   0.721 -0.9993  1.6286  0.3133
10212TIP3   OH252050   6.751   1.811   0.880 -0.1742  0.1396 -0.3688
10212TIP3    H152051   6.804   1.891   0.888  0.2332 -0.0697 -0.9315
10212TIP3    H252052   6.813   1.740   0.899 -0.5440 -0.0427  0.1691
10213TIP3   OH252053   7.048   0.395   3.044  0.0584  0.1398  0.5415
10213TIP3    H152054   6.992   0.372   3.118 -1.9062  1.4143 -0.4968
10213TIP3    H252055   7.067   0.488   3.056 -0.1655  0.3212 -0.4825
10214TIP3   OH252056   6.752   0.671   0.875  0.1992  0.1686  0.0795
10214TIP3    H152057   6.802   0.674   0.794 -0.8831 -2.1650 -0.7236
10214TIP3    H252058   6.729   0.763   0.893  0.0345  0.6709 -2.5134
10215TIP3   OH252059   0.797   3.279   0.325  0.3752 -0.4901  0.7281
10215TIP3    H152060   0.842   3.234   0.253  0.5744  0.9765 -0.0764
10215TIP3    H252061   0.707   3.289   0.295  0.1580 -1.0061  1.2095
10216TIP3   OH252062   7.080   6.641   0.958  0.3984  0.1184  0.0069
10216TIP3    H152063   7.079   6.731   0.927 -0.5137 -0.9261 -3.1299
10216TIP3    H252064   7.139   6.595   0.898 -1.4367 -1.9835 -0.2502
10217TIP3   OH252065   1.133   5.882   3.974  0.4303 -0.0025  0.0740
10217TIP3    H152066   1.103   5.938   4.046  1.5420  0.4744  0.1893
10217TIP3    H252067   1.203   5.933   3.933  0.2937 -0.5874 -0.8988
10218TIP3   OH252068   0.577   0.491   0.759 -0.1253  0.0536 -0.2577
10218TIP3    H152069   0.578   0.483   0.663  2.4608 -1.6111 -0.1540
10218TIP3    H252070   0.629   0.416   0.789  2.0259  2.4390  2.2722
10219TIP3   OH252071   2.133   1.430   1.566 -0.3845  0.1958 -0.2027
10219TIP3    H152072   2.204   1.406   1.507 -0.3181 -0.6899  0.2223
10219TIP3    H252073   2.069   1.360   1.554  1.0619 -1.7907  3.1896
10220TIP3   OH252074   1.101   1.866   0.033  0.4472  0.2025 -0.8000
10220TIP3    H152075   1.095   1.784   0.083  2.1611 -0.4619 -1.6387
10220TIP3    H252076   1.017   1.873  -0.012 -0.1322 -0.5200  0.1563
10221TIP3   OH252077   7.258   7.203   0.733  0.1077  0.2185  0.2988
10221TIP3    H152078   7.302   7.127   0.770  1.1370 -1.3061 -3.7820
10221TIP3    H252079   7.330   7.261   0.707 -0.5340  0.8352 -0.1182
10222TIP3   OH252080   1.874   6.529  15.761 -0.0468  0.4353  0.7501
10222TIP3    H152081   1.829   6.468  15.702  0.9470  1.2045 -0.8566
10222TIP3    H252082   1.830   6.613  15.746 -0.1792  0.5089  1.5530
10223TIP3   OH252083   1.178   1.563   1.768  0.3992 -0.3276 -0.4241
10223TIP3    H152084   1.098   1.587   1.720  0.1143  0.7813  0.6037
10223TIP3    H252085   1.160   1.474   1.799 -0.8148  0.2532  0.5757
10224TIP3   OH252086   5.824   1.598   4.647  0.0588  0.0778 -0.4746
10224TIP3    H152087   5.841   1.690   4.665  2.6038 -0.4048 -0.1637
10224TIP3    H252088   5.810   1.558   4.733  2.2484 -0.3801 -0.2791
10225TIP3   OH252089   0.842   3.378   2.543 -0.1662 -0.1960  0.9410
10225TIP3    H152090   0.923   3.418   2.511 -1.3123  1.1682 -0.3536
10225TIP3    H252091   0.806   3.333   2.467 -0.6809 -0.6909  1.4732
10226TIP3   OH252092   2.207   0.953   1.162  0.2223 -0.5696  0.2219
10226TIP3    H152093   2.225   0.929   1.253  0.1020  1.0460  0.6890
10226TIP3    H252094   2.292   0.978   1.126  0.2914 -1.3315 -0.1560
10227TIP3   OH252095   1.704   0.112   2.052 -0.3680 -0.1048 -0.7548
10227TIP3    H152096   1.688   0.051   2.125  1.3297 -0.0619 -0.3227
10227TIP3    H252097   1.752   0.185   2.092 -1.0667  0.8046 -1.5625
10228TIP3   OH252098   6.914   7.169   1.445 -0.3439 -0.5983  0.3677
10228TIP3    H152099   6.829   7.211   1.459  0.3741  0.9664  0.1831
10228TIP3    H252100   6.953   7.218   1.372  0.1066 -2.2345 -0.5070
10229TIP3   OH252101   6.228   0.323   1.479 -0.3085  0.1163 -0.7754
10229TIP3    H152102   6.161   0.292   1.418 -0.1704 -0.0605 -0.8390
10229TIP3    H252103   6.236   0.416   1.461 -2.0121  0.5752  0.6422
10230TIP3   OH252104   6.995   0.174   0.562 -0.7185 -0.4058 -0.1853
10230TIP3    H152105   6.963   0.230   0.492 -1.9517 -2.8230 -1.6196
10230TIP3    H252106   7.066   0.124   0.523 -1.2367 -1.5796  0.3464
10231TIP3   OH252107   0.622   2.793  15.340  0.8418  0.1503 -0.3905
10231TIP3    H152108   0.658   2.704  15.348 -0.3147 -0.3169 -0.3486
10231TIP3    H252109   0.582   2.810  15.424  0.5769  0.5021 -0.5901
10232TIP3   OH252110   2.057   1.050   0.354  0.6788  0.6653  0.4363
10232TIP3    H152111   1.974   1.037   0.400  0.5992 -0.2894  0.0298
10232TIP3    H252112   2.047   1.136   0.312 -0.4913  0.1345 -0.4064
10233TIP3   OH252113   2.515   1.213   2.910 -0.0125  0.3156 -0.0668
10233TIP3    H152114   2.576   1.282   2.884  1.9712 -1.3294  0.0526
10233TIP3    H252115   2.524   1.208   3.005  1.3836 -1.4301 -0.2567
10234TIP3   OH252116   5.834   1.801  15.385 -0.0375 -0.3941  0.2977
10234TIP3    H152117   5.770   1.839  15.444 -0.6543 -1.4614  0.3352
10234TIP3    H252118   5.823   1.706  15.395  0.7412 -0.5906 -0.5579
10235TIP3   OH252119   2.785   2.088   1.198 -0.2179 -0.1832 -1.0122
10235TIP3    H152120   2.839   2.113   1.123  1.8881 -0.1029  0.4891
10235TIP3    H252121   2.831   2.123   1.274 -1.8754 -0.9723  0.4033
10236TIP3   OH252122   0.746   1.867   0.817  0.3433 -0.6949 -0.6382
10236TIP3    H152123   0.839   1.885   0.834  0.9000 -2.0115 -2.1252
10236TIP3    H252124   0.723   1.922   0.742  0.0830 -0.7596 -0.6078
10237TIP3   OH252125   2.036   1.297   0.211  0.0649  0.1494 -0.3446
10237TIP3    H152126   2.097   1.257   0.149 -0.5038  0.1241 -0.8897
10237TIP3    H252127   2.020   1.384   0.176 -1.1191 -0.2585 -0.8311
10238TIP3   OH252128   2.823   0.802   1.429 -0.4719 -0.3919  0.0129
10238TIP3    H152129   2.852   0.712   1.417  1.3395  0.0279  1.2138
10238TIP3    H252130   2.816   0.814   1.523  0.9969  1.2599 -0.0671
10239TIP3   OH252131   3.180   0.307   3.409 -0.3487  0.1896  0.0929
10239TIP3    H152132   3.234   0.382   3.433  0.7497 -1.0242  1.4890
10239TIP3    H252133   3.090   0.339   3.420  0.1012  1.2686  0.8230
10240TIP3   OH252134   1.446   0.277   0.799 -0.0812  0.6456  0.6517
10240TIP3    H152135   1.531   0.236   0.805 -0.1741  0.5419  1.3769
10240TIP3    H252136   1.385   0.212   0.834 -0.1549  1.5811  2.3521
10241TIP3   OH252137   5.698   2.835   1.443 -0.8322 -0.0096 -0.3464
10241TIP3    H152138   5.682   2.769   1.510 -1.8133 -0.1043 -0.6752
10241TIP3    H252139   5.707   2.786   1.362  0.6923  0.0768 -0.2469
10242TIP3   OH252140   2.061   1.568   0.925 -0.4124 -0.0056 -0.1754
10242TIP3    H152141   2.113   1.645   0.949  0.7414 -0.6731 -0.4981
10242TIP3    H252142   2.041   1.526   1.009  0.7908 -0.5277 -0.1496
10243TIP3   OH252143   6.017   2.855   1.353  0.0839 -0.3476 -0.3565
10243TIP3    H152144   5.922   2.853   1.337  0.1095  1.8813 -1.0176
10243TIP3    H252145   6.052   2.906   1.279  1.6444 -0.1383  0.5154
10244TIP3   OH252146   7.222   3.129   1.437  0.1224 -0.4791  0.6100
10244TIP3    H152147   7.167   3.053   1.458 -0.9520 -0.8103 -3.1439
10244TIP3    H252148   7.168   3.205   1.461 -0.6499 -0.8441  0.0370
10245TIP3   OH252149   7.182   1.832   0.329 -0.6019 -0.1738 -0.0277
10245TIP3    H152150   7.094   1.821   0.291 -0.4610  2.4168 -1.2303
10245TIP3    H252151   7.234   1.870   0.258  1.1391 -0.3301  1.1215
10246TIP3   OH252152   1.850   0.817   0.638  0.0882 -0.4138 -0.2736
10246TIP3    H152153   1.792   0.861   0.575 -1.1633 -0.5360  0.7664
10246TIP3    H252154   1.793   0.796   0.712  1.3945 -0.8740  0.6193
10247TIP3   OH252155   1.232   6.817   0.681  0.4921 -0.6107 -0.3603
10247TIP3    H152156   1.195   6.811   0.593 -1.0830 -1.8811  0.3432
10247TIP3    H252157   1.324   6.839   0.668  0.5000 -1.7481 -2.3604
10248TIP3   OH252158   0.896   6.293  15.986 -0.2335  0.1528  0.4402
10248TIP3    H152159   0.868   6.384  15.988 -1.1569 -0.1087 -0.2724
10248TIP3    H252160   0.915   6.276  15.893 -0.7621 -0.5793  0.4595
10249TIP3   OH252161   0.820   6.871  15.917 -0.4654 -0.5035  0.8491
10249TIP3    H152162   0.864   6.928  15.980  0.1113  0.5765 -0.4810
10249TIP3    H252163   0.739   6.917  15.896  0.6112  0.5208 -1.2186
10250TIP3   OH252164   0.334   1.529   1.603 -0.0151 -0.0115  0.5424
10250TIP3    H152165   0.303   1.470   1.671  0.3798 -0.5076  0.3012
10250TIP3    H252166   0.280   1.508   1.526 -1.2427  1.3452  1.0164
10251TIP3   OH252167   1.450   5.946   0.670  0.3103 -0.1132  0.1714
10251TIP3    H152168   1.416   5.894   0.743  0.0908 -1.1993 -0.6815
10251TIP3    H252169   1.445   6.037   0.700 -3.5652 -0.1907 -0.0117
10252TIP3   OH252170   1.513   6.574   2.360  0.8496  0.4593 -0.1123
10252TIP3    H152171   1.578   6.631   2.319  0.4787  0.2445 -1.0082
10252TIP3    H252172   1.534   6.486   2.329 -0.6384  0.5498 -1.4396
10253TIP3   OH252173   2.958   2.235   1.365  0.3342  0.2881  0.2363
10253TIP3    H152174   2.956   2.315   1.418  1.6054  0.7059 -0.3306
10253TIP3    H252175   3.008   2.258   1.287  0.3789 -0.9475 -0.1207
10254TIP3   OH252176   0.586   0.585   1.489  0.2333  0.0938 -1.0551
10254TIP3    H152177   0.611   0.526   1.560 -1.8165  0.6474  0.1521
10254TIP3    H252178   0.532   0.531   1.431 -2.3441  0.9680  0.4880
10255TIP3   OH252179   6.567   3.141   0.416 -0.1093  0.5955  0.3555
10255TIP3    H152180   6.654   3.163   0.449  0.4657 -2.5393  1.0841
10255TIP3    H252181   6.525   3.226   0.400  2.3442  2.1617  1.9089
10256TIP3   OH252182   1.902   1.634  15.708 -0.0077  0.2638 -0.4372
10256TIP3    H152183   1.958   1.583  15.649  0.5754 -0.0072  0.3396
10256TIP3    H252184   1.902   1.722  15.671  0.8308  0.2347 -0.5324
10257TIP3   OH252185   1.611   4.161   2.446 -0.1309  0.3173 -0.8663
10257TIP3    H152186   1.575   4.151   2.358 -0.8688 -1.0001 -0.4326
10257TIP3    H252187   1.536   4.147   2.504  0.3759  1.0525 -0.0247
10258TIP3   OH252188   0.974   1.082  14.715 -0.2454  0.1875  0.2684
10258TIP3    H152189   0.992   0.994  14.750  0.8084  0.2753 -0.0530
10258TIP3    H252190   0.890   1.106  14.754 -0.2740 -0.7390  0.7937
10259TIP3   OH252191   6.155   2.182  15.889 -0.4477  0.0362 -0.3397
10259TIP3    H152192   6.122   2.138  15.968 -1.5704  0.7450 -0.3974
10259TIP3    H252193   6.076   2.214  15.845  0.1996  0.0739 -1.5030
10260TIP3   OH252194   1.181   2.549   0.997 -0.5376 -0.1024  0.1895
10260TIP3    H152195   1.113   2.552   1.064 -0.5141  1.4766  0.1508
10260TIP3    H252196   1.175   2.633   0.952  0.9789 -0.2240 -0.2792
10261TIP3   OH252197   0.378   2.012  15.577  0.0982 -0.2478  0.0367
10261TIP3    H152198   0.450   2.073  15.558 -0.3145  0.2390  0.0294
10261TIP3    H252199   0.360   2.025  15.670 -0.2765 -0.0486 -0.0625
10262TIP3   OH252200   6.806   6.849   1.262 -0.4671 -0.2755  0.0976
10262TIP3    H152201   6.711   6.843   1.247 -0.2356 -2.0826 -0.7890
10262TIP3    H252202   6.834   6.920   1.205 -1.2516  0.1306  0.2023
10263TIP3   OH252203   1.704   0.487   1.049 -0.0938 -0.2291 -0.2345
10263TIP3    H152204   1.703   0.395   1.022 -2.4659  0.3443 -2.3076
10263TIP3    H252205   1.771   0.527   0.994 -1.0214 -0.1753 -1.3361
10264TIP3   OH252206   3.733   5.172  15.141 -0.2351 -0.0090 -0.2922
10264TIP3    H152207   3.677   5.113  15.191  1.4190 -0.2995  1.3267
10264TIP3    H252208   3.695   5.175  15.054 -2.3870 -0.6563  0.6025
10265TIP3   OH252209   3.795   0.541   2.233 -0.4068  0.5124 -0.1316
10265TIP3    H152210   3.811   0.623   2.279  0.2163  0.3074  0.0284
10265TIP3    H252211   3.820   0.473   2.296  0.7826  0.2349 -0.8987
10266TIP3   OH252212   2.091   0.922   2.187  0.3708  0.2004 -0.3159
10266TIP3    H152213   2.166   0.935   2.128  1.2348  0.0005  0.7125
10266TIP3    H252214   2.131   0.900   2.271 -0.8865 -1.2283 -0.0732
10267TIP3   OH252215   3.478   0.265   3.754  0.2746  0.6513 -0.3454
10267TIP3    H152216   3.561   0.231   3.789  0.5847 -1.4417 -2.8980
10267TIP3    H252217   3.505   0.331   3.690 -0.0104  0.0670 -1.0766
10268TIP3   OH252218   0.539   2.109   0.075  0.1712 -0.0377  0.2571
10268TIP3    H152219   0.565   2.140   0.162 -0.5550  1.0880  0.0884
10268TIP3    H252220   0.577   2.172   0.014 -2.4271  1.3653 -0.0168
10269TIP3   OH252221   4.609   0.292  14.012 -1.0733  0.1096 -0.2019
10269TIP3    H152222   4.587   0.199  14.024 -0.8138 -0.1723 -1.8268
10269TIP3    H252223   4.692   0.291  13.964 -0.3123  1.1881  1.0721
10270TIP3   OH252224   1.071   0.788   2.450  0.2226 -0.5309  0.0113
10270TIP3    H152225   1.050   0.880   2.434 -0.8705 -1.0078 -1.4544
10270TIP3    H252226   0.996   0.755   2.499 -1.1678 -1.4976 -2.6214
10271TIP3   OH252227   0.430   1.767   1.505 -0.4164 -0.0542  0.2718
10271TIP3    H152228   0.380   1.699   1.550  0.3021 -1.0783 -0.4780
10271TIP3    H252229   0.521   1.753   1.533  0.1923 -1.3284 -2.2673
10272TIP3   OH252230   1.072   0.605   2.175  0.1435 -0.2546 -0.3479
10272TIP3    H152231   1.075   0.615   2.271 -1.2330 -1.3603 -0.1828
10272TIP3    H252232   1.110   0.519   2.159 -0.8346 -0.6230 -0.6918
10273TIP3   OH252233   1.282   7.174   1.671 -0.1175 -0.1928 -0.5568
10273TIP3    H152234   1.342   7.221   1.729 -1.6325  1.0779  0.0070
10273TIP3    H252235   1.335   7.103   1.635  2.2572  1.9934 -1.5434
10274TIP3   OH252236   0.169   0.066   1.794  0.3276  0.1478  0.6381
10274TIP3    H152237   0.217   0.036   1.872  0.8018 -2.3515 -0.5730
10274TIP3    H252238   0.077   0.060   1.819  0.5168  1.7957  1.8426
10275TIP3   OH252239   2.289   2.001   0.455 -0.2238  0.5241  0.0212
10275TIP3    H152240   2.293   2.088   0.415 -0.0878 -0.2364 -1.6633
10275TIP3    H252241   2.196   1.984   0.467 -0.3660 -0.0903 -1.8922
10276TIP3   OH252242   0.396   6.568   0.169 -0.4377  0.0795 -0.2131
10276TIP3    H152243   0.492   6.575   0.166 -0.3463 -0.1491  1.4346
10276TIP3    H252244   0.375   6.496   0.110  0.3253  0.7630 -1.3320
10277TIP3   OH252245   0.368   6.880  15.644  0.1029  0.7387  0.0622
10277TIP3    H152246   0.344   6.971  15.661  0.0376  0.4910  1.3628
10277TIP3    H252247   0.317   6.830  15.708  1.0052 -0.1203  0.1054
10278TIP3   OH252248   6.836   6.994   2.016 -0.3190 -0.6931 -0.4250
10278TIP3    H152249   6.766   6.987   2.081 -1.8750 -2.4976 -2.2138
10278TIP3    H252250   6.877   6.907   2.016  1.1393 -0.0228 -0.2831
10279TIP3   OH252251   1.377   0.949   1.707  0.4931 -0.2209  0.1943
10279TIP3    H152252   1.402   1.019   1.647  0.4611 -0.4393 -0.0759
10279TIP3    H252253   1.420   0.971   1.789 -1.5792  1.4753  0.8441
10280TIP3   OH252254   7.152   6.765   2.251 -0.4120 -0.1280  0.1053
10280TIP3    H152255   7.099   6.742   2.327 -2.6587  0.8947 -1.0703
10280TIP3    H252256   7.118   6.709   2.181  1.3530 -0.7801 -0.2524
10281TIP3   OH252257   0.968   1.874  14.817  0.1428 -0.2503 -0.1689
10281TIP3    H152258   0.876   1.855  14.838  0.2946 -1.2245 -0.3577
10281TIP3    H252259   0.986   1.957  14.861 -0.1804 -1.1712  1.7544
10282TIP3   OH252260   4.908   4.864   0.099  0.5406  0.5802 -0.1698
10282TIP3    H152261   4.825   4.908   0.080  0.3708  1.5167  2.4592
10282TIP3    H252262   4.962   4.931   0.140  1.1642 -0.9980  1.6965
10283TIP3   OH252263   2.013   1.994   1.978 -0.1151 -0.2034  0.7756
10283TIP3    H152264   1.960   1.921   1.946 -1.1913  0.6506  0.5942
10283TIP3    H252265   2.011   1.986   2.073 -1.2512  0.2906  0.7996
10284TIP3   OH252266   2.914   1.548   1.376  0.4899  0.2590  0.4575
10284TIP3    H152267   2.842   1.583   1.323  0.4734 -1.3304 -0.5897
10284TIP3    H252268   2.980   1.523   1.312  0.4198 -1.8158  1.1737
10285TIP3   OH252269   0.899   0.578   0.046  0.0079  0.0558 -0.2424
10285TIP3    H152270   0.994   0.582   0.034 -0.0378  0.3812 -0.5069
10285TIP3    H252271   0.881   0.485   0.060  0.4575  0.0836  0.5853
10286TIP3   OH252272   1.502   0.594   0.516  0.1388  0.0522 -0.0074
10286TIP3    H152273   1.531   0.629   0.601  0.4838 -0.1748 -0.0327
10286TIP3    H252274   1.578   0.548   0.482 -0.3140 -0.6990  0.0043
10287TIP3   OH252275   1.581   5.175   1.231  0.2323  0.2294  0.3385
10287TIP3    H152276   1.529   5.103   1.194 -1.0512  0.3536  1.8715
10287TIP3    H252277   1.559   5.175   1.324 -0.4909  3.1916  0.2231
10288TIP3   OH252278   1.661   2.060   1.626  0.1461  0.4687 -0.0707
10288TIP3    H152279   1.605   2.130   1.593 -0.6580  0.5377  1.3789
10288TIP3    H252280   1.742   2.104   1.653 -0.0655  0.7370  0.1295
10289TIP3   OH252281   2.341   1.697   1.750 -0.1798 -0.2663 -0.1619
10289TIP3    H152282   2.411   1.762   1.756 -0.5693  0.1962 -0.6420
10289TIP3    H252283   2.291   1.707   1.831  0.1835 -0.4583  0.0893
10290TIP3   OH252284   7.075   2.754  14.834  0.5537 -0.1058 -0.0212
10290TIP3    H152285   7.046   2.785  14.748  2.5099  2.0555  0.0366
10290TIP3    H252286   7.052   2.825  14.894  0.9446 -0.7533  0.8969
10291TIP3   OH252287   2.769   0.775   1.690 -0.1113 -0.0036  0.3207
10291TIP3    H152288   2.744   0.831   1.764  1.1415  1.4192 -0.3100
10291TIP3    H252289   2.702   0.706   1.689 -0.4319  0.2279  2.4613
10292TIP3   OH252290   0.266   4.926  15.427  0.5289 -0.2587 -0.0185
10292TIP3    H152291   0.354   4.938  15.462  1.8537 -1.3198 -2.8811
10292TIP3    H252292   0.248   4.832  15.438 -0.4432  0.0421  1.0026
10293TIP3   OH252293   1.177   7.267   2.196 -0.1657 -0.2250 -0.0036
10293TIP3    H152294   1.117   7.242   2.267 -0.2726 -0.8761 -0.3243
10293TIP3    H252295   1.121   7.303   2.128 -0.4489 -2.7915 -1.1954
10294TIP3   OH252296   0.700   0.168   1.473 -0.3586  0.3288  0.5220
10294TIP3    H152297   0.720   0.257   1.441  0.2219 -0.1195 -0.3994
10294TIP3    H252298   0.777   0.117   1.448 -1.1403 -0.6546  0.1286
10295TIP3   OH252299   2.560   1.062   1.486 -0.4555  0.0283 -0.2404
10295TIP3    H152300   2.589   1.001   1.418 -0.3348 -0.7247  0.4680
10295TIP3    H252301   2.472   1.032   1.508 -0.2361 -0.1463  0.4034
10296TIP3   OH252302   5.287   6.600  15.714  0.7623  0.0894  0.5435
10296TIP3    H152303   5.381   6.600  15.695  1.1451  0.9436  2.2849
10296TIP3    H252304   5.272   6.684  15.758 -0.7481 -0.2059  0.6084
10297TIP3   OH252305   6.939   2.712   0.672 -0.3356 -0.5131  0.1624
10297TIP3    H152306   6.960   2.624   0.701 -0.2464 -0.8971 -1.0334
10297TIP3    H252307   6.865   2.739   0.725 -0.4381 -1.3577  0.4439
10298TIP3   OH252308   2.572   2.870   0.333  0.5516  0.4022  0.2968
10298TIP3    H152309   2.637   2.811   0.293  2.3489  1.5439  1.4450
10298TIP3    H252310   2.552   2.831   0.418 -2.9406 -1.7890 -1.4171
10299TIP3   OH252311   2.189   1.906   0.143  0.0073  0.2431 -0.0916
10299TIP3    H152312   2.148   1.916   0.229  0.3755  0.9320  0.0054
10299TIP3    H252313   2.266   1.851   0.160 -0.2962 -0.1834 -0.0967
10300TIP3   OH252314   0.197   1.162  15.651 -0.1815  0.1036 -0.1119
10300TIP3    H152315   0.117   1.146  15.600 -1.4455  0.7929  1.6242
10300TIP3    H252316   0.221   1.075  15.684  0.0424 -0.1728 -0.9715
10301TIP3   OH252317   1.556   2.083  15.536 -0.2163 -0.2284  0.2825
10301TIP3    H152318   1.474   2.129  15.552 -0.1330  0.0775 -0.1651
10301TIP3    H252319   1.604   2.139  15.475 -0.3340 -1.1478 -0.6720
10302TIP3   OH252320   0.507   2.404  15.111  0.3444  0.0906 -0.1746
10302TIP3    H152321   0.509   2.390  15.016 -0.5426  0.9634 -0.3324
10302TIP3    H252322   0.417   2.430  15.130  0.8991  1.4941  0.6585
10303TIP3   OH252323   7.186   6.787   0.589  0.0368 -0.3369  0.6836
10303TIP3    H152324   7.232   6.815   0.668 -1.3809 -1.2409  1.8592
10303TIP3    H252325   7.108   6.843   0.585 -1.6314 -2.5314  1.7944
10304TIP3   OH252326   6.263   0.520   0.862 -0.2316 -0.3907  0.2398
10304TIP3    H152327   6.241   0.433   0.828  1.5984 -1.1792  0.9672
10304TIP3    H252328   6.202   0.579   0.820 -2.2657 -2.1835  0.5743
10305TIP3   OH252329   1.690   0.563   1.540 -0.4219  0.0349  0.0546
10305TIP3    H152330   1.635   0.605   1.606  0.0860 -2.0184  1.8457
10305TIP3    H252331   1.770   0.615   1.538 -0.4531  0.1181  1.0352
10306TIP3   OH252332   3.355   1.998   0.957 -0.4110 -0.1655  0.0865
10306TIP3    H152333   3.337   2.066   1.022  0.3613  1.3312 -1.2383
10306TIP3    H252334   3.438   2.025   0.917 -0.7075 -1.2483 -1.2881
10307TIP3   OH252335   5.343   1.828   0.470  0.2679 -0.4294 -0.3402
10307TIP3    H152336   5.400   1.851   0.543 -1.9003 -0.6819  1.4742
10307TIP3    H252337   5.284   1.761   0.505 -0.1403 -1.3400 -2.6255
10308TIP3   OH252338   2.040   2.633   1.646 -0.5694  0.4553  0.2558
10308TIP3    H152339   1.953   2.673   1.641 -0.1755  1.2532 -0.2892
10308TIP3    H252340   2.084   2.681   1.716 -1.2068 -1.2176  1.8454
10309TIP3   OH252341   1.129   3.392   1.069  0.7303 -0.8857 -0.0380
10309TIP3    H152342   1.223   3.411   1.070  1.1314 -2.7497 -1.3867
10309TIP3    H252343   1.094   3.452   1.004  0.7346  0.8257  1.4880
10310TIP3   OH252344   2.437   2.271   0.885 -0.5032  0.0540  0.0972
10310TIP3    H152345   2.344   2.287   0.873 -0.6361 -0.0374  0.9712
10310TIP3    H252346   2.445   2.238   0.975  0.3576 -0.0182  0.0046
10311TIP3   OH252347   1.955   3.629  15.541  0.1846 -0.1922 -0.0215
10311TIP3    H152348   2.037   3.677  15.548  0.3188 -0.5034  0.6081
10311TIP3    H252349   1.922   3.626  15.631 -0.5675  0.0241 -0.2880
10312TIP3   OH252350   0.566   7.089   2.354 -0.1394  0.2347  0.3035
10312TIP3    H152351   0.498   7.106   2.419  0.3697  2.0566  0.4138
10312TIP3    H252352   0.519   7.065   2.275 -0.8340 -0.3572  0.8989
10313TIP3   OH252353   6.658   2.901  15.346  0.0293  0.6146  0.2431
10313TIP3    H152354   6.580   2.916  15.399 -0.1602 -1.3167  0.5623
10313TIP3    H252355   6.731   2.909  15.408 -0.0447  0.6528  0.3260
10314TIP3   OH252356   0.619   0.749   0.896 -0.6696  0.0608 -0.0104
10314TIP3    H152357   0.559   0.720   0.966  0.8388 -1.1530  0.8077
10314TIP3    H252358   0.621   0.676   0.835  1.0541 -0.4912  0.6823
10315TIP3   OH252359   1.737   2.105   0.922  0.2017  0.0024 -0.0005
10315TIP3    H152360   1.643   2.090   0.911  0.3388  0.2954 -1.6686
10315TIP3    H252361   1.765   2.038   0.984 -0.9904 -0.5277 -0.0338
10316TIP3   OH252362   5.799   2.776   0.066 -0.4648 -0.2971 -0.5154
10316TIP3    H152363   5.823   2.857   0.022 -0.5525 -0.6192 -1.1678
10316TIP3    H252364   5.707   2.763   0.046 -0.6921 -0.0882  0.3514
10317TIP3   OH252365   0.375   0.781   1.520 -0.3647 -0.1467 -0.4108
10317TIP3    H152366   0.368   0.776   1.615  0.5192 -0.4502 -0.3509
10317TIP3    H252367   0.438   0.713   1.497  0.3665  0.7407 -1.0898
10318TIP3   OH252368   0.627   1.286  14.479  0.1598 -0.4849  0.1132
10318TIP3    H152369   0.682   1.330  14.544  1.5329  0.4286 -1.6086
10318TIP3    H252370   0.579   1.357  14.437 -0.2638 -1.0069 -0.2891
10319TIP3   OH252371   6.745   0.772   1.406 -0.2613 -0.0960 -0.7033
10319TIP3    H152372   6.801   0.806   1.337 -1.2374  1.3051 -0.8235
10319TIP3    H252373   6.682   0.716   1.361 -0.2237 -0.0463 -0.8158
10320TIP3   OH252374   6.903   7.082   1.123 -0.2029 -0.4811 -0.1328
10320TIP3    H152375   6.992   7.081   1.086 -0.1761  0.1282 -0.0910
10320TIP3    H252376   6.855   7.145   1.069  0.2204  1.4984  1.7374
10321TIP3   OH252377   0.001   0.047   2.360 -0.1358  0.2925 -0.4279
10321TIP3    H152378  -0.083   0.087   2.340 -1.6918 -1.3677  2.4404
10321TIP3    H252379  -0.011  -0.046   2.338  1.8947  0.5015 -2.6259
10322TIP3   OH252380   6.825   0.388   1.280  0.6233 -0.0097 -0.0497
10322TIP3    H152381   6.813   0.294   1.296  0.6785 -0.1786 -0.9746
10322TIP3    H252382   6.837   0.426   1.367  0.0257 -0.7804  0.3784
10323TIP3   OH252383   2.943   3.732   1.763  0.4680  0.3025 -0.1732
10323TIP3    H152384   2.981   3.818   1.748  0.7470  0.2920  0.4604
10323TIP3    H252385   2.930   3.696   1.675  0.1049  1.0933 -0.4499
10324TIP3   OH252386   6.709   0.472   2.698 -0.6069  0.1710 -0.5532
10324TIP3    H152387   6.734   0.526   2.622 -0.2982 -0.5403 -0.9595
10324TIP3    H252388   6.791   0.435   2.729 -1.1649 -2.6105 -2.2318
10325TIP3   OH252389   0.939   0.767   1.355 -0.0187 -0.2303 -0.1160
10325TIP3    H152390   0.900   0.845   1.395 -1.2383 -0.5640 -0.6213
10325TIP3    H252391   1.003   0.801   1.293 -0.9902  0.3937 -0.7932
10326TIP3   OH252392   2.191   7.029   1.710 -0.4597 -0.2138  0.0442
10326TIP3    H152393   2.185   6.997   1.800 -2.0507  2.6112  1.0010
10326TIP3    H252394   2.273   7.079   1.708 -0.6803  0.1469  0.0580
10327TIP3   OH252395   1.106   1.026   0.006 -0.0984 -0.3778  0.2681
10327TIP3    H152396   1.025   0.975   0.016  0.2985 -1.6434 -2.3970
10327TIP3    H252397   1.076   1.112  -0.026 -0.3795 -1.0511 -1.3275
10328TIP3   OH252398   1.128   1.639   0.425  0.4180  0.1802 -0.3400
10328TIP3    H152399   1.140   1.582   0.500  1.2411 -0.5373 -0.9990
10328TIP3    H252400   1.216   1.670   0.404  0.2955 -0.1267 -1.3782
10329TIP3   OH252401   3.579   6.751  15.751 -0.4555 -0.7193 -0.6755
10329TIP3    H152402   3.652   6.812  15.749 -1.7489  0.9109  0.3902
10329TIP3    H252403   3.511   6.791  15.697 -1.7422 -0.5988  0.9629
10330TIP3   OH252404   0.971   6.672  15.083 -0.0865  0.4613  0.3783
10330TIP3    H152405   1.004   6.743  15.028  1.7112  0.5554  1.5204
10330TIP3    H252406   0.979   6.593  15.029 -0.3085  0.8603 -0.2291
10331TIP3   OH252407   2.252   3.502   1.483 -0.1843  0.0160 -0.0504
10331TIP3    H152408   2.181   3.452   1.443 -0.4159  0.4401 -0.1782
10331TIP3    H252409   2.244   3.589   1.444 -1.7595  1.0695  2.5246
10332TIP3   OH252410   1.249   1.780   0.833  0.2653  0.4122 -0.5295
10332TIP3    H152411   1.205   1.818   0.909 -2.0523 -1.3510 -0.9292
10332TIP3    H252412   1.198   1.811   0.758 -0.5080 -1.8717 -0.9860
10333TIP3   OH252413   7.302   3.252   1.720 -0.3196 -0.4345 -0.2338
10333TIP3    H152414   7.273   3.246   1.811  2.0321 -0.2898  0.5533
10333TIP3    H252415   7.237   3.310   1.678 -1.8504 -1.1266  1.1350
10334TIP3   OH252416   0.902   1.856  15.328  0.3479  0.2796 -0.2319
10334TIP3    H152417   0.893   1.934  15.383 -2.0182 -1.2214  1.6025
10334TIP3    H252418   0.846   1.875  15.252 -0.9658  0.0290  0.6534
10335TIP3   OH252419   0.867   7.277   1.367 -0.0283 -0.1165  0.2618
10335TIP3    H152420   0.816   7.322   1.300  1.1865  0.1476 -0.4995
10335TIP3    H252421   0.940   7.238   1.319 -0.0759 -1.3667  1.1817
10336TIP3   OH252422   2.247   2.649  15.745  0.3699  0.3382 -0.4418
10336TIP3    H152423   2.257   2.564  15.702 -0.5302  0.2079 -0.3888
10336TIP3    H252424   2.292   2.710  15.687 -1.0197  0.1971 -1.6982
10337TIP3   OH252425   7.283   0.575  15.926 -0.4111 -0.0093  0.2199
10337TIP3    H152426   7.338   0.584  15.848 -1.4358 -0.5368 -0.5654
10337TIP3    H252427   7.308   0.491  15.963 -0.9985 -0.4430 -0.3729
10338TIP3   OH252428   1.145   3.483   0.460  0.7512 -0.2090  0.7396
10338TIP3    H152429   1.174   3.573   0.467  2.1116 -0.6226  0.5289
10338TIP3    H252430   1.089   3.482   0.382 -0.8061  0.8383  1.8380
10339TIP3   OH252431   0.007   3.501   0.640 -0.0373  0.0713  0.1947
10339TIP3    H152432  -0.036   3.519   0.557 -0.3906 -0.5879  0.2263
10339TIP3    H252433   0.065   3.427   0.621 -0.0807 -0.0480  0.5202
10340TIP3   OH252434   2.797   0.425   2.121  0.0768 -0.3386 -0.0108
10340TIP3    H152435   2.825   0.514   2.145  0.5705 -0.3212 -0.6546
10340TIP3    H252436   2.850   0.403   2.045 -0.5680 -0.9036 -0.2990
10341TIP3   OH252437   6.604   0.876   2.227 -0.4623  0.6342 -0.3398
10341TIP3    H152438   6.654   0.956   2.239 -0.3329  0.3106  1.3457
10341TIP3    H252439   6.670   0.806   2.227 -0.7894  0.3261  0.5247
10342TIP3   OH252440   3.171   2.498   1.429  0.0610 -0.4169  0.4586
10342TIP3    H152441   3.207   2.582   1.458 -1.6048  1.4108 -2.5599
10342TIP3    H252442   3.086   2.492   1.472 -0.3599  0.0238 -0.3206
10343TIP3   OH252443   1.728   0.173   0.788 -0.0286 -0.1355 -0.1600
10343TIP3    H152444   1.789   0.214   0.728 -1.4112 -0.2883 -1.7055
10343TIP3    H252445   1.741   0.079   0.776  0.4063 -0.1721  0.5439
10344TIP3   OH252446   6.738   0.985  15.885  0.0267  0.4428 -0.0457
10344TIP3    H152447   6.713   1.019  15.799 -0.9971 -0.2568 -0.0354
10344TIP3    H252448   6.743   0.890  15.872  1.1242  0.4389  0.3578
10345TIP3   OH252449   6.416   0.550   2.808  0.1258 -0.7519 -0.2234
10345TIP3    H152450   6.505   0.545   2.772  0.2281 -2.1225  0.1995
10345TIP3    H252451   6.400   0.644   2.819  2.3021 -0.5486  1.6231
10346TIP3   OH252452   0.249   3.000  15.005 -0.2329 -0.2399  0.4385
10346TIP3    H152453   0.159   2.998  14.972 -0.2607 -0.9523  0.5484
10346TIP3    H252454   0.251   3.074  15.066 -0.1925  1.0734 -1.1321
10347TIP3   OH252455   6.433   3.788   1.136 -0.3678 -0.6319  0.7995
10347TIP3    H152456   6.396   3.805   1.222  0.8436  0.1080  1.1861
10347TIP3    H252457   6.498   3.857   1.123 -0.5276 -0.7367 -0.7026
10348TIP3   OH252458   1.251   6.508   0.128 -0.2481 -0.3846  0.5541
10348TIP3    H152459   1.177   6.558   0.162  1.0042  0.1356  2.5868
10348TIP3    H252460   1.267   6.441   0.194  2.2489  0.6519  1.0309
10349TIP3   OH252461   0.088   6.429   0.215  0.4434 -0.0359 -0.5262
10349TIP3    H152462   0.112   6.511   0.174 -0.1721 -0.4647 -1.7536
10349TIP3    H252463   0.167   6.400   0.260  1.1431  0.3721 -1.5010
10350TIP3   OH252464   0.708   1.026  15.194  0.2528 -0.2849 -0.3121
10350TIP3    H152465   0.677   0.976  15.270 -0.1228 -0.9719 -0.9102
10350TIP3    H252466   0.754   1.101  15.232 -0.3956 -0.3331  0.5978
10351TIP3   OH252467   0.503   1.608   1.010 -0.4676 -0.0048 -0.0385
10351TIP3    H152468   0.594   1.629   0.986 -0.1567  1.3342  2.1716
10351TIP3    H252469   0.511   1.537   1.073 -1.0676 -0.8980 -0.9471
10352TIP3   OH252470   0.577   1.732   1.886 -0.4201 -0.0914 -0.1110
10352TIP3    H152471   0.535   1.654   1.921 -1.1698  0.6205  0.6173
10352TIP3    H252472   0.505   1.783   1.849 -0.8502  2.8444  4.3588
10353TIP3   OH252473   6.965   7.241   2.090  0.0160  0.1603 -0.0615
10353TIP3    H152474   6.902   7.171   2.075 -0.6067  0.7643 -0.2901
10353TIP3    H252475   6.996   7.264   2.002 -1.9402  2.1464 -0.2733
10354TIP3   OH252476   0.630   5.860   0.763  0.1751  0.5391 -0.2031
10354TIP3    H152477   0.604   5.929   0.823 -0.2794 -0.8017  1.1532
10354TIP3    H252478   0.723   5.875   0.748  0.7967 -0.3217  2.4988
10355TIP3   OH252479   0.235   1.017   2.114  0.0798  0.4124  0.1459
10355TIP3    H152480   0.229   0.970   2.198  0.0691  1.4528  0.7338
10355TIP3    H252481   0.163   1.080   2.118  1.1184  1.6057  0.0715
10356TIP3   OH252482   1.987   4.722   3.500  0.2579 -0.2650  0.0817
10356TIP3    H152483   1.942   4.754   3.421  2.0924 -1.0931 -1.3393
10356TIP3    H252484   1.929   4.747   3.572 -0.9624  1.4576 -1.4319
10357TIP3   OH252485   0.763   5.957   1.034 -0.1474 -0.5876 -0.3289
10357TIP3    H152486   0.720   6.042   1.043  0.0102 -0.4875 -0.5269
10357TIP3    H252487   0.733   5.907   1.111  2.1101  0.6789  1.4432
10358TIP3   OH252488   2.145   6.199   1.360 -0.3708  0.4408  0.5478
10358TIP3    H152489   2.231   6.163   1.340 -0.4952 -1.3134  2.9078
10358TIP3    H252490   2.099   6.201   1.276  0.4844 -2.7359 -0.0444
10359TIP3   OH252491   0.874   6.763   0.456 -0.2567  0.9001 -0.0517
10359TIP3    H152492   0.905   6.820   0.386  1.3140  0.2220  0.0726
10359TIP3    H252493   0.834   6.822   0.520  0.7713  1.7969 -0.2256
10360TIP3   OH252494   5.962   2.217   0.546 -0.2626  0.1300  0.6473
10360TIP3    H152495   5.870   2.211   0.571 -0.4253  0.1618  0.0657
10360TIP3    H252496   5.992   2.126   0.542 -0.7922  0.0172 -1.0693
10361TIP3   OH252497   6.345   1.752  15.447 -0.0292 -0.1852 -0.8436
10361TIP3    H152498   6.413   1.718  15.390  0.1468 -1.4436  0.0692
10361TIP3    H252499   6.352   1.847  15.442  0.6887 -0.3072 -2.0485
10362TIP3   OH252500   6.921   1.456   1.777 -0.2854 -0.7002  0.5814
10362TIP3    H152501   6.835   1.464   1.818 -0.5317  0.0239 -0.0754
10362TIP3    H252502   6.905   1.473   1.684  0.5143 -0.8868  0.4061
10363TIP3   OH252503   6.136   1.287   2.631 -0.5018 -0.3165  0.3178
10363TIP3    H152504   6.133   1.199   2.594  0.8770 -0.1705 -0.1799
10363TIP3    H252505   6.108   1.344   2.560 -2.3485 -0.4108  0.9332
10364TIP3   OH252506   1.608   0.623   2.506  0.2812 -0.2059  0.4335
10364TIP3    H152507   1.576   0.543   2.548 -0.5949  0.7866  1.6794
10364TIP3    H252508   1.529   0.670   2.481  0.8005 -0.1113 -1.0535
10365TIP3   OH252509   7.157   1.171   0.205  0.6578 -0.0260  0.1918
10365TIP3    H152510   7.183   1.133   0.122  0.0357 -0.0266 -0.0038
10365TIP3    H252511   7.208   1.252   0.212 -1.3597  1.4529 -1.5233
10366TIP3   OH252512   2.549   3.404   0.673  0.4630  0.2644  0.2332
10366TIP3    H152513   2.539   3.372   0.763 -0.3591  0.7980  0.3383
10366TIP3    H252514   2.639   3.437   0.669  0.4092  0.5059  0.9406
10367TIP3   OH252515   2.850   2.874   1.310  1.0003  0.3221  0.2316
10367TIP3    H152516   2.773   2.888   1.255 -0.4933 -3.8374  1.0451
10367TIP3    H252517   2.837   2.932   1.385  0.0915  1.7213 -0.9942
10368TIP3   OH252518   2.551   2.945   1.447 -0.7089  0.1845  0.4002
10368TIP3    H152519   2.468   2.897   1.449 -0.1148 -0.7978  4.3800
10368TIP3    H252520   2.530   3.031   1.483  0.1188 -0.2899  2.0403
10369TIP3   OH252521   1.752   1.446   1.230 -0.2466  0.0458  0.8909
10369TIP3    H152522   1.729   1.353   1.233 -1.9459  0.4578  1.5865
10369TIP3    H252523   1.787   1.464   1.317 -0.8658  0.2762  1.0960
10370TIP3   OH252524   0.745   0.512   0.519 -0.0093  0.1414  0.6240
10370TIP3    H152525   0.811   0.454   0.558  1.2038  0.5354 -0.8016
10370TIP3    H252526   0.786   0.598   0.520 -0.3267  0.3148 -0.6983
10371TIP3   OH252527   1.416   0.375  15.471 -0.3542 -0.3924 -0.0296
10371TIP3    H152528   1.456   0.460  15.489 -2.5501  0.5072  0.6941
10371TIP3    H252529   1.327   0.395  15.442 -0.2088 -2.3506 -1.9711
10372TIP3   OH252530   7.150   0.651  14.410 -0.3920  0.2776 -0.2566
10372TIP3    H152531   7.220   0.597  14.446 -0.9364  0.0547  0.4800
10372TIP3    H252532   7.193   0.705  14.343  0.5430  0.3673  0.4099
10373TIP3   OH252533   1.612   1.708  14.597  0.0157 -0.4218  0.0714
10373TIP3    H152534   1.568   1.786  14.563  1.9212  1.2502  1.3154
10373TIP3    H252535   1.541   1.655  14.635 -1.6074 -0.4756 -2.8846
10374TIP3   OH252536   6.784   0.570  15.355 -0.4534 -0.6376 -0.3470
10374TIP3    H152537   6.754   0.508  15.422 -2.5677  1.9882  1.2157
10374TIP3    H252538   6.879   0.571  15.364 -0.6469 -0.9024  2.0872
10375TIP3   OH252539   1.188   0.449   3.156  0.0382 -1.2741  0.4683
10375TIP3    H152540   1.128   0.426   3.084  0.3558  0.0089 -0.2159
10375TIP3    H252541   1.273   0.415   3.128  0.1545 -0.8051  0.2366
10376TIP3   OH252542   0.289   6.116   1.055  0.0687 -0.5006 -0.0447
10376TIP3    H152543   0.296   6.208   1.027  0.9327  0.5034  3.2632
10376TIP3    H252544   0.197   6.093   1.039 -0.6634  1.6051  0.9612
10377TIP3   OH252545   3.766   1.837  14.959 -0.2031  0.1117  0.1339
10377TIP3    H152546   3.806   1.825  14.873  0.0273  1.8590 -0.0278
10377TIP3    H252547   3.775   1.752  15.002  1.1252 -0.3231 -0.9624
10378TIP3   OH252548   1.951   0.276  15.514 -0.9186 -0.1418  0.2413
10378TIP3    H152549   1.873   0.331  15.521 -0.5861  0.4187 -0.4449
10378TIP3    H252550   1.919   0.192  15.481 -1.2808 -0.0281  0.3062
10379TIP3   OH252551   6.768   3.330   1.077  0.0375  0.3222 -0.3500
10379TIP3    H152552   6.763   3.302   0.986 -0.4161  0.7125 -0.4476
10379TIP3    H252553   6.726   3.416   1.078 -2.6448 -0.9178  0.7294
10380TIP3   OH252554   2.843   2.023   2.585 -0.8226 -0.0884  0.0388
10380TIP3    H152555   2.907   2.094   2.578 -0.9507  0.2240  1.9435
10380TIP3    H252556   2.896   1.943   2.575 -0.6249  0.2363 -1.7100
10381TIP3   OH252557   3.765   2.276   1.723  0.0408 -0.3260 -0.2568
10381TIP3    H152558   3.843   2.331   1.725 -0.4194  0.4440 -2.3841
10381TIP3    H252559   3.750   2.260   1.630 -0.5988 -2.9703  0.2683
10382TIP3   OH252560   2.158   7.193  14.660  0.1553 -0.1168  0.5455
10382TIP3    H152561   2.241   7.200  14.612 -1.1394  2.0146 -1.5091
10382TIP3    H252562   2.118   7.112  14.629  0.8027 -0.4037  0.4540
10383TIP3   OH252563   0.819   1.639  15.496 -0.2736  0.1122  0.9778
10383TIP3    H152564   0.862   1.645  15.581 -0.6042  1.7612  1.0327
10383TIP3    H252565   0.842   1.720  15.451 -0.8135 -0.3616 -0.1705
10384TIP3   OH252566   0.127   1.366  15.231  0.3145  0.0590  0.3984
10384TIP3    H152567   0.104   1.455  15.257  0.2770 -0.0461  0.7322
10384TIP3    H252568   0.161   1.375  15.142 -2.4292  0.0312 -0.7255
10385TIP3   OH252569   1.173   6.841   1.625 -0.2833 -0.0803 -0.2247
10385TIP3    H152570   1.265   6.856   1.647 -0.3830 -0.1175  0.2174
10385TIP3    H252571   1.130   6.830   1.709 -0.4129 -1.6531 -0.4735
10386TIP3   OH252572   6.854   6.423  14.814  0.0534  0.3197  0.4361
10386TIP3    H152573   6.904   6.361  14.866 -0.9315 -1.2898 -0.4822
10386TIP3    H252574   6.763   6.411  14.843  0.0277  2.4024  1.3019
10387TIP3   OH252575   0.302   6.364   0.904  0.1164  0.0923  0.8805
10387TIP3    H152576   0.357   6.442   0.896 -0.2709  0.2978  0.2551
10387TIP3    H252577   0.293   6.332   0.815 -1.1193  0.2834  0.9360
10388TIP3   OH252578   0.627   0.908   2.338  0.0627 -0.2853 -0.1082
10388TIP3    H152579   0.555   0.878   2.283 -0.7239  1.5488 -0.1123
10388TIP3    H252580   0.696   0.934   2.277  0.0654 -0.4139 -0.1590
10389TIP3   OH252581   0.597   6.309   0.464  0.0648  0.4857 -0.7293
10389TIP3    H152582   0.650   6.389   0.464  1.3895 -0.3811 -0.5646
10389TIP3    H252583   0.657   6.241   0.433 -0.6641 -0.6992  0.4187
10390TIP3   OH252584   1.882   4.392  15.847 -0.0138  0.4854 -0.3052
10390TIP3    H152585   1.824   4.448  15.900 -1.2611  0.6794 -1.8603
10390TIP3    H252586   1.969   4.430  15.859 -0.2932  0.6485  1.4421
10391TIP3   OH252587   1.277   4.570   1.622  0.0728  0.4400  0.3380
10391TIP3    H152588   1.226   4.594   1.545 -0.9302 -1.3061  0.4513
10391TIP3    H252589   1.238   4.621   1.693 -1.1716 -0.4778  0.3195
10392TIP3   OH252590   5.129   2.611   2.050  0.4606  0.2504 -0.2189
10392TIP3    H152591   5.170   2.524   2.044 -0.6028 -0.1307 -2.1357
10392TIP3    H252592   5.039   2.594   2.077  0.0799  0.7051 -1.1772
10393TIP3   OH252593   2.603   1.975   3.419  0.4347 -0.3816 -0.1326
10393TIP3    H152594   2.538   1.916   3.457 -0.4161  0.2970 -0.5104
10393TIP3    H252595   2.552   2.039   3.370  1.3054  1.0892  0.8442
10394TIP3   OH252596   7.269   0.576  15.484 -0.1677 -0.2206  0.1279
10394TIP3    H152597   7.296   0.588  15.575  0.7523  0.3639 -0.2159
10394TIP3    H252598   7.214   0.497  15.485 -0.4346 -0.0254  1.2381
10395TIP3   OH252599   6.326   4.058   2.165 -0.6122  0.5200 -0.5843
10395TIP3    H152600   6.349   4.010   2.085 -2.2548  3.1667 -2.7217
10395TIP3    H252601   6.240   4.097   2.146  0.2964  3.6659  1.3552
10396TIP3   OH252602   6.306   1.817   0.940 -0.6715  0.5032  0.5078
10396TIP3    H152603   6.224   1.810   0.988 -0.0641 -0.4334  1.4414
10396TIP3    H252604   6.351   1.734   0.956  1.3686  1.7949  1.7120
10397TIP3   OH252605   1.986   2.252   2.175  0.6042 -0.0847 -0.0195
10397TIP3    H152606   2.077   2.227   2.188  0.7557  0.6525  0.3376
10397TIP3    H252607   1.936   2.176   2.207  1.1232 -1.6244 -2.7476
10398TIP3   OH252608   7.288   2.356   0.908 -0.6599 -0.3474 -0.5663
10398TIP3    H152609   7.242   2.281   0.871  0.2391 -0.6021 -1.2034
10398TIP3    H252610   7.219   2.421   0.925 -1.3816 -1.1417 -0.4404
10399TIP3   OH252611   1.479   2.149   0.912  0.5508 -0.2195 -0.0497
10399TIP3    H152612   1.397   2.145   0.864  0.6234  0.0269 -0.1930
10399TIP3    H252613   1.455   2.126   1.002  0.3347 -0.1955 -0.1003
10400TIP3   OH252614   6.877   2.609  15.880 -0.4555 -0.4014 -0.3391
10400TIP3    H152615   6.878   2.605  15.784 -2.2396 -0.5540 -0.3750
10400TIP3    H252616   6.786   2.592  15.903  0.1750 -1.5396  1.4420
10401TIP3   OH252617   1.027   3.142   2.411  0.1674 -0.0434 -0.3637
10401TIP3    H152618   1.070   3.227   2.419 -0.4119  0.1295  0.9508
10401TIP3    H252619   1.099   3.080   2.399  0.7700  0.3203  1.2190
10402TIP3   OH252620   5.089   2.007   1.494  0.2239  0.3972  0.1505
10402TIP3    H152621   5.111   2.044   1.409  0.0406  3.1697  1.2614
10402TIP3    H252622   4.995   1.988   1.489  0.4596 -0.6128 -0.6570
10403TIP3   OH252623   1.519   6.025   1.442 -0.3810  0.1240 -0.8159
10403TIP3    H152624   1.538   6.113   1.410  0.0446  0.5665  0.5961
10403TIP3    H252625   1.598   5.999   1.489 -1.2978 -0.0997  0.6716
10404TIP3   OH252626   2.456   2.525   0.361 -0.2129 -0.5083  0.7629
10404TIP3    H152627   2.525   2.484   0.415 -0.6292  0.5977  2.1810
10404TIP3    H252628   2.466   2.485   0.275 -0.2557 -3.1942  1.9414
10405TIP3   OH252629   3.995   2.549   2.022 -0.0538  0.3669  0.0130
10405TIP3    H152630   3.902   2.562   2.045 -0.3904 -2.0070  0.1471
10405TIP3    H252631   4.024   2.635   1.991 -2.6118  0.8745 -1.1212
10406TIP3   OH252632   0.265   0.338   1.864  0.3851 -1.0367  0.1310
10406TIP3    H152633   0.237   0.359   1.775  1.9972  0.5807 -0.0087
10406TIP3    H252634   0.254   0.243   1.870  1.0515 -1.2716 -2.0676
10407TIP3   OH252635   6.856   5.031   0.700 -0.1944 -0.1515 -0.3481
10407TIP3    H152636   6.923   5.028   0.632  0.6270  2.9131  0.2710
10407TIP3    H252637   6.776   5.055   0.653  0.2074  1.1686 -0.3835
10408TIP3   OH252638   6.917   4.059  15.146 -0.1322  0.2757 -0.4286
10408TIP3    H152639   6.928   4.136  15.201 -0.8823  0.4539 -0.5253
10408TIP3    H252640   6.986   3.999  15.175 -0.5916  0.3201  0.7858
10409TIP3   OH252641   2.239   1.153   1.412  0.3281  0.0607  0.7661
10409TIP3    H152642   2.221   1.071   1.458  0.9657 -1.2370 -1.2332
10409TIP3    H252643   2.160   1.172   1.363  0.9754 -0.5714 -0.5407
10410TIP3   OH252644   1.822   6.589   1.544 -0.4742 -0.0347 -0.0828
10410TIP3    H152645   1.911   6.564   1.522 -0.1042  0.3043  0.9965
10410TIP3    H252646   1.825   6.684   1.555 -0.9972 -0.0018 -0.1757
10411TIP3   OH252647   0.645   2.844   0.893 -0.7244  0.0085 -0.2402
10411TIP3    H152648   0.597   2.827   0.974 -0.7567  0.1859 -0.2225
10411TIP3    H252649   0.590   2.806   0.825 -0.6260 -0.2736 -0.1657
10412TIP3   OH252650   7.098   6.328  15.314 -0.0711  0.0513 -0.4017
10412TIP3    H152651   7.179   6.350  15.268 -0.1261 -2.1512 -1.6169
10412TIP3    H252652   7.071   6.245  15.276 -1.2230 -0.8212  2.2082
10413TIP3   OH252653   1.371   6.911   0.462 -0.2216 -0.2972 -0.3150
10413TIP3    H152654   1.463   6.909   0.489 -0.4041  0.2705  0.3522
10413TIP3    H252655   1.374   6.929   0.368  0.3579 -0.6026 -0.3580
10414TIP3   OH252656   1.449   3.478  15.620  0.1658  0.1382  0.3839
10414TIP3    H152657   1.445   3.476  15.716 -0.5332 -1.8271  0.3474
10414TIP3    H252658   1.531   3.433  15.599  1.0239  1.8204  0.0803
10415TIP3   OH252659   2.141   3.618  14.767 -0.2596 -0.0281 -0.0353
10415TIP3    H152660   2.112   3.659  14.848 -0.7299  1.6277 -1.0341
10415TIP3    H252661   2.067   3.565  14.738 -0.7132  0.7665 -0.3131
10416TIP3   OH252662   6.794   6.686   2.562  0.5516  0.3198  0.3344
10416TIP3    H152663   6.876   6.678   2.514  1.2019  2.2779  1.0363
10416TIP3    H252664   6.773   6.779   2.557 -1.5207 -0.1257  0.3586
10417TIP3   OH252665   2.040   4.251   1.789  0.0041 -0.3950 -0.2480
10417TIP3    H152666   2.000   4.337   1.793  1.3010  0.1616  1.1319
10417TIP3    H252667   2.115   4.256   1.849  1.4924 -1.7307 -1.9157
10418TIP3   OH252668   6.239   1.818   1.957 -0.9471 -0.1495 -0.3001
10418TIP3    H152669   6.183   1.767   2.014 -0.9348  1.0739  0.8254
10418TIP3    H252670   6.195   1.817   1.872 -1.8176 -0.5737  0.1581
10419TIP3   OH252671   2.329   6.325   3.405  0.1273 -0.5260  0.0051
10419TIP3    H152672   2.320   6.230   3.408 -1.2660 -0.4525 -1.3378
10419TIP3    H252673   2.270   6.358   3.473 -2.3349 -0.4853 -2.0794
10420TIP3   OH252674   0.731   1.780  15.139 -0.2189  0.2960 -0.0520
10420TIP3    H152675   0.680   1.706  15.172 -0.2624 -0.3590 -1.5364
10420TIP3    H252676   0.689   1.802  15.055  0.3903  1.3877 -0.0850
10421TIP3   OH252677   3.053   1.017   3.725  0.4104  0.4114  0.2146
10421TIP3    H152678   2.992   1.088   3.706 -0.2383  0.2660  1.7012
10421TIP3    H252679   3.002   0.937   3.716  1.3266  0.0635 -2.1837
10422TIP3   OH252680   1.876   1.756   1.850  0.1876  0.1114  0.7167
10422TIP3    H152681   1.913   1.670   1.829 -0.8099 -0.1795  0.1378
10422TIP3    H252682   1.836   1.786   1.769  0.0251  0.8629  1.0712
10423TIP3   OH252683   2.430   0.561   2.268 -0.3330  0.0895 -0.1492
10423TIP3    H152684   2.451   0.575   2.360 -0.7566  0.4470 -0.1093
10423TIP3    H252685   2.349   0.511   2.268 -1.0692  1.2505 -0.3340
10424TIP3   OH252686   2.947   4.233   1.360 -0.7201 -0.5120 -0.2070
10424TIP3    H152687   3.041   4.241   1.375 -0.5021 -0.1106 -1.6983
10424TIP3    H252688   2.909   4.309   1.404 -0.2068  0.0908 -0.7942
10425TIP3   OH252689   3.533   3.209   0.431  1.0478 -0.7358  0.6042
10425TIP3    H152690   3.458   3.161   0.467  0.2623 -0.2812 -0.3748
10425TIP3    H252691   3.545   3.283   0.489 -0.8548  0.5552 -0.5875
10426TIP3   OH252692   6.520   2.675  14.296 -0.2018 -0.0461 -0.2640
10426TIP3    H152693   6.440   2.725  14.280  0.4467  1.6113  1.5145
10426TIP3    H252694   6.505   2.591  14.252 -3.4252 -0.2245  1.0343
10427TIP3   OH252695   1.340   2.346   2.808 -0.4212 -0.2272  0.0609
10427TIP3    H152696   1.275   2.377   2.744 -1.4318 -1.3177  0.5438
10427TIP3    H252697   1.288   2.302   2.875  0.8834 -1.8963 -0.0024
10428TIP3   OH252698   2.461   7.095  15.781 -0.2960  0.0095 -0.1146
10428TIP3    H152699   2.455   7.150  15.859 -1.0396 -0.5549  0.2318
10428TIP3    H252700   2.379   7.111  15.734 -0.4848 -0.7450 -0.0495
10429TIP3   OH252701   3.196   3.795   1.552  0.0907 -0.0069  0.0641
10429TIP3    H152702   3.230   3.715   1.514  0.4110 -1.2076  2.7895
10429TIP3    H252703   3.272   3.838   1.591 -0.4042  0.6607  0.3158
10430TIP3   OH252704   1.621   6.880   3.445 -0.0197 -0.5542 -0.5357
10430TIP3    H152705   1.595   6.966   3.411  1.5757  0.1361 -0.0608
10430TIP3    H252706   1.617   6.890   3.540 -2.3788 -1.8301 -0.4530
10431TIP3   OH252707   2.438   1.922   3.743  0.9847 -0.0189 -0.5828
10431TIP3    H152708   2.400   1.966   3.668  0.9575 -0.3797 -0.7835
10431TIP3    H252709   2.440   1.829   3.718  2.1940  0.0194 -0.6702
10432TIP3   OH252710   1.408   1.647   0.418  0.3013 -0.1272  0.3282
10432TIP3    H152711   1.472   1.705   0.379 -1.8924  2.0258 -0.1933
10432TIP3    H252712   1.419   1.658   0.512  1.3872 -0.5684  0.2558
10433TIP3   OH252713   4.787   2.032  15.404  0.7106  0.3698  0.0824
10433TIP3    H152714   4.868   2.060  15.361 -0.3168  1.6590 -1.0737
10433TIP3    H252715   4.724   2.020  15.332 -0.2359 -0.2427  0.9875
10434TIP3   OH252716   3.270   6.766   0.564  0.1291  0.7415  0.1595
10434TIP3    H152717   3.332   6.718   0.510  0.3918 -1.1255  2.0473
10434TIP3    H252718   3.270   6.855   0.529  1.7651  0.0474 -1.6128
10435TIP3   OH252719   2.764   2.659   0.260 -0.4867 -0.2278 -0.2723
10435TIP3    H152720   2.782   2.580   0.311  1.8582  0.1275 -0.5191
10435TIP3    H252721   2.752   2.627   0.171 -0.6652 -0.4164 -0.1834
10436TIP3   OH252722   2.408   7.180  15.411  0.0306 -0.2466  0.7602
10436TIP3    H152723   2.378   7.118  15.478  0.9975  1.3478  2.7296
10436TIP3    H252724   2.330   7.231  15.389 -0.2868 -0.7515  0.7169
10437TIP3   OH252725   2.211   1.843   2.475 -0.0955 -0.5014 -0.3761
10437TIP3    H152726   2.300   1.851   2.509  0.0639 -0.8203 -0.7243
10437TIP3    H252727   2.156   1.875   2.546  0.1440 -2.5172  0.7559
10438TIP3   OH252728   1.523   0.241  15.080  0.2505 -0.5608 -0.2644
10438TIP3    H152729   1.574   0.291  15.143 -1.0510 -1.0418  1.1961
10438TIP3    H252730   1.450   0.206  15.130 -0.0064 -2.1824 -1.7215
10439TIP3   OH252731   2.752   0.908   1.150 -0.1337  0.3816 -0.6176
10439TIP3    H152732   2.793   0.885   1.233  0.6433 -0.0397 -1.1176
10439TIP3    H252733   2.758   0.829   1.097 -2.6381 -0.0638 -0.2967
10440TIP3   OH252734   3.831   1.047  14.876  0.3461  0.7668 -0.4807
10440TIP3    H152735   3.777   0.994  14.935  3.3222 -0.9872  0.7957
10440TIP3    H252736   3.830   1.134  14.915 -1.0376  0.5879 -0.1119
10441TIP3   OH252737   1.431   1.605  15.941  0.5257 -0.2198 -0.4420
10441TIP3    H152738   1.462   1.516  15.924  1.4163  0.6113 -3.5466
10441TIP3    H252739   1.510   1.659  15.943  0.1525  0.2623  3.3952
10442TIP3   OH252740   2.114   6.270   2.124 -0.4756 -0.6085  0.3370
10442TIP3    H152741   2.183   6.329   2.156 -0.8664 -0.6718  1.3077
10442TIP3    H252742   2.157   6.219   2.056 -0.0961  0.7061 -0.4277
10443TIP3   OH252743   1.485   1.956   0.323  0.3087  0.0539 -0.5451
10443TIP3    H152744   1.578   1.969   0.305  0.4807 -0.5997 -0.1439
10443TIP3    H252745   1.443   2.037   0.294  1.2023  1.0469  0.8805
10444TIP3   OH252746   5.183   0.713   2.886 -0.0321 -0.5943 -1.2228
10444TIP3    H152747   5.096   0.692   2.920  0.3158 -1.6144 -0.9363
10444TIP3    H252748   5.178   0.691   2.793  0.0890 -1.2232 -1.0860
10445TIP3   OH252749   1.733   0.220  15.347 -0.5298 -0.3399 -0.9086
10445TIP3    H152750   1.716   0.311  15.322  1.0737  0.5378  0.9981
10445TIP3    H252751   1.758   0.177  15.266  0.0580  1.2780 -1.6130
10446TIP3   OH252752   4.047   0.355   2.489  0.5121  0.0601 -0.8151
10446TIP3    H152753   4.103   0.290   2.531  1.2074  1.3738  0.3455
10446TIP3    H252754   4.108   0.416   2.446 -0.0187  1.3599  0.2394
10447TIP3   OH252755   3.474   1.706   1.670 -0.4244  0.2570 -0.2513
10447TIP3    H152756   3.430   1.633   1.714  0.5238  0.2934  0.7949
10447TIP3    H252757   3.429   1.784   1.701 -0.3619  0.2182 -0.0606
10448TIP3   OH252758   3.329   0.711  15.564  0.0669  0.1307  0.3332
10448TIP3    H152759   3.330   0.619  15.590  1.2649  0.5089  1.6701
10448TIP3    H252760   3.398   0.719  15.498  0.1409  0.1172  0.4083
10449TIP3   OH252761   3.266   1.295  15.405  0.1053 -0.1596  0.2825
10449TIP3    H152762   3.179   1.282  15.442 -0.7374 -1.1433 -1.9264
10449TIP3    H252763   3.310   1.353  15.467 -1.6012 -0.8255  2.1791
10450TIP3   OH252764   2.767   0.389   1.381 -0.3361 -0.1233 -0.3215
10450TIP3    H152765   2.713   0.316   1.414  0.3774 -0.5230 -0.0329
10450TIP3    H252766   2.800   0.357   1.297  0.6654 -0.4712  0.1993
10451TIP3   OH252767   2.777   6.583   0.143 -0.0012 -0.0461  0.1887
10451TIP3    H152768   2.806   6.611   0.229  0.3276  0.1466  0.0142
10451TIP3    H252769   2.802   6.654   0.084 -0.4036 -0.0849 -0.0362
10452TIP3   OH252770   1.783   1.041   1.582 -0.4829  0.0984  0.0110
10452TIP3    H152771   1.811   0.955   1.612 -0.7988 -0.3373 -0.9326
10452TIP3    H252772   1.709   1.023   1.524 -1.1296  1.0679  0.5220
10453TIP3   OH252773   2.761   1.039  14.994  0.1109 -0.3334 -0.6422
10453TIP3    H152774   2.823   1.078  15.056  1.1709  1.0508 -2.4820
10453TIP3    H252775   2.679   1.086  15.010  0.9406  1.5709 -1.6988
10454TIP3   OH252776   3.890   6.797   2.905  0.3477 -0.1989 -0.7447
10454TIP3    H152777   3.807   6.760   2.875 -0.3567  0.9171 -0.2213
10454TIP3    H252778   3.869   6.888   2.926  1.7345  0.1236 -0.7144
10455TIP3   OH252779   7.164   7.230  13.927  0.3285 -0.1684  0.1117
10455TIP3    H152780   7.131   7.312  13.892  0.7778 -0.0751 -0.0923
10455TIP3    H252781   7.096   7.201  13.988 -0.8554 -0.7528 -1.4379
10456TIP3   OH252782   3.499   2.142   2.845  0.1356  0.1780 -0.5539
10456TIP3    H152783   3.527   2.116   2.758  0.1241  0.9962 -0.8126
10456TIP3    H252784   3.575   2.187   2.882 -0.1634  0.6330 -0.4905
10457TIP3   OH252785   2.723   0.853   0.015  0.4805 -0.3900  0.3415
10457TIP3    H152786   2.719   0.932  -0.038  1.0265 -0.1023  0.7218
10457TIP3    H252787   2.799   0.866   0.072  0.8205 -1.3637  0.1277
10458TIP3   OH252788   1.932   2.270   0.767  0.1595  0.0378  0.6038
10458TIP3    H152789   2.006   2.262   0.827 -0.0652  1.8063  1.1440
10458TIP3    H252790   1.865   2.212   0.804  0.1570  0.8296  1.8541
10459TIP3   OH252791   2.268   0.011  15.036 -0.4424  0.9432 -0.3073
10459TIP3    H152792   2.295   0.077  14.972  0.3313 -0.5466 -1.5695
10459TIP3    H252793   2.252   0.060  15.116  4.0102  2.1879 -0.0830
10460TIP3   OH252794   3.404   0.817   0.078 -0.4457  0.1517 -0.5381
10460TIP3    H152795   3.331   0.836   0.018  0.5618  2.1605 -1.1694
10460TIP3    H252796   3.406   0.722   0.083 -1.7447  0.0054 -2.2380
10461TIP3   OH252797   2.088   0.945   0.647  0.7324 -0.6445  0.1842
10461TIP3    H152798   2.013   0.903   0.604  2.2084 -2.5519 -0.5651
10461TIP3    H252799   2.088   0.910   0.736 -1.1672  1.8432  1.2343
10462TIP3   OH252800   6.865   1.489  15.483 -0.1340  0.4052 -0.0114
10462TIP3    H152801   6.771   1.482  15.466 -0.2863  0.8499  0.6171
10462TIP3    H252802   6.892   1.568  15.435  0.0220  0.0019 -0.5985
10463TIP3   OH252803   1.460   1.965   1.317 -1.1566 -0.0446  0.1167
10463TIP3    H152804   1.465   1.963   1.413  0.6003  0.0396  0.0355
10463TIP3    H252805   1.489   2.053   1.293  1.7185 -1.1604 -0.6485
10464TIP3   OH252806   3.354   0.445  15.376 -0.2251  0.0099 -0.2634
10464TIP3    H152807   3.405   0.526  15.376  0.1440 -0.2227 -1.4368
10464TIP3    H252808   3.279   0.464  15.320 -1.2100  0.1915  1.0765
10465TIP3   OH252809   1.455   6.807   0.048  0.0222 -0.7064  0.1595
10465TIP3    H152810   1.373   6.783   0.092 -0.9669 -1.7424 -2.1886
10465TIP3    H252811   1.522   6.757   0.095 -0.9195 -1.2367  0.9742
10466TIP3   OH252812   3.094   7.128   0.651  0.1835 -0.4407 -0.3408
10466TIP3    H152813   3.184   7.161   0.653 -0.1783  0.4782  1.0563
10466TIP3    H252814   3.055   7.171   0.575  1.4564 -2.3061 -2.1074
10467TIP3   OH252815   0.377   0.083   0.911 -0.9600 -0.9994 -0.0404
10467TIP3    H152816   0.326   0.155   0.948 -0.8457 -1.2175  0.5455
10467TIP3    H252817   0.386   0.021   0.983 -0.1004 -1.0858 -0.2199
10468TIP3   OH252818   3.586   1.713  14.348  0.9740 -0.1201  0.6417
10468TIP3    H152819   3.530   1.647  14.309  1.4175  0.7489 -1.5208
10468TIP3    H252820   3.555   1.721  14.438 -1.4617 -0.6277 -0.1367
10469TIP3   OH252821   2.290   1.064   0.492  0.1701 -0.2890 -0.0766
10469TIP3    H152822   2.283   1.014   0.573  0.6506 -0.2509 -0.0122
10469TIP3    H252823   2.210   1.042   0.444 -1.6887  2.1776  1.7817
10470TIP3   OH252824   3.374   2.460   2.232 -0.1881  0.3662  0.2175
10470TIP3    H152825   3.377   2.367   2.211 -0.4002  0.2925  0.4994
10470TIP3    H252826   3.442   2.471   2.298 -1.6186 -0.0280  1.8066
10471TIP3   OH252827   2.689   0.670  15.505 -0.1313 -0.2732  0.5466
10471TIP3    H152828   2.653   0.596  15.554 -1.0646 -0.2828 -0.1480
10471TIP3    H252829   2.626   0.740  15.517  1.0170  0.6073  1.6543
10472TIP3   OH252830   1.588   2.807  15.448 -0.2843 -0.0076  0.1176
10472TIP3    H152831   1.493   2.811  15.449 -0.2678  2.1299 -1.8382
10472TIP3    H252832   1.616   2.843  15.532 -1.1771  0.5989  0.1498
10473TIP3   OH252833   2.692   4.447  15.852 -0.3419  0.4526 -0.5634
10473TIP3    H152834   2.759   4.461  15.785  0.8069  0.0492  0.4749
10473TIP3    H252835   2.630   4.386  15.812  0.4957 -0.0151 -1.1520
10474TIP3   OH252836   3.748   1.037   0.232  0.0520 -0.3710 -0.0751
10474TIP3    H152837   3.662   1.000   0.252  0.1410 -0.6996 -0.2932
10474TIP3    H252838   3.737   1.077   0.146  0.0674 -0.2582 -0.0237
10475TIP3   OH252839   2.844   2.478   1.397  0.4673 -0.1976  0.8206
10475TIP3    H152840   2.842   2.565   1.357  1.0637  1.4573  4.2419
10475TIP3    H252841   2.755   2.443   1.385 -0.2537  1.5870  0.9115
10476TIP3   OH252842   2.315   0.752   0.755 -0.4993  0.1170 -0.2687
10476TIP3    H152843   2.393   0.807   0.758 -0.8562  0.6187  0.0505
10476TIP3    H252844   2.298   0.738   0.662  0.1508 -0.2553 -0.3319
10477TIP3   OH252845   2.870   6.968  15.206  0.1618  0.4101  0.2981
10477TIP3    H152846   2.830   6.887  15.236  2.5651 -0.9351  0.0347
10477TIP3    H252847   2.920   6.942  15.128  0.6982  2.2069  0.0169
10478TIP3   OH252848   3.564   0.531   0.572  0.1120 -0.6027  0.7581
10478TIP3    H152849   3.651   0.570   0.583  0.4873 -0.6598 -1.6755
10478TIP3    H252850   3.526   0.531   0.660  1.9825  0.8193  1.5995
10479TIP3   OH252851   4.872   1.094   1.158  0.0862  0.2651 -0.2572
10479TIP3    H152852   4.934   1.025   1.134  1.3679  1.1346  0.4881
10479TIP3    H252853   4.805   1.049   1.210  1.2193 -0.3346  0.7127
10480TIP3   OH252854   4.042   2.191  15.549 -0.3804  0.4395 -0.0519
10480TIP3    H152855   3.961   2.184  15.498  0.0855  0.1991 -0.7760
10480TIP3    H252856   4.081   2.103  15.545  0.6877  0.9394 -1.0353
10481TIP3   OH252857   6.809   0.568  15.969 -0.2240 -0.1779  0.2917
10481TIP3    H152858   6.714   0.580  15.970 -0.0743  1.1495 -0.2727
10481TIP3    H252859   6.821   0.473  15.979 -1.6549 -0.5745 -1.3607
10482TIP3   OH252860   0.444   1.128   2.438  0.1014  0.0328  0.4816
10482TIP3    H152861   0.496   1.048   2.439  0.4607  0.2478 -0.6650
10482TIP3    H252862   0.505   1.196   2.408 -0.5430  0.4990  0.2224
10483TIP3   OH252863   2.210   0.445  13.993  0.3160 -0.1847 -0.1776
10483TIP3    H152864   2.128   0.400  13.977  0.1259 -0.0197  0.3289
10483TIP3    H252865   2.265   0.380  14.037  0.7000 -0.5137 -1.1408
10484TIP3   OH252866   3.847   2.916   3.453  0.4591  0.7211  0.0272
10484TIP3    H152867   3.809   2.829   3.442  0.7613  0.6288 -0.3125
10484TIP3    H252868   3.780   2.977   3.422  0.6707  0.5489 -0.7637
10485TIP3   OH252869   5.532   3.074   3.320 -0.0958 -0.7447 -0.0788
10485TIP3    H152870   5.542   3.035   3.407 -0.7071 -0.6176  0.0536
10485TIP3    H252871   5.594   3.147   3.319  0.1761 -0.9730  0.1141
10486TIP3   OH252872   3.757   2.650   3.424 -0.1861  0.0787  0.3562
10486TIP3    H152873   3.807   2.570   3.441 -0.9763  0.2348  3.6301
10486TIP3    H252874   3.673   2.619   3.391 -1.6963 -0.6855  4.6348
10487TIP3   OH252875   1.263   3.111  15.750  0.1721  0.1133  0.2516
10487TIP3    H152876   1.290   3.022  15.727  0.2384 -0.1943  1.5173
10487TIP3    H252877   1.232   3.148  15.667 -1.7817 -1.7660  0.0924
10488TIP3   OH252878   2.036   0.527  15.889 -0.4686  0.0062 -0.7670
10488TIP3    H152879   2.061   0.438  15.913  1.6031  0.8066  0.1714
10488TIP3    H252880   2.025   0.524  15.794  2.7526 -0.5488 -1.1846
10489TIP3   OH252881   1.503   0.964  15.184  0.0404  0.6262 -0.2551
10489TIP3    H152882   1.457   1.047  15.199 -0.2658  0.7864 -1.9584
10489TIP3    H252883   1.504   0.921  15.270 -1.0267  1.7630  0.3498
10490TIP3   OH252884   3.214   1.173   1.400 -0.2968 -0.3885 -0.0147
10490TIP3    H152885   3.131   1.198   1.359  0.4178  0.1289 -1.1443
10490TIP3    H252886   3.217   1.078   1.391 -0.0887 -0.2757 -1.3095
10491TIP3   OH252887   2.537   2.090   0.716 -0.0152 -0.0255  0.1949
10491TIP3    H152888   2.522   2.164   0.774 -0.7680 -0.6949  0.8750
10491TIP3    H252889   2.464   2.030   0.734  0.3337 -0.7271 -0.6669
10492TIP3   OH252890   3.470   0.586   0.899 -0.1336 -0.3259 -0.1893
10492TIP3    H152891   3.402   0.555   0.960  0.1086 -2.1430 -0.8268
10492TIP3    H252892   3.537   0.624   0.956 -0.4817 -0.8921  0.6194
10493TIP3   OH252893   4.707   6.940   1.848 -0.1598 -0.2313  0.2416
10493TIP3    H152894   4.735   6.896   1.767  1.2962  0.7052  0.2178
10493TIP3    H252895   4.690   7.030   1.821  1.0332  0.2644  1.1115
10494TIP3   OH252896   3.462   1.534   0.673  0.0123  0.2891  0.0372
10494TIP3    H152897   3.505   1.551   0.757 -1.3199 -0.2396  0.8349
10494TIP3    H252898   3.395   1.602   0.665  0.9040  1.0686 -1.1760
10495TIP3   OH252899   3.004   6.849   2.777  0.1130  0.2406 -0.4645
10495TIP3    H152900   2.987   6.802   2.859  1.6801  1.5654  0.6618
10495TIP3    H252901   3.023   6.939   2.805  1.0112  0.6198 -2.2448
10496TIP3   OH252902   2.338   0.394   0.817 -0.0957  0.0447  0.2671
10496TIP3    H152903   2.325   0.477   0.863  0.5948 -0.2052  0.9217
10496TIP3    H252904   2.426   0.366   0.843  1.0426  0.7560 -2.5179
10497TIP3   OH252905   2.665   3.637   2.380 -0.1020  0.0647  0.9882
10497TIP3    H152906   2.583   3.680   2.402  0.1651 -0.3834  2.9828
10497TIP3    H252907   2.730   3.679   2.436  0.7392 -0.6718  0.5800
10498TIP3   OH252908   0.761   2.858  15.800  0.0565  0.1065  0.1826
10498TIP3    H152909   0.754   2.765  15.777 -0.9071  0.4223 -0.8550
10498TIP3    H252910   0.849   2.867  15.837  0.6110 -0.9785 -0.8346
10499TIP3   OH252911   2.257   1.146  15.041  0.1399  0.2200 -0.4105
10499TIP3    H152912   2.227   1.231  15.006 -0.5108 -0.2577 -1.0223
10499TIP3    H252913   2.255   1.087  14.966 -2.4587 -1.1380  0.6666
10500TIP3   OH252914   2.230   0.640   0.994  0.0816  0.1386 -0.3800
10500TIP3    H152915   2.237   0.677   0.906  1.1162 -1.5061 -1.0054
10500TIP3    H252916   2.317   0.649   1.031  0.3781 -1.7195 -0.5801
10501TIP3   OH252917   3.367   0.883  15.095 -0.2267 -0.0118  0.0647
10501TIP3    H152918   3.278   0.912  15.113 -0.0371  0.2902  0.5077
10501TIP3    H252919   3.417   0.964  15.086 -0.0744 -0.1717 -0.5851
10502TIP3   OH252920   3.010   2.222   1.944  0.2149  0.0516 -0.2635
10502TIP3    H152921   3.047   2.177   2.020  1.1726 -0.5691 -1.0825
10502TIP3    H252922   3.078   2.284   1.917 -0.9610  1.7746  0.6439
10503TIP3   OH252923   3.636   2.215  15.720 -0.1779  0.0391  0.2669
10503TIP3    H152924   3.611   2.308  15.725  1.1096  0.4251 -0.3392
10503TIP3    H252925   3.731   2.216  15.723 -0.1123 -1.1839 -1.1104
10504TIP3   OH252926   3.447   0.618  14.958  0.4489  0.4819 -0.5781
10504TIP3    H152927   3.482   0.675  15.027  0.5340 -0.5774  0.2732
10504TIP3    H252928   3.356   0.603  14.983  0.6122 -0.2963 -0.4109
10505TIP3   OH252929   4.734   7.065   3.510  0.2229 -0.1796 -0.3384
10505TIP3    H152930   4.757   6.990   3.455 -0.9690  0.3469 -1.6168
10505TIP3    H252931   4.685   7.028   3.583  1.5272 -0.8569  0.2153
10506TIP3   OH252932   4.542   6.091  15.758 -0.2201 -0.4963 -0.0461
10506TIP3    H152933   4.452   6.080  15.790  0.0066 -1.8225  0.1468
10506TIP3    H252934   4.583   6.148  15.823 -0.3382 -1.5501  0.9722
10507TIP3   OH252935   0.840   6.538  15.624 -0.0662  0.1274  0.4596
10507TIP3    H152936   0.814   6.540  15.532 -0.2133 -2.0048  0.4338
10507TIP3    H252937   0.765   6.577  15.670  0.3277  1.9287 -0.3565
10508TIP3   OH252938   6.858   1.971  15.772 -0.8841 -0.5560  0.4477
10508TIP3    H152939   6.786   2.034  15.774 -0.6120 -0.2620  0.9854
10508TIP3    H252940   6.815   1.887  15.757 -1.1955 -0.1747 -0.9089
10509TIP3   OH252941   2.028   2.943   0.876 -0.3772  0.6365  0.3667
10509TIP3    H152942   2.006   3.029   0.912  0.1987  1.1414 -0.4563
10509TIP3    H252943   1.946   2.894   0.880 -0.7939  1.3353  0.5554
10510TIP3   OH252944   1.815   1.695   3.654  0.5623 -0.1682 -0.1402
10510TIP3    H152945   1.759   1.622   3.627 -0.3404  0.3577  0.2921
10510TIP3    H252946   1.901   1.655   3.667 -0.5199 -1.7170  2.7998
10511TIP3   OH252947   4.580   1.794   3.005  0.8778 -0.3088  0.6179
10511TIP3    H152948   4.639   1.837   3.068  0.3972 -1.1174  1.6330
10511TIP3    H252949   4.521   1.864   2.977  2.1535  0.4587 -0.2327
10512TIP3   OH252950   3.718   1.839   1.128 -0.3035  0.5887 -0.0207
10512TIP3    H152951   3.776   1.911   1.155  0.3899 -0.5845  1.7685
10512TIP3    H252952   3.772   1.760   1.139 -1.2268 -0.2419 -1.4294
10513TIP3   OH252953   2.547   6.927   0.529  0.2381  0.3432 -0.0751
10513TIP3    H152954   2.573   6.979   0.453 -1.0908  2.4980  0.8940
10513TIP3    H252955   2.458   6.899   0.508  0.7894 -1.1985 -0.3981
10514TIP3   OH252956   2.029   0.098   1.452 -0.3442 -0.0783 -0.1020
10514TIP3    H152957   2.095   0.089   1.520  0.2766 -1.7389 -0.8738
10514TIP3    H252958   1.946   0.106   1.499  0.2818  0.7774  0.8564
10515TIP3   OH252959   3.354   2.126  14.318  0.3937 -0.0280  0.0647
10515TIP3    H152960   3.357   2.210  14.273  3.3227 -0.8552 -1.4126
10515TIP3    H252961   3.445   2.107  14.340  0.0980 -3.7413 -1.5157
10516TIP3   OH252962   2.267   0.646  15.921 -0.6698 -0.6271 -0.0431
10516TIP3    H152963   2.171   0.642  15.918 -0.7918  0.1654  1.9253
10516TIP3    H252964   2.294   0.559  15.950 -0.6676 -1.4229 -2.3365
10517TIP3   OH252965   6.883   0.964  14.894  0.1593  0.2142 -0.5102
10517TIP3    H152966   6.923   1.040  14.852  1.9119  0.4809  1.5431
10517TIP3    H252967   6.878   0.898  14.825 -3.2720  2.7614 -2.9008
10518TIP3   OH252968   2.692   2.401  12.789  0.2287 -0.3287 -0.4207
10518TIP3    H152969   2.596   2.404  12.788  0.2584  0.7221 -1.1531
10518TIP3    H252970   2.715   2.332  12.727 -0.0605 -0.8124  0.0092
10519TIP3   OH252971   4.063   6.781   0.783 -0.6910  0.1738 -0.1253
10519TIP3    H152972   4.019   6.696   0.792 -0.8958  0.4408  1.7254
10519TIP3    H252973   4.022   6.821   0.707 -1.2574 -1.0048 -0.4540
10520TIP3   OH252974   0.588   0.008  14.175  0.5277  0.3696 -0.0852
10520TIP3    H152975   0.550  -0.043  14.247 -1.3279  1.1358 -0.4978
10520TIP3    H252976   0.670  -0.038  14.155 -0.5717 -1.8380  0.2582
10521TIP3   OH252977   3.852   2.671   4.014 -0.7010 -0.5352 -0.2986
10521TIP3    H152978   3.886   2.593   4.058 -1.8193 -0.6775  0.3324
10521TIP3    H252979   3.893   2.670   3.928  1.9102  0.0123  0.9024
10522TIP3   OH252980   3.611   1.201   1.211  0.3847  0.2138  0.5160
10522TIP3    H152981   3.704   1.176   1.205  1.0098  1.0636  5.1105
10522TIP3    H252982   3.566   1.118   1.228  0.5488  0.1267  0.5350
10523TIP3   OH252983   2.241   0.867   2.438 -0.2239  0.4617  0.9274
10523TIP3    H152984   2.291   0.788   2.418 -1.4217  0.3501 -1.8802
10523TIP3    H252985   2.182   0.841   2.509 -0.2635 -1.0198  0.3700
10524TIP3   OH252986   1.777   6.940  14.425 -0.2059  0.3958  0.3244
10524TIP3    H152987   1.819   6.893  14.497  1.5625  1.0719 -0.2267
10524TIP3    H252988   1.844   7.003  14.396 -1.6234  1.5163 -0.5744
10525TIP3   OH252989   1.778   1.501   1.484  0.3212 -0.4257 -0.5799
10525TIP3    H152990   1.800   1.563   1.554 -1.1228 -0.8017  0.2090
10525TIP3    H252991   1.826   1.422   1.506 -0.2715 -0.6028  0.0942
10526TIP3   OH252992   3.144   0.933  15.561 -0.0619  0.2590 -0.3487
10526TIP3    H152993   3.216   0.871  15.545  0.8597  1.6380 -1.7103
10526TIP3    H252994   3.068   0.877  15.575  0.9617 -1.2098 -0.4487
10527TIP3   OH252995   4.957   2.041   1.212 -0.3295  0.0477  0.0842
10527TIP3    H152996   4.870   2.020   1.179 -0.2447 -1.1017  0.5689
10527TIP3    H252997   4.997   1.956   1.231  0.8473  0.5640  0.0026
10528TIP3   OH252998   1.629   6.703   0.232 -0.0931  0.0538  0.0349
10528TIP3    H152999   1.678   6.631   0.193  1.2775 -0.7858  3.1135
10528TIP3    H253000   1.682   6.781   0.214  0.2771 -0.2507 -0.1893
10529TIP3   OH253001   3.157   2.239   1.640 -0.2999 -0.2785 -0.1998
10529TIP3    H153002   3.151   2.205   1.551  1.6985  0.4713 -0.6388
10529TIP3    H253003   3.087   2.305   1.644  0.7148  0.9480 -1.8097
10530TIP3   OH253004   1.578   2.204   0.653 -0.2135  0.0132  0.6197
10530TIP3    H153005   1.540   2.291   0.665 -1.0543 -0.3359  0.5236
10530TIP3    H253006   1.570   2.162   0.739  0.1513  0.0067  0.6537
10531TIP3   OH253007   1.179   0.709   1.962  0.2233 -0.3270  0.2837
10531TIP3    H153008   1.260   0.724   2.010  0.4301  0.8131 -0.3999
10531TIP3    H253009   1.117   0.678   2.029  1.0307 -0.5831  0.9237
10532TIP3   OH253010   3.673   2.291   1.475  0.5904 -0.1964  0.6399
10532TIP3    H153011   3.583   2.308   1.504  0.2781 -0.2637 -0.2858
10532TIP3    H253012   3.699   2.372   1.432  1.1800  0.0260  1.4031
10533TIP3   OH253013   2.077   0.640   1.242  0.4796  0.6758 -0.4618
10533TIP3    H153014   2.123   0.630   1.159  0.4476 -0.1174 -0.3915
10533TIP3    H253015   2.048   0.551   1.264  0.3178  0.9116  0.2949
10534TIP3   OH253016   3.225   0.107   3.224  0.4039  0.2881 -0.0743
10534TIP3    H153017   3.139   0.067   3.239  0.5790 -0.1753 -0.2953
10534TIP3    H253018   3.233   0.173   3.293 -0.3647  0.7137 -0.3883
10535TIP3   OH253019   2.283   5.902  14.382 -0.3382  0.2939  0.1359
10535TIP3    H153020   2.293   5.973  14.319 -0.5454  0.1032 -0.1137
10535TIP3    H253021   2.360   5.909  14.439  0.1566  0.0994 -0.5016
10536TIP3   OH253022   1.417   2.009   0.582 -0.0464  0.4405 -0.0769
10536TIP3    H153023   1.472   2.087   0.588  0.0483  0.4311 -0.7378
10536TIP3    H253024   1.412   1.991   0.488 -1.1608  0.4292 -0.0225
10537TIP3   OH253025   2.277   0.002   0.575  0.2077 -0.4376  0.2053
10537TIP3    H153026   2.311   0.017   0.663 -0.5492  0.0249  0.4246
10537TIP3    H253027   2.262   0.090   0.540  1.1735 -0.6026 -0.6543
10538TIP3   OH253028   4.900   6.063  15.952 -0.2895 -0.1701 -0.5261
10538TIP3    H153029   4.846   6.133  15.916 -0.9768 -0.0756  0.6613
10538TIP3    H253030   4.902   5.996  15.883 -0.9767  0.3107 -1.0136
10539TIP3   OH253031   4.571   0.456  15.344 -0.0320 -0.5786  0.1224
10539TIP3    H153032   4.508   0.490  15.407 -0.1797  0.0703 -0.3612
10539TIP3    H253033   4.619   0.533  15.314  0.1493 -0.8982 -0.4294
10540TIP3   OH253034   2.666   3.157   0.248 -0.4428 -0.3717  0.1727
10540TIP3    H153035   2.718   3.172   0.326 -0.0389 -0.2777 -0.1186
10540TIP3    H253036   2.661   3.061   0.241  0.6854 -0.3830 -0.4715
10541TIP3   OH253037   1.200   0.249  14.028 -0.1509 -0.0643 -0.0276
10541TIP3    H153038   1.118   0.255  14.077 -0.5623  1.0084 -0.8309
10541TIP3    H253039   1.186   0.304  13.951  1.2762  0.0082 -0.2469
10542TIP3   OH253040   5.517   1.966   2.173 -0.1585 -0.1602  0.3543
10542TIP3    H153041   5.476   1.950   2.258 -1.5917 -3.0802 -0.8193
10542TIP3    H253042   5.597   1.913   2.175  0.1128  0.2375  0.0950
10543TIP3   OH253043   2.080   0.358   0.278 -0.2697 -0.7013  0.0951
10543TIP3    H153044   2.156   0.337   0.332  0.5264  1.9041  0.0711
10543TIP3    H253045   2.060   0.449   0.300 -1.9889 -0.6504 -1.5779
10544TIP3   OH253046   2.017   6.711   0.704 -0.0462 -0.9334 -0.1254
10544TIP3    H153047   1.965   6.649   0.754 -0.0156 -0.6126  0.3022
10544TIP3    H253048   2.097   6.723   0.755 -0.6119  0.4495  0.4487
10545TIP3   OH253049   2.588   6.786   4.270 -0.4283  0.4240 -0.2536
10545TIP3    H153050   2.663   6.835   4.238 -0.5979 -0.4317 -1.9961
10545TIP3    H253051   2.545   6.844   4.333  1.0568  1.3331 -0.0851
10546TIP3   OH253052   2.586   2.461   0.993 -0.7961 -0.3124  0.5002
10546TIP3    H153053   2.545   2.411   0.922  1.5017 -1.0195 -0.3797
10546TIP3    H253054   2.680   2.453   0.977 -0.2498  0.2755  3.1342
10547TIP3   OH253055   0.281   1.775  14.551  0.1018 -0.4778 -0.3922
10547TIP3    H153056   0.216   1.844  14.567 -0.6596 -1.3452  0.3125
10547TIP3    H253057   0.235   1.694  14.572  1.0156 -1.2000 -1.1455
10548TIP3   OH253058   4.372   1.174   3.967 -0.4945  0.1005  0.2339
10548TIP3    H153059   4.317   1.177   4.045 -0.0088  1.5164  0.5222
10548TIP3    H253060   4.340   1.245   3.912 -0.3404 -0.4192 -0.5350
10549TIP3   OH253061   1.292   0.075   0.907 -0.0449  0.2218 -0.2091
10549TIP3    H153062   1.358   0.063   0.975 -0.1229  0.6589 -0.0553
10549TIP3    H253063   1.291  -0.008   0.859  1.2908  0.5403 -0.8003
10550TIP3   OH253064   1.066   1.312   0.169 -0.1116  0.1211  0.2609
10550TIP3    H153065   1.087   1.384   0.229  3.6298  1.2559 -2.1813
10550TIP3    H253066   1.105   1.235   0.210 -1.9260 -0.0772  1.6608
10551TIP3   OH253067   0.411   1.175  14.846 -0.1345  0.2372  0.1442
10551TIP3    H153068   0.456   1.095  14.874  1.4697  0.6074 -1.3033
10551TIP3    H253069   0.475   1.245  14.862 -0.7738  0.9711 -0.5173
10552TIP3   OH253070   1.793   2.790   0.885  0.6693 -0.4448  0.2520
10552TIP3    H153071   1.715   2.777   0.830 -0.4571  1.6190  1.3267
10552TIP3    H253072   1.759   2.805   0.973  2.3494 -0.6661  0.9657
10553TIP3   OH253073   3.696   5.101   3.804  0.4883  0.2847  0.1294
10553TIP3    H153074   3.717   5.143   3.721 -0.9173 -0.2940 -0.5368
10553TIP3    H253075   3.780   5.074   3.840  1.2182  1.7506 -0.4553
10554TIP3   OH253076   2.365   2.579   2.244  0.3290 -0.2321  0.1361
10554TIP3    H153077   2.330   2.596   2.156  1.0314 -0.2640 -0.1560
10554TIP3    H253078   2.449   2.625   2.245  0.1849  0.0251  0.9051
10555TIP3   OH253079   7.062   1.830   1.505  0.1993 -0.3136 -0.7146
10555TIP3    H153080   7.075   1.921   1.534 -2.2508 -0.3099  0.4965
10555TIP3    H253081   7.027   1.838   1.416 -0.5841 -0.0432 -0.3865
10556TIP3   OH253082   3.760   0.547   2.986  0.1758 -0.7313 -0.5232
10556TIP3    H153083   3.781   0.590   3.069 -1.6033 -0.2072 -0.3325
10556TIP3    H253084   3.756   0.618   2.922  1.5689 -1.1353 -1.0834
10557TIP3   OH253085   6.596   1.441  15.463  0.3619  0.0050  0.1663
10557TIP3    H153086   6.573   1.425  15.555  1.0523 -0.3392  0.2748
10557TIP3    H253087   6.578   1.358  15.419 -0.6341  0.3733 -0.1450
10558TIP3   OH253088   1.664   7.143   2.706 -0.0319  0.5926  0.2664
10558TIP3    H153089   1.638   7.221   2.657 -0.5501 -0.9000 -1.9310
10558TIP3    H253090   1.607   7.073   2.672  1.8559 -1.1759  0.6087
10559TIP3   OH253091   2.034   7.093  14.345  0.2371  0.3799  0.1080
10559TIP3    H153092   2.070   7.182  14.348 -0.3988  0.7648 -2.3172
10559TIP3    H253093   2.040   7.068  14.253  0.1515 -1.9966  0.7253
10560TIP3   OH253094   2.260   6.389   3.147  0.0642 -0.2392 -0.8611
10560TIP3    H153095   2.279   6.369   3.238  1.0810  0.2138 -0.9639
10560TIP3    H253096   2.167   6.411   3.145 -0.4238 -2.1641 -0.2764
10561TIP3   OH253097   1.782   3.560   0.537 -0.2482 -0.9322  0.2396
10561TIP3    H153098   1.801   3.468   0.519  1.0484 -0.3811 -1.2650
10561TIP3    H253099   1.866   3.598   0.561 -0.8030 -0.1526  0.9727
10562TIP3   OH253100   3.078   6.849   1.162 -0.6696 -0.1324  0.3951
10562TIP3    H153101   3.033   6.788   1.102 -1.2486  1.2831 -0.6356
10562TIP3    H253102   3.167   6.814   1.169 -1.0333 -1.1838 -0.0624
10563TIP3   OH253103   3.088   2.197   2.470 -0.0571  0.3605  0.5229
10563TIP3    H153104   3.063   2.203   2.562 -0.6202  0.8492  0.3439
10563TIP3    H253105   3.067   2.283   2.434  0.5869  0.3201  0.0410
10564TIP3   OH253106   3.372   0.034   1.223 -0.3742 -0.0589 -0.5578
10564TIP3    H153107   3.401   0.004   1.137  1.3118 -1.7470  0.5554
10564TIP3    H253108   3.312  -0.033   1.253  1.0950 -0.8568  0.6812
10565TIP3   OH253109   1.587   0.495   3.261  0.5147  0.4847  0.4385
10565TIP3    H153110   1.515   0.459   3.209 -0.2618  0.2974  1.6152
10565TIP3    H253111   1.559   0.483   3.352  1.9482  0.5929  0.9114
10566TIP3   OH253112   3.427   1.102   0.113  0.0595  0.0247 -0.3951
10566TIP3    H153113   3.429   1.007   0.103  0.8090 -0.0614  0.4057
10566TIP3    H253114   3.503   1.133   0.064  0.0119  0.1751 -0.3752
10567TIP3   OH253115   2.078   0.810   2.664  0.3651  0.1067 -0.1651
10567TIP3    H153116   2.014   0.801   2.594 -1.6372  1.3238  1.4367
10567TIP3    H253117   2.067   0.731   2.717 -0.5978  0.8190  0.7146
10568TIP3   OH253118   4.926   7.040   1.236  0.0524  0.1102  0.1088
10568TIP3    H153119   4.834   7.046   1.211 -0.1854 -1.1666  0.6261
10568TIP3    H253120   4.928   6.968   1.299  1.5431 -0.4378 -0.5517
10569TIP3   OH253121   3.763   1.575   0.144 -0.3050 -0.7062 -0.5772
10569TIP3    H153122   3.668   1.584   0.150 -0.0795  0.7835  1.2131
10569TIP3    H253123   3.790   1.541   0.230  1.1172  2.3471  0.2525
10570TIP3   OH253124   2.203   0.443   3.217  0.0980  0.4482  0.1320
10570TIP3    H153125   2.178   0.355   3.243 -1.3277  0.6243 -0.5518
10570TIP3    H253126   2.263   0.473   3.285  0.2374 -0.8702  0.6019
10571TIP3   OH253127   1.771   6.972   2.185 -0.3434  0.3631  0.2532
10571TIP3    H153128   1.832   7.043   2.167 -1.4710  1.3006  0.0621
10571TIP3    H253129   1.691   6.996   2.137 -0.6374 -1.1793 -0.0645
10572TIP3   OH253130   4.908   5.458   2.777  0.2503  0.0362 -0.2337
10572TIP3    H153131   4.858   5.388   2.819  1.8453 -1.1167 -0.1895
10572TIP3    H253132   4.988   5.464   2.828  1.1778  0.2451 -1.6790
10573TIP3   OH253133   1.407   4.396   0.966  0.0575 -0.3282  0.0274
10573TIP3    H153134   1.324   4.434   0.937  0.6493  1.3366  0.4500
10573TIP3    H253135   1.393   4.373   1.057  0.7902  2.2935  0.8644
10574TIP3   OH253136   1.734   2.018   0.270  0.2863 -0.9924  0.5636
10574TIP3    H153137   1.807   2.040   0.211  0.3618 -0.8851  0.6966
10574TIP3    H253138   1.770   2.029   0.358 -0.6439  1.6528  0.6565
10575TIP3   OH253139   2.822   1.856   0.591  0.5179 -0.3619  0.3976
10575TIP3    H153140   2.781   1.904   0.519  0.2043 -2.0996 -0.5966
10575TIP3    H253141   2.750   1.833   0.649  0.4649 -0.8989  0.1229
10576TIP3   OH253142   7.123   6.599   1.541  0.0677 -0.5695 -0.6560
10576TIP3    H153143   7.216   6.612   1.562  0.3331 -1.8552 -0.9634
10576TIP3    H253144   7.123   6.581   1.447 -0.4278 -1.1948 -0.5351
10577TIP3   OH253145   1.297   1.747   2.355 -0.1889  0.5788 -0.2270
10577TIP3    H153146   1.391   1.730   2.361 -0.0264  1.4247 -0.3347
10577TIP3    H253147   1.259   1.662   2.332  0.4280 -0.0180  0.9179
10578TIP3   OH253148   2.969   1.997   1.559  0.0525  0.2080 -0.2005
10578TIP3    H153149   2.934   2.005   1.470 -1.1813  1.0895  0.3447
10578TIP3    H253150   2.906   2.044   1.613  0.1145 -1.4336  1.3185
10579TIP3   OH253151   2.525   0.038   2.694  0.1951  0.1778  0.9377
10579TIP3    H153152   2.532   0.014   2.601  0.0238 -0.2133  1.0254
10579TIP3    H253153   2.431   0.046   2.709  0.2705  1.8790  0.6667
10580TIP3   OH253154   4.048   3.359  15.155 -0.1532  0.0718  0.1326
10580TIP3    H153155   4.025   3.350  15.248 -1.7259  1.4182 -0.1041
10580TIP3    H253156   4.125   3.416  15.156  0.0402 -0.1877  0.6196
10581TIP3   OH253157   3.262   1.298  14.460 -0.4849  0.0334 -0.7141
10581TIP3    H153158   3.177   1.324  14.425 -1.1354 -2.6612 -1.2098
10581TIP3    H253159   3.281   1.214  14.419  0.4405 -1.4673  2.6381
10582TIP3   OH253160   2.061   1.697   0.616 -0.3465  0.7523 -0.1474
10582TIP3    H153161   2.122   1.719   0.686  0.0553 -0.1839 -0.2034
10582TIP3    H253162   1.979   1.677   0.661 -0.3461  1.0457 -0.0125
10583TIP3   OH253163   2.905   1.603   1.647  0.1388  0.1476 -0.4715
10583TIP3    H153164   2.872   1.520   1.681 -0.9318  0.5197 -0.5857
10583TIP3    H253165   2.898   1.594   1.552 -5.4000  2.4530 -0.4757
10584TIP3   OH253166   3.244   0.786  14.173 -0.2085  0.3614 -0.1552
10584TIP3    H153167   3.331   0.808  14.140  0.4917 -2.8115 -0.5874
10584TIP3    H253168   3.207   0.728  14.107 -1.4598 -0.6983  1.4367
10585TIP3   OH253169   1.919   7.204  15.323  0.2436  0.5682  0.2166
10585TIP3    H153170   1.916   7.137  15.254 -1.0283  0.7312  0.1123
10585TIP3    H253171   1.829   7.209  15.356  0.7085  0.9477  1.4523
10586TIP3   OH253172   3.615   1.589  15.337  0.5546  0.0330  0.0134
10586TIP3    H153173   3.525   1.619  15.353  0.4037 -0.1111 -0.5611
10586TIP3    H253174   3.613   1.495  15.356  0.9317  0.2991  1.4190
10587TIP3   OH253175   0.060   7.016   0.302  0.3128 -0.5457 -0.5120
10587TIP3    H153176   0.019   6.931   0.291  1.0126 -0.8954 -0.4422
10587TIP3    H253177   0.146   7.007   0.263  0.0226  0.4309 -1.4146
10588TIP3   OH253178   2.821   1.423   0.374 -0.1558 -0.3910 -0.4050
10588TIP3    H153179   2.790   1.472   0.450 -1.4098 -1.3155 -0.3000
10588TIP3    H253180   2.916   1.420   0.385 -0.2336  0.3697  0.5813
10589TIP3   OH253181   2.285   0.697   1.982 -0.0102  0.0865 -0.3844
10589TIP3    H153182   2.282   0.777   2.034 -0.5148 -1.1610  1.5635
10589TIP3    H253183   2.367   0.655   2.009 -0.7973 -1.0846  0.1933
10590TIP3   OH253184   4.647   6.573  14.495  0.5234 -0.0889 -0.0826
10590TIP3    H153185   4.705   6.629  14.546  0.5307 -0.7197  0.6057
10590TIP3    H253186   4.630   6.497  14.552  0.8977 -1.0125 -1.1809
10591TIP3   OH253187   4.150   6.472   1.290 -0.2464 -0.5219 -0.7040
10591TIP3    H153188   4.202   6.407   1.337 -1.0269 -0.7350 -0.1214
10591TIP3    H253189   4.214   6.525   1.243  0.4611 -1.0748 -0.3706
10592TIP3   OH253190   4.311   1.478   0.526 -0.5378  0.1741  0.0922
10592TIP3    H153191   4.376   1.425   0.479 -0.6513  0.1853 -0.0766
10592TIP3    H253192   4.295   1.429   0.607  1.3751  1.2984  1.1988
10593TIP3   OH253193   1.281   5.397   2.270  0.5528  0.1372  0.3346
10593TIP3    H153194   1.210   5.435   2.322 -0.0649  0.1113 -0.4727
10593TIP3    H253195   1.237   5.357   2.195  1.3414 -0.7005  0.3006
10594TIP3   OH253196   4.815   6.054   1.114  0.0659  0.5820 -0.1533
10594TIP3    H153197   4.776   6.061   1.027  1.5302  0.8553 -0.8111
10594TIP3    H253198   4.897   6.006   1.100  0.4594  0.8876  1.0220
10595TIP3   OH253199   6.320   7.148   2.821 -0.2839 -0.0369 -0.2761
10595TIP3    H153200   6.415   7.138   2.826 -0.1829 -0.0231 -1.8578
10595TIP3    H253201   6.290   7.070   2.776 -1.1467 -0.5318  1.1448
10596TIP3   OH253202   2.677   1.044   2.595 -0.1295 -0.4407 -0.0446
10596TIP3    H153203   2.767   1.067   2.573  0.0383 -0.9221  0.1153
10596TIP3    H253204   2.682   1.011   2.685 -0.9909  2.5358  1.1469
10597TIP3   OH253205   2.081   6.954  15.891 -0.1141  0.2176  0.5743
10597TIP3    H153206   2.024   6.931  15.964 -0.6366  0.4619  0.2441
10597TIP3    H253207   2.168   6.962  15.931 -0.6057  1.6365  1.4190
10598TIP3   OH253208   4.375   4.160   1.633 -0.3928 -0.0949 -0.8644
10598TIP3    H153209   4.335   4.171   1.719 -1.2140 -0.4188 -1.1988
10598TIP3    H253210   4.451   4.104   1.650 -0.1198  0.4504 -0.2394
10599TIP3   OH253211   4.259   6.635  15.997  0.7266 -0.6093 -0.3076
10599TIP3    H153212   4.168   6.653  16.020  0.5779 -0.7783 -0.7616
10599TIP3    H253213   4.267   6.540  16.000  1.6002 -0.4777  2.4009
10600TIP3   OH253214   2.109   0.305   0.010  0.2925 -0.3027  0.1357
10600TIP3    H153215   2.171   0.235  -0.012  2.4088  1.0687  1.5684
10600TIP3    H253216   2.113   0.311   0.105  0.8302  2.3518 -0.0143
10601TIP3   OH253217   3.013   1.173  15.440 -0.0439 -0.3968 -0.7742
10601TIP3    H153218   3.018   1.169  15.344 -0.7365 -0.8228 -0.7952
10601TIP3    H253219   3.048   1.088  15.469 -0.0352 -0.3528 -0.6576
10602TIP3   OH253220   0.139   5.769   1.086 -0.3589 -0.0895 -0.2037
10602TIP3    H153221   0.139   5.700   1.019  0.3410  0.0733 -0.3758
10602TIP3    H253222   0.230   5.798   1.091 -0.3824 -0.1650  0.8888
10603TIP3   OH253223   2.632   1.541   0.666 -1.0438 -0.5530 -0.6820
10603TIP3    H153224   2.613   1.616   0.721 -2.8657  1.6246 -4.0794
10603TIP3    H253225   2.674   1.477   0.724  0.4373  3.0029  2.3052
10604TIP3   OH253226   3.470   2.446   0.357  0.2973 -0.3401  0.3737
10604TIP3    H153227   3.475   2.538   0.329  0.2534 -1.0590 -2.1134
10604TIP3    H253228   3.560   2.414   0.352 -0.1577 -1.3765 -2.2882
10605TIP3   OH253229   2.011   2.314   0.200 -0.4402 -0.0215 -0.3406
10605TIP3    H153230   2.062   2.375   0.254 -1.2974  0.2975  0.1253
10605TIP3    H253231   1.971   2.369   0.132  0.4456 -0.3882 -1.1604
10606TIP3   OH253232   3.391   0.514   1.334  0.2784  0.0375 -0.3617
10606TIP3    H153233   3.480   0.495   1.366 -0.0332 -0.4707  0.2071
10606TIP3    H253234   3.369   0.439   1.279 -0.1667 -0.3006  0.2666
10607TIP3   OH253235   3.389   7.003   2.064  0.0362  0.5242  0.2482
10607TIP3    H153236   3.412   6.992   2.156  0.2675 -1.0252  0.0101
10607TIP3    H253237   3.399   6.916   2.025 -0.0231  1.1622 -1.2520
10608TIP3   OH253238   2.000   1.949   1.318 -0.3344  0.3162  0.1706
10608TIP3    H153239   1.981   2.030   1.365 -0.0586 -0.6082  1.8901
10608TIP3    H253240   2.021   1.886   1.386  1.2337 -0.7397 -1.2653
10609TIP3   OH253241   2.527   3.414   1.175 -0.3213  0.0365  0.3356
10609TIP3    H153242   2.500   3.349   1.240  0.1781 -0.6138 -0.0924
10609TIP3    H253243   2.456   3.477   1.173 -0.9697 -0.6835  0.5203
10610TIP3   OH253244   3.304   3.597   1.928 -0.1486  0.1934 -0.2511
10610TIP3    H153245   3.310   3.583   1.834 -0.2608  2.3559 -0.6006
10610TIP3    H253246   3.210   3.607   1.945 -0.1792 -0.7961  0.1939
10611TIP3   OH253247   2.806   2.101   1.791  0.1989 -0.5474  0.5431
10611TIP3    H153248   2.874   2.144   1.844  0.1955 -0.1470  0.2299
10611TIP3    H253249   2.788   2.019   1.837  0.3391 -0.2986  1.0519
10612TIP3   OH253250   4.972   1.759   0.788 -0.0172 -0.3600  0.2993
10612TIP3    H153251   4.983   1.743   0.694 -2.4196 -1.0867  0.1025
10612TIP3    H253252   5.038   1.704   0.830  0.7564 -0.3952 -0.9470
10613TIP3   OH253253   6.709   1.640  15.739 -0.4405 -0.0256 -0.4710
10613TIP3    H153254   6.654   1.570  15.775  0.0557  0.8521  2.1079
10613TIP3    H253255   6.799   1.608  15.750 -0.3335 -0.8382 -3.3547
10614TIP3   OH253256   3.142   6.926   0.107 -0.1580  0.3067 -0.3072
10614TIP3    H153257   3.085   7.001   0.125 -0.3891 -0.3519  1.7742
10614TIP3    H253258   3.206   6.926   0.178 -2.1426 -3.3719  1.6007
10615TIP3   OH253259   7.277   0.295  15.430  0.3476 -0.3516 -0.1299
10615TIP3    H153260   7.245   0.291  15.520 -0.1322 -0.5280 -0.3059
10615TIP3    H253261   7.346   0.229  15.426  0.2345 -0.4802  0.0562
10616TIP3   OH253262   2.014   1.336   1.234  0.3462  0.2613  0.0086
10616TIP3    H153263   1.936   1.382   1.202  1.1133 -0.9805 -3.7823
10616TIP3    H253264   2.079   1.405   1.245 -0.7096  1.0573  1.5094
10617TIP3   OH253265   3.276   1.525   1.780  0.3598  0.5658  0.4150
10617TIP3    H153266   3.258   1.451   1.721 -2.0349  1.6023 -0.2398
10617TIP3    H253267   3.289   1.485   1.866  1.8202 -0.8090 -0.4051
10618TIP3   OH253268   4.812   1.941   1.468 -0.3597 -0.3598  0.6569
10618TIP3    H153269   4.752   1.984   1.407  1.1164  0.8110 -0.0010
10618TIP3    H253270   4.805   1.848   1.447 -1.5339 -0.1880  0.2328
10619TIP3   OH253271   0.929   1.081  15.551  0.8392 -0.2665  0.3860
10619TIP3    H153272   0.904   0.995  15.518  1.5485 -0.6788  0.9145
10619TIP3    H253273   0.943   1.134  15.473 -0.5034 -0.3561  0.0570
10620TIP3   OH253274   4.047   6.132  14.048 -0.0694  0.3982  0.4502
10620TIP3    H153275   3.960   6.126  14.008 -0.1995 -0.8262  0.9019
10620TIP3    H253276   4.036   6.095  14.136  0.8614  0.4407  0.5942
10621TIP3   OH253277   2.396   6.787  14.917  0.0038  0.0465  1.4498
10621TIP3    H153278   2.347   6.806  14.837 -0.4161  3.1161  2.3689
10621TIP3    H253279   2.388   6.867  14.969  1.0340 -1.5817  4.1764
10622TIP3   OH253280   2.979   2.235   2.706 -0.3634  0.4544  0.5689
10622TIP3    H153281   2.994   2.177   2.781 -1.7376 -1.7136 -0.7873
10622TIP3    H253282   2.900   2.284   2.729 -1.1312 -0.6433  0.2913
10623TIP3   OH253283   4.614   2.336  14.441 -0.4938 -0.0570 -0.1530
10623TIP3    H153284   4.610   2.432  14.452  1.0865  0.2962 -2.3668
10623TIP3    H253285   4.697   2.311  14.480  0.2040 -0.1862 -1.6827
10624TIP3   OH253286   1.119   2.721  15.096 -0.2704 -0.3182 -0.1764
10624TIP3    H153287   1.174   2.755  15.166 -1.5514  0.2183  0.5819
10624TIP3    H253288   1.031   2.719  15.133 -1.3240  1.9855 -2.4421
10625TIP3   OH253289   0.627   1.097  15.525 -0.2853  0.7092 -0.5748
10625TIP3    H153290   0.719   1.117  15.541 -0.6594  0.0628  3.0613
10625TIP3    H253291   0.627   1.005  15.498  0.1199  0.4176  0.3613
10626TIP3   OH253292   1.497   1.381   0.796 -0.0332  0.4555 -0.2302
10626TIP3    H153293   1.565   1.433   0.753  0.6313 -0.9987 -0.9741
10626TIP3    H253294   1.494   1.415   0.886  1.1667  1.0113 -0.3833
10627TIP3   OH253295   3.150   1.588  14.175  0.2309  0.4719 -0.1922
10627TIP3    H153296   3.066   1.546  14.191  0.4456 -0.5433 -1.6838
10627TIP3    H253297   3.133   1.682  14.188 -1.1020  0.2634 -0.4012
10628TIP3   OH253298   3.410   6.733  13.571 -0.1296 -0.4477  0.1651
10628TIP3    H153299   3.460   6.673  13.627  0.3220 -0.5361 -0.3254
10628TIP3    H253300   3.334   6.682  13.543 -0.6309 -0.2307  1.1164
10629TIP3   OH253301   2.829   6.420   1.839 -0.4415 -0.2077 -1.0267
10629TIP3    H153302   2.921   6.401   1.823 -0.9033 -3.3194 -0.3864
10629TIP3    H253303   2.827   6.458   1.928  0.4215  2.1367 -1.9654
10630TIP3   OH253304   0.773   0.525   2.376 -0.1555 -0.3132 -0.3561
10630TIP3    H153305   0.829   0.451   2.400 -0.1874 -0.0567  0.5238
10630TIP3    H253306   0.690   0.486   2.351  0.6605 -0.7702 -2.5302
10631TIP3   OH253307   1.799   2.729   1.541 -0.3845 -0.2246 -0.0574
10631TIP3    H153308   1.783   2.748   1.633 -0.5141  0.3931 -0.2071
10631TIP3    H253309   1.741   2.655   1.522  0.5882 -1.1870  0.6863
10632TIP3   OH253310   3.272   1.400   2.811  0.2269 -0.2070 -0.3992
10632TIP3    H153311   3.286   1.329   2.873 -1.6908 -0.5269 -0.2932
10632TIP3    H253312   3.276   1.479   2.864 -0.8502 -0.4448  0.0453
10633TIP3   OH253313   2.730   2.419   0.007  0.0448  0.9272  0.1216
10633TIP3    H153314   2.788   2.434  -0.067 -0.7416  1.2489 -0.4242
10633TIP3    H253315   2.721   2.324   0.011 -0.7019  0.9543 -0.8036
10634TIP3   OH253316   2.530   0.724   0.177 -0.2837  0.4815  0.3460
10634TIP3    H153317   2.527   0.787   0.249 -1.1746  0.7022  0.1188
10634TIP3    H253318   2.592   0.763   0.114 -1.3603  1.4985 -0.1187
10635TIP3   OH253319   2.733   0.395   0.308  0.5118  0.0402  0.2531
10635TIP3    H153320   2.643   0.423   0.296  0.3468 -0.1674  0.9786
10635TIP3    H253321   2.743   0.321   0.249  0.4432  0.5595 -0.4105
10636TIP3   OH253322   3.494   3.162   1.442  0.1096 -0.8194 -0.5330
10636TIP3    H153323   3.531   3.130   1.524  1.4745  0.0656 -0.7858
10636TIP3    H253324   3.505   3.090   1.380  2.4384 -0.1944 -0.8938
10637TIP3   OH253325   6.064   6.997  15.507  0.6840 -0.7178  0.2060
10637TIP3    H153326   6.110   7.065  15.555  2.1642 -0.0441 -2.0870
10637TIP3    H253327   5.986   7.041  15.472 -0.2955 -1.1616  1.7938
10638TIP3   OH253328   2.773   1.422   3.617 -0.0479  0.0275 -0.1570
10638TIP3    H153329   2.864   1.444   3.595 -0.3515  0.4329 -1.0601
10638TIP3    H253330   2.750   1.483   3.687  0.4079 -0.1483  0.1525
10639TIP3   OH253331   3.935   2.094   1.915 -0.3288 -0.7179 -0.0829
10639TIP3    H153332   3.929   1.999   1.906 -0.5786 -0.7858  0.8035
10639TIP3    H253333   3.849   2.126   1.886  0.2830 -0.6500 -1.8586
10640TIP3   OH253334   4.466   0.664   1.365  0.0760  0.3532 -0.3702
10640TIP3    H153335   4.535   0.682   1.300  0.2390  1.2165  0.0293
10640TIP3    H253336   4.513   0.654   1.447 -0.1382 -0.6910 -0.3709
10641TIP3   OH253337   6.371   0.923   3.009  0.1284  0.0325 -0.3664
10641TIP3    H153338   6.355   1.012   2.976  1.9974  0.1528 -1.0380
10641TIP3    H253339   6.465   0.921   3.027 -0.1091 -1.4387  0.8046
10642TIP3   OH253340   7.062   0.806   1.122  0.1068 -0.6588 -0.0261
10642TIP3    H153341   7.043   0.729   1.069 -4.3945  0.3895 -0.1255
10642TIP3    H253342   7.080   0.875   1.057  2.7493 -1.2246  0.0444
10643TIP3   OH253343   5.346   4.804   2.929 -0.5493 -0.0364 -0.2007
10643TIP3    H153344   5.265   4.755   2.941 -0.2597  0.0411  2.1637
10643TIP3    H253345   5.362   4.846   3.013  1.7730  0.2201 -0.7338
10644TIP3   OH253346   4.651   1.337   1.025 -0.3301  0.0318 -0.0576
10644TIP3    H153347   4.652   1.359   1.119  0.0980 -0.3430  0.0288
10644TIP3    H253348   4.603   1.408   0.984 -2.5853 -0.9725  0.7426
10645TIP3   OH253349   2.448   2.019   2.321  0.7449 -0.0566 -0.0815
10645TIP3    H153350   2.483   1.940   2.362  1.0753  0.3818  0.5063
10645TIP3    H253351   2.519   2.051   2.265  1.6970  1.3711  1.8593
10646TIP3   OH253352   4.204   1.603   1.696  0.6505  0.5537  0.3853
10646TIP3    H153353   4.199   1.521   1.647 -0.4410  0.5147  0.5452
10646TIP3    H253354   4.164   1.668   1.638  0.6855  0.7945  0.6277
10647TIP3   OH253355   2.840   1.150  14.493 -0.7716  0.5923  0.1465
10647TIP3    H153356   2.753   1.162  14.456 -0.8458  0.3344  0.2393
10647TIP3    H253357   2.849   1.055  14.505  0.6092  0.3367 -2.5404
10648TIP3   OH253358   4.189   1.424  14.417  0.1889 -0.4048  0.6749
10648TIP3    H153359   4.182   1.498  14.357 -1.5753 -1.9203 -1.0541
10648TIP3    H253360   4.099   1.391  14.426  0.7493 -1.5454  2.4382
10649TIP3   OH253361   5.985   1.073   1.130  0.7641 -0.3788  0.0186
10649TIP3    H153362   6.019   1.016   1.061 -0.3758  0.7172 -1.4953
10649TIP3    H253363   5.934   1.139   1.083  0.4614  0.7487  1.8801
10650TIP3   OH253364   3.755   1.624   3.496 -0.2229  0.2242  0.2915
10650TIP3    H153365   3.767   1.619   3.591  0.6115  0.6795  0.2074
10650TIP3    H253366   3.794   1.707   3.471  1.0077 -0.6371 -0.6771
10651TIP3   OH253367   3.447   0.351   0.398  0.5316  0.2514  0.3829
10651TIP3    H153368   3.508   0.415   0.434  0.1684  0.7769  0.0677
10651TIP3    H253369   3.363   0.374   0.437  0.3403  0.1530  0.0313
10652TIP3   OH253370   5.277   2.710   2.879 -0.5834  0.7508  0.2111
10652TIP3    H153371   5.228   2.701   2.960  0.1107 -0.6914  0.4815
10652TIP3    H253372   5.346   2.773   2.900  0.8586 -1.1606  1.3734
10653TIP3   OH253373   5.881   0.777  14.462  0.2230 -0.0999  0.2146
10653TIP3    H153374   5.967   0.819  14.460 -0.1055  0.6310  0.9015
10653TIP3    H253375   5.899   0.684  14.453  1.2066 -0.1054  2.0115
10654TIP3   OH253376   3.209   0.136  14.923 -0.2838  0.0665  0.6734
10654TIP3    H153377   3.136   0.185  14.885  0.1970  0.1374 -0.1488
10654TIP3    H253378   3.279   0.200  14.933  0.3046 -0.4190 -0.2879
10655TIP3   OH253379   4.936   1.235   3.599  0.1758 -0.3217  0.1060
10655TIP3    H153380   4.848   1.235   3.561  0.3143  1.1685 -0.2316
10655TIP3    H253381   4.974   1.153   3.570 -1.6714 -1.7550  1.5760
10656TIP3   OH253382   3.625   1.551   1.494 -0.4810  0.5560  0.1580
10656TIP3    H153383   3.565   1.477   1.492 -1.4012  1.3343 -1.6700
10656TIP3    H253384   3.578   1.618   1.543  0.6988 -0.3266  2.5732
10657TIP3   OH253385   4.883   0.702   2.529 -0.2746 -0.1787  0.1954
10657TIP3    H153386   4.918   0.781   2.486 -0.9283  0.2952  0.5127
10657TIP3    H253387   4.816   0.736   2.589  1.1107 -0.7649  2.1196
10658TIP3   OH253388   4.678   0.154   0.717 -0.9380  0.5588 -0.4576
10658TIP3    H153389   4.649   0.206   0.642 -1.4990 -0.8583 -1.2449
10658TIP3    H253390   4.599   0.109   0.747 -0.2024 -0.8636 -0.6235
10659TIP3   OH253391   6.277   0.999   0.327 -0.2869  0.3602  0.2631
10659TIP3    H153392   6.267   1.041   0.241 -0.8605 -1.0949 -0.4084
10659TIP3    H253393   6.317   1.066   0.382 -2.8374  2.4245 -0.2654
10660TIP3   OH253394   4.193   1.707   0.965 -0.2942 -0.1842 -0.0585
10660TIP3    H153395   4.276   1.693   1.011  0.4611 -2.3867 -1.9989
10660TIP3    H253396   4.192   1.801   0.947  2.5074 -0.3183 -1.2781
10661TIP3   OH253397   3.989   2.973  15.452  0.1694 -0.2514  0.1113
10661TIP3    H153398   3.998   2.900  15.514 -0.9477  0.6292  1.3519
10661TIP3    H253399   3.936   3.037  15.499  1.5117  1.5588 -0.7780
10662TIP3   OH253400   5.380   6.752   1.891  0.1753  0.1708 -0.1555
10662TIP3    H153401   5.330   6.709   1.961 -1.2251 -0.2070 -1.3748
10662TIP3    H253402   5.472   6.735   1.913 -0.3262 -2.2580  0.1359
10663TIP3   OH253403   4.887   3.039   1.569  0.4013  0.1046  0.7893
10663TIP3    H153404   4.943   2.972   1.609 -0.4753 -0.8744  0.3931
10663TIP3    H253405   4.810   2.991   1.538 -1.3995  1.6649  2.7290
10664TIP3   OH253406   0.920   6.914  15.671 -0.0374  0.1218 -0.7789
10664TIP3    H153407   0.869   6.886  15.747 -1.1680  1.0122 -1.1925
10664TIP3    H253408   1.011   6.895  15.695 -0.6287 -2.7753 -0.5695
10665TIP3   OH253409   6.269   1.592   2.702  0.3491 -0.3649 -0.4349
10665TIP3    H153410   6.212   1.659   2.740  1.2517 -0.0185  0.3434
10665TIP3    H253411   6.211   1.519   2.682 -0.2957 -0.1945  0.7705
10666TIP3   OH253412   4.288   1.827   2.660  0.0418 -0.3526 -0.1934
10666TIP3    H153413   4.306   1.762   2.593  0.7501  1.4274 -1.7654
10666TIP3    H253414   4.372   1.869   2.678 -0.2108 -0.5128  1.5236
10667TIP3   OH253415   5.841   5.513   1.037 -0.1948 -0.2073  0.8570
10667TIP3    H153416   5.747   5.508   1.024  0.2128 -2.1932 -1.6199
10667TIP3    H253417   5.865   5.600   1.004 -1.1516  0.3733  1.6516
10668TIP3   OH253418   3.460   2.884   0.782  0.0788  0.0885  0.0775
10668TIP3    H153419   3.428   2.973   0.766  0.1964  0.0872 -0.1789
10668TIP3    H253420   3.400   2.847   0.846  0.0733  0.3797  0.2388
10669TIP3   OH253421   3.271   2.732   1.800 -0.1092  0.4719  0.1505
10669TIP3    H153422   3.241   2.754   1.888 -1.0362  0.0371 -0.0605
10669TIP3    H253423   3.220   2.789   1.742 -2.3089 -1.9818 -0.3806
10670TIP3   OH253424   2.038   1.943   2.663 -0.8924  0.2334 -0.6811
10670TIP3    H153425   2.059   2.035   2.675  1.2244 -0.5875  2.3943
10670TIP3    H253426   1.993   1.918   2.744  2.4487 -2.4669  0.4330
10671TIP3   OH253427   4.740   1.605   3.420  0.0576 -0.0874 -0.1285
10671TIP3    H153428   4.835   1.593   3.413  0.1225  0.7474 -0.7578
10671TIP3    H253429   4.720   1.676   3.358 -0.8623  0.2769  0.5667
10672TIP3   OH253430   4.182   1.965  15.457 -0.1028 -0.1052  0.1158
10672TIP3    H153431   4.182   1.904  15.383 -0.8082 -0.3694  0.3252
10672TIP3    H253432   4.254   1.937  15.512 -0.6143 -0.9375  0.3621
10673TIP3   OH253433   6.319   0.945   1.592  0.0462  0.0040  0.7342
10673TIP3    H153434   6.286   0.862   1.626 -0.0978  0.1063  0.8415
10673TIP3    H253435   6.364   0.985   1.666  0.6315 -0.2508  0.5204
10674TIP3   OH253436   2.975   1.225   1.267  0.3600  0.5190  0.6958
10674TIP3    H153437   3.000   1.313   1.238 -2.6790  1.0287 -0.5529
10674TIP3    H253438   2.930   1.187   1.192 -0.5825 -1.1521  2.0763
10675TIP3   OH253439   2.473   1.103   3.675  0.3331 -0.3194  0.1931
10675TIP3    H153440   2.564   1.124   3.695 -0.2645  0.2927  2.4486
10675TIP3    H253441   2.447   1.043   3.746 -1.2058  0.0231 -0.0687
10676TIP3   OH253442   1.445   2.123   3.923 -0.0625  0.0237 -0.1283
10676TIP3    H153443   1.500   2.128   4.001 -1.6363  1.1515  0.9286
10676TIP3    H253444   1.365   2.079   3.953 -0.9560  1.0808 -0.9321
10677TIP3   OH253445   5.531   4.267   3.812  0.0822 -0.1530 -0.0508
10677TIP3    H153446   5.450   4.299   3.852  0.7671  1.3633  0.1683
10677TIP3    H253447   5.559   4.196   3.869  0.1480  0.8680  1.2106
10678TIP3   OH253448   2.895   1.100   1.996 -0.4463  0.6643 -0.2398
10678TIP3    H153449   2.847   1.177   2.026 -1.9091  0.5674 -2.1952
10678TIP3    H253450   2.828   1.033   1.984  0.8668 -1.0507  1.7842
10679TIP3   OH253451   5.735   2.441  15.451 -0.0522 -0.3302  0.0879
10679TIP3    H153452   5.770   2.393  15.376 -0.5387  0.4389 -0.6456
10679TIP3    H253453   5.808   2.495  15.480 -0.4219  0.8414 -1.0808
10680TIP3   OH253454   3.799   3.543   2.229 -0.2720  0.0306  0.6929
10680TIP3    H153455   3.879   3.591   2.209  0.2584 -0.5299  1.4049
10680TIP3    H253456   3.798   3.469   2.168  0.5246 -0.7916  1.6642
10681TIP3   OH253457   3.625   0.711   0.360  0.5262 -0.3577  0.1633
10681TIP3    H153458   3.566   0.786   0.370  0.5515 -0.3177  0.0224
10681TIP3    H253459   3.597   0.649   0.427  0.7829 -0.0421  0.5646
10682TIP3   OH253460   4.379   2.371   1.289  0.4653 -1.0182  0.3581
10682TIP3    H153461   4.337   2.374   1.375  1.2362  1.1076  0.6815
10682TIP3    H253462   4.456   2.314   1.302  0.2994 -1.1102  0.9444
10683TIP3   OH253463   4.555   2.686   1.120  0.2078 -0.1483 -0.6638
10683TIP3    H153464   4.528   2.731   1.040  0.2432  1.1238  0.0315
10683TIP3    H253465   4.533   2.746   1.191  0.2375 -1.2385  0.2914
10684TIP3   OH253466   5.290   1.007   0.062  0.1998 -0.2284 -0.0792
10684TIP3    H153467   5.230   1.081   0.072  2.5171  1.5714  1.0430
10684TIP3    H253468   5.361   1.040   0.008  0.8024 -1.9519 -0.3913
10685TIP3   OH253469   2.631   3.475   1.932  0.2808  0.0350  0.2937
10685TIP3    H153470   2.595   3.562   1.916 -3.8048 -1.3801  1.0322
10685TIP3    H253471   2.636   3.467   2.027  0.9154 -0.4154  0.2263
10686TIP3   OH253472   5.627   0.067   0.647  0.2626 -0.2156 -0.7182
10686TIP3    H153473   5.676  -0.009   0.615  1.0337 -0.7215  1.5699
10686TIP3    H253474   5.538   0.035   0.660  0.6048 -0.7677  0.3194
10687TIP3   OH253475   4.552   1.978   0.419 -0.5718  0.4638  0.2836
10687TIP3    H153476   4.481   2.037   0.443 -0.3837  0.6960  0.2682
10687TIP3    H253477   4.595   1.957   0.502  0.4608  1.7545  0.0835
10688TIP3   OH253478   6.883   1.201   3.229  0.2020 -0.2550  0.4249
10688TIP3    H153479   6.862   1.242   3.312  0.8034 -0.7942  0.8487
10688TIP3    H253480   6.802   1.206   3.178  0.2477  1.3866  0.4874
10689TIP3   OH253481   4.426   5.140   3.874 -0.5356  0.0721  0.5163
10689TIP3    H153482   4.486   5.068   3.895 -0.3667  0.5080  1.5500
10689TIP3    H253483   4.433   5.149   3.779 -1.1673 -1.8109  0.2704
10690TIP3   OH253484   3.788   1.197   0.461  0.4592 -0.3838  0.0058
10690TIP3    H153485   3.771   1.137   0.388 -1.0844 -0.4400  0.3863
10690TIP3    H253486   3.816   1.278   0.419  2.0201 -1.1811 -0.5349
10691TIP3   OH253487   2.577   1.120  15.632 -0.0908  0.2857 -0.1265
10691TIP3    H153488   2.669   1.110  15.607 -0.3145 -1.8498 -0.2186
10691TIP3    H253489   2.528   1.085  15.558 -1.0559  2.7110 -0.6727
10692TIP3   OH253490   5.971   1.503   2.946  0.3997  0.5525  0.3188
10692TIP3    H153491   6.013   1.583   2.977  0.7255  0.3365  0.4478
10692TIP3    H253492   5.958   1.517   2.852 -1.6572  1.6840  0.7368
10693TIP3   OH253493   6.557   0.697   0.515 -0.2810  0.5655 -0.0016
10693TIP3    H153494   6.475   0.707   0.564 -0.9522  0.7031 -1.1268
10693TIP3    H253495   6.596   0.618   0.551 -1.3060  0.0439 -0.0143
10694TIP3   OH253496   3.479   0.148  15.738 -0.5338 -0.1525  0.0716
10694TIP3    H153497   3.410   0.085  15.762 -0.9469 -0.2320 -1.2939
10694TIP3    H253498   3.431   0.226  15.711 -0.1367 -0.6090 -2.0231
10695TIP3   OH253499   4.307   1.100  15.832 -0.0342 -0.6125  0.0441
10695TIP3    H153500   4.350   1.136  15.909 -1.4041 -1.3290  1.1493
10695TIP3    H253501   4.248   1.032  15.866  0.8939 -2.4119 -1.7817
10696TIP3   OH253502   2.428   1.327   1.251  0.2711 -0.4499  0.1546
10696TIP3    H153503   2.355   1.269   1.274  1.2239 -1.7681 -0.0167
10696TIP3    H253504   2.501   1.294   1.305  0.3725  1.7625  1.4066
10697TIP3   OH253505   6.390   0.860   2.387  0.4351 -0.0736 -0.2186
10697TIP3    H153506   6.467   0.895   2.343  0.3401  0.0752 -0.2689
10697TIP3    H253507   6.376   0.774   2.348  0.8507 -0.2936  0.1196
10698TIP3   OH253508   5.775   6.376  15.615 -0.3344 -0.0514 -0.0076
10698TIP3    H153509   5.868   6.364  15.596 -0.8999 -1.1922 -2.2040
10698TIP3    H253510   5.758   6.318  15.689  0.1442 -1.8415 -1.2662
10699TIP3   OH253511   4.504   2.428   1.031  0.6277 -0.5626  0.3514
10699TIP3    H153512   4.529   2.513   1.068  0.8999 -1.1880  1.6201
10699TIP3    H253513   4.439   2.393   1.092 -0.5480 -0.6432 -0.9186
10700TIP3   OH253514   4.025   1.120   3.032 -0.1733 -0.1545 -0.1680
10700TIP3    H153515   4.092   1.081   2.976 -1.9154  0.2549 -2.6450
10700TIP3    H253516   3.969   1.169   2.971 -1.9686  0.5557  1.9954
10701TIP3   OH253517   6.041   2.170  13.517  0.1808  0.0016  0.1341
10701TIP3    H153518   6.009   2.228  13.448  0.0914 -0.0087  0.1675
10701TIP3    H253519   6.023   2.218  13.599  0.0807 -0.0861  0.1624
10702TIP3   OH253520   1.912   1.469   1.913 -0.3167  0.7805  0.0707
10702TIP3    H153521   1.888   1.462   2.005 -0.1332  1.8650  0.2018
10702TIP3    H253522   1.953   1.384   1.893 -1.4660  0.0833  0.6484
10703TIP3   OH253523   3.034   6.890  15.006 -0.3515 -0.3537  0.3706
10703TIP3    H153524   3.102   6.944  14.966  0.0219 -0.3160  1.0450
10703TIP3    H253525   3.027   6.813  14.949  1.0497 -0.8936  0.9086
10704TIP3   OH253526   4.706   1.183   1.691  0.3138 -0.6742  0.1650
10704TIP3    H153527   4.692   1.138   1.775  1.3520  0.8417  1.1855
10704TIP3    H253528   4.764   1.124   1.642  0.2455 -1.2614  0.7771
10705TIP3   OH253529   3.203   0.031   0.882 -0.3590  0.1808 -0.1543
10705TIP3    H153530   3.111   0.014   0.899 -0.3812  0.6071  0.1400
10705TIP3    H253531   3.205   0.114   0.835 -0.0561  0.6368  0.6634
10706TIP3   OH253532   2.865   0.100   1.168  0.2747  0.3461  0.1080
10706TIP3    H153533   2.929   0.061   1.108  0.4473  0.3673  0.2764
10706TIP3    H253534   2.916   0.119   1.247  0.3803  1.6653 -0.2671
10707TIP3   OH253535   2.657   2.261   2.401  0.0360 -0.4022 -0.5366
10707TIP3    H153536   2.596   2.283   2.471 -0.2009 -1.9723 -0.2224
10707TIP3    H253537   2.699   2.180   2.431 -0.1688 -1.1646 -2.2498
10708TIP3   OH253538   3.713   0.591  15.491 -0.4465 -0.2714  0.0304
10708TIP3    H153539   3.711   0.518  15.554 -0.3987  0.0399  0.3910
10708TIP3    H253540   3.762   0.556  15.416  1.2408 -0.0037  0.9706
10709TIP3   OH253541   1.684   6.121   1.864 -0.1107  0.2331  0.2979
10709TIP3    H153542   1.603   6.135   1.912  0.8802 -1.3045  2.4663
10709TIP3    H253543   1.754   6.139   1.927  1.2284 -0.5930 -0.9058
10710TIP3   OH253544   4.968   1.681   2.365  0.3721  0.0870 -0.1460
10710TIP3    H153545   4.947   1.682   2.458 -0.2603 -1.6639 -0.2396
10710TIP3    H253546   4.892   1.721   2.323  0.2018 -0.0529  0.0245
10711TIP3   OH253547   3.439   1.347   3.377 -0.3412  0.0562  0.0917
10711TIP3    H153548   3.514   1.387   3.333 -0.6723  1.0395  0.4064
10711TIP3    H253549   3.457   1.253   3.375 -0.3151  0.0911 -2.0805
10712TIP3   OH253550   4.769   0.790   0.931  0.3043  0.1258 -0.0788
10712TIP3    H153551   4.731   0.751   0.853  1.2459  0.9155 -0.9464
10712TIP3    H253552   4.827   0.858   0.898  1.6819 -0.3709  1.2566
10713TIP3   OH253553   4.353   1.677  15.806  0.3698  0.2589  0.0017
10713TIP3    H153554   4.370   1.610  15.740 -1.1485 -1.6344  1.5084
10713TIP3    H253555   4.397   1.646  15.885 -1.1895  0.5168  1.0008
10714TIP3   OH253556   4.644   7.182   1.318 -0.1238 -0.2610 -0.4739
10714TIP3    H153557   4.715   7.208   1.376 -0.0608 -1.0631 -0.1908
10714TIP3    H253558   4.564   7.203   1.367 -0.0743 -0.5306 -0.2799
10715TIP3   OH253559   4.718   2.272   1.096 -0.3521  0.4915  0.1242
10715TIP3    H153560   4.641   2.329   1.091  0.8735  2.1413 -0.5845
10715TIP3    H253561   4.730   2.256   1.190 -1.2162  0.7104  0.2730
10716TIP3   OH253562   4.445   1.029  14.789 -0.3879 -0.5346  0.2425
10716TIP3    H153563   4.411   1.003  14.703 -1.5138  0.7262  0.2968
10716TIP3    H253564   4.540   1.029  14.777 -0.5363 -0.1008 -1.0843
10717TIP3   OH253565   6.084   1.765   2.945 -0.1406 -0.7073  0.1334
10717TIP3    H153566   6.135   1.811   2.879 -0.1478 -0.2776  0.4234
10717TIP3    H253567   6.046   1.834   2.999 -0.5115 -1.0414  0.3071
10718TIP3   OH253568   5.770   1.753   2.874  0.3350 -0.3859  0.1687
10718TIP3    H153569   5.802   1.835   2.837 -1.8414  0.8779  0.9760
10718TIP3    H253570   5.835   1.728   2.940  0.4134  1.3377  0.7564
10719TIP3   OH253571   3.238   0.908   1.359 -0.4727 -0.0057  0.2493
10719TIP3    H153572   3.329   0.915   1.330 -0.3879 -1.2882  0.1437
10719TIP3    H253573   3.243   0.891   1.453 -0.6571  1.4525  0.5250
10720TIP3   OH253574   4.116   3.744   4.522  0.2167  0.2815  0.7787
10720TIP3    H153575   4.135   3.693   4.444 -2.6175 -0.0119  0.2165
10720TIP3    H253576   4.062   3.687   4.577  0.5765  1.1533  2.0795
10721TIP3   OH253577   1.595   1.193   0.305 -0.0841  0.0779  0.2094
10721TIP3    H153578   1.649   1.211   0.227 -1.0830  1.5340 -0.1756
10721TIP3    H253579   1.525   1.137   0.273 -0.2279  0.2894  0.1488
10722TIP3   OH253580   4.450   1.806   0.069  0.5974 -0.0119  0.1972
10722TIP3    H153581   4.393   1.815  -0.008  0.4909  1.1545  0.3938
10722TIP3    H253582   4.390   1.800   0.143  0.6916 -1.5876  0.1626
10723TIP3   OH253583   2.381   1.840   3.486 -0.7526 -0.4075  0.2322
10723TIP3    H153584   2.287   1.844   3.466 -1.0497 -0.3589  1.5894
10723TIP3    H253585   2.396   1.749   3.509 -0.6172 -0.2507  0.7562
10724TIP3   OH253586   5.993   3.083   1.160  0.0378 -0.2942 -0.0185
10724TIP3    H153587   5.958   3.115   1.076 -0.6798 -1.5317 -0.2141
10724TIP3    H253588   6.071   3.034   1.136 -0.6344 -1.3632 -0.0683
10725TIP3   OH253589   5.158   1.049   1.334  0.3264 -0.0737 -0.1072
10725TIP3    H153590   5.167   0.962   1.371 -0.2252 -0.3704 -0.6664
10725TIP3    H253591   5.148   1.107   1.409  0.5745 -0.5056  0.2568
10726TIP3   OH253592   4.348   2.432  15.757  0.1011 -0.2660  0.1535
10726TIP3    H153593   4.265   2.384  15.749 -0.3724  0.4687  0.5736
10726TIP3    H253594   4.370   2.426  15.850 -0.4405  1.1110  0.3806
10727TIP3   OH253595   5.077   1.129   2.541 -0.1732  0.6313 -0.1008
10727TIP3    H153596   5.099   1.186   2.467 -0.0918 -0.2380 -0.7559
10727TIP3    H253597   4.984   1.148   2.558 -0.2410  0.7146 -0.5425
10728TIP3   OH253598   5.147   2.083  15.868  0.0590  0.1327  0.7907
10728TIP3    H153599   5.220   2.020  15.865 -0.1162 -0.0621  0.5629
10728TIP3    H253600   5.068   2.029  15.861 -0.1563  0.2480  2.2033
10729TIP3   OH253601   4.250   1.808   0.346  0.0068  0.3037 -0.3017
10729TIP3    H153602   4.237   1.716   0.324  1.5237 -0.0121  0.0019
10729TIP3    H253603   4.305   1.806   0.425 -0.5288  1.4617  0.1136
10730TIP3   OH253604   3.528   1.141  14.965 -0.1447  0.1666  0.2527
10730TIP3    H153605   3.596   1.208  14.974  0.1324  0.0643 -1.0396
10730TIP3    H253606   3.460   1.183  14.912  0.0521 -0.5967 -0.5959
10731TIP3   OH253607   2.630   1.791   0.775 -0.1951  0.1777 -0.0609
10731TIP3    H153608   2.633   1.809   0.868  0.6113  0.5847 -0.1635
10731TIP3    H253609   2.546   1.827   0.746 -0.2239  0.4894  0.4112
10732TIP3   OH253610   1.565   2.736   3.136  0.2793 -0.3192 -0.0250
10732TIP3    H153611   1.645   2.690   3.160  1.4112  0.2076 -2.6394
10732TIP3    H253612   1.589   2.829   3.137 -0.3050 -0.1537 -0.7225
10733TIP3   OH253613   5.614   2.219  15.102  0.1188  0.3037  0.1746
10733TIP3    H153614   5.551   2.166  15.152 -3.1391  2.3785 -1.5774
10733TIP3    H253615   5.633   2.166  15.025 -1.8886  0.9487 -0.7896
10734TIP3   OH253616   2.787   0.840  15.301 -0.6366  0.6150 -0.4047
10734TIP3    H153617   2.747   0.761  15.337 -2.4947  0.6030 -2.3469
10734TIP3    H253618   2.738   0.912  15.340 -1.0617  0.6827 -1.0556
10735TIP3   OH253619   3.554   0.944   0.971 -0.3355  0.3829  0.1974
10735TIP3    H153620   3.581   1.034   0.954  1.3115  0.0469  0.9121
10735TIP3    H253621   3.550   0.938   1.067 -2.9742  0.4011  0.1233
10736TIP3   OH253622   2.850   1.860   3.339 -0.1050 -0.1866  1.1557
10736TIP3    H153623   2.768   1.897   3.373  0.2344 -0.7293  2.6289
10736TIP3    H253624   2.913   1.931   3.348 -0.2359 -0.0231  0.7726
10737TIP3   OH253625   5.756   1.702   0.598  0.5554  0.4275 -0.2733
10737TIP3    H153626   5.808   1.621   0.592  0.0225  0.1966 -1.8898
10737TIP3    H253627   5.782   1.740   0.682 -0.7064 -2.4730  1.5060
10738TIP3   OH253628   2.494   6.186   0.900  0.8219 -0.4196 -0.1765
10738TIP3    H153629   2.440   6.108   0.906  2.8375 -1.7864  0.7211
10738TIP3    H253630   2.518   6.206   0.990  0.0052  1.4907 -0.3552
10739TIP3   OH253631   6.073   0.496   1.179 -0.0570  0.3897  0.5418
10739TIP3    H153632   6.154   0.482   1.228 -0.0852 -0.1582  0.4389
10739TIP3    H253633   6.100   0.539   1.098  0.0073  1.1579  0.9647
10740TIP3   OH253634   2.722   1.599   3.846  0.4945  0.2909  0.6984
10740TIP3    H153635   2.793   1.636   3.898  1.1414  0.8970 -0.5845
10740TIP3    H253636   2.676   1.540   3.906  0.0868  2.3536  2.4783
10741TIP3   OH253637   5.226   2.421   3.549  0.1166 -0.2211 -0.0467
10741TIP3    H153638   5.307   2.417   3.498  0.6084 -1.4884  0.8052
10741TIP3    H253639   5.190   2.333   3.544 -0.6013  0.0330  0.5624
10742TIP3   OH253640   3.791   0.116   2.627 -0.5646 -0.0169 -0.9142
10742TIP3    H153641   3.766   0.052   2.695  0.6006  0.0212 -0.4432
10742TIP3    H253642   3.886   0.109   2.622 -0.6464 -0.1022 -2.6458
10743TIP3   OH253643   4.677   0.380   0.546 -0.0713 -0.1156  0.1419
10743TIP3    H153644   4.601   0.386   0.489 -0.5873  1.5503  0.9870
10743TIP3    H253645   4.751   0.368   0.486 -0.6855  0.9351 -0.8369
10744TIP3   OH253646   4.735   5.987  15.277  0.4264  0.3539 -0.4003
10744TIP3    H153647   4.703   5.955  15.361  0.9989  0.5541 -0.1028
10744TIP3    H253648   4.830   5.982  15.284  0.5312  1.9882 -0.3778
10745TIP3   OH253649   4.372   3.395   0.651  0.1208 -0.2832 -0.3797
10745TIP3    H153650   4.308   3.358   0.591  0.5115  1.2186 -1.7762
10745TIP3    H253651   4.334   3.383   0.738 -1.8004  0.0922 -1.1457
10746TIP3   OH253652   4.666   0.108   0.313  0.1998  0.4879  0.6755
10746TIP3    H153653   4.616   0.056   0.250  3.7483 -0.5748 -1.4558
10746TIP3    H253654   4.666   0.057   0.393 -0.6871 -0.3021  0.1718
10747TIP3   OH253655   4.239   4.270   0.635 -0.0646 -0.3948 -0.5735
10747TIP3    H153656   4.192   4.273   0.718 -1.0717  1.4853 -1.1654
10747TIP3    H253657   4.176   4.303   0.571  1.4032  0.2111 -1.7342
10748TIP3   OH253658   3.381   2.754  14.624 -0.4729  0.1034  0.0651
10748TIP3    H153659   3.356   2.824  14.565  0.7196  0.1757 -0.3547
10748TIP3    H253660   3.445   2.793  14.683  2.5098 -1.3759 -2.0785
10749TIP3   OH253661   2.581   3.466  15.421  0.1645 -0.0820  0.7208
10749TIP3    H153662   2.638   3.494  15.493  1.7115  1.9850 -1.2363
10749TIP3    H253663   2.621   3.504  15.343 -1.4004 -2.3986 -1.2778
10750TIP3   OH253664   1.887   1.380   0.572 -0.1367 -0.3622  0.3366
10750TIP3    H153665   1.862   1.416   0.658  1.1933  0.5848  0.3461
10750TIP3    H253666   1.965   1.328   0.590  0.0122 -0.3510 -0.2702
10751TIP3   OH253667   4.961   2.159   0.353 -0.4245  0.5220 -0.0447
10751TIP3    H153668   5.006   2.183   0.272  0.3108  2.1912  0.8305
10751TIP3    H253669   5.002   2.076   0.380 -0.1549  0.3507 -0.9708
10752TIP3   OH253670   4.186   1.604   2.158  0.1338 -0.1389  0.3212
10752TIP3    H153671   4.140   1.607   2.243  0.5973  0.6138  0.5551
10752TIP3    H253672   4.231   1.519   2.158  0.5669  0.0819  1.0669
10753TIP3   OH253673   4.178   7.105  14.577  0.3001  0.0486 -0.2557
10753TIP3    H153674   4.149   7.073  14.492 -0.2239  0.2876 -0.1706
10753TIP3    H253675   4.107   7.162  14.607  0.6150  0.2059  0.2037
10754TIP3   OH253676   5.720   2.879  15.607  0.8121 -0.4361  0.1709
10754TIP3    H153677   5.643   2.825  15.626  0.8976 -0.3543  0.7678
10754TIP3    H253678   5.683   2.964  15.581  0.6705 -0.9012 -1.1712
10755TIP3   OH253679   6.734   3.207   0.793 -0.0722  0.5404  0.2298
10755TIP3    H153680   6.793   3.180   0.723  0.7055  0.7552  0.7964
10755TIP3    H253681   6.653   3.231   0.749  0.6351  1.3103 -0.6605
10756TIP3   OH253682   2.647   7.203   1.821 -0.0375  0.0717 -0.4521
10756TIP3    H153683   2.581   7.182   1.887  0.8399  1.0388  0.7534
10756TIP3    H253684   2.703   7.269   1.863  0.6129  0.5976 -2.1161
10757TIP3   OH253685   4.975   0.507   0.003 -0.2055 -0.4117 -0.0581
10757TIP3    H153686   5.017   0.552   0.075 -1.1482  1.4994 -0.6802
10757TIP3    H253687   4.893   0.554  -0.011 -0.7080 -1.6370 -1.4296
10758TIP3   OH253688   1.119   2.465   3.201 -0.2357  0.5181 -0.1969
10758TIP3    H153689   1.191   2.525   3.182  0.3050 -0.3889 -1.0561
10758TIP3    H253690   1.056   2.481   3.131  0.4814 -0.7993 -1.1737
10759TIP3   OH253691   3.492   2.481   2.478  0.2165 -0.1724  0.3884
10759TIP3    H153692   3.463   2.460   2.567 -0.1181  0.8859  0.5388
10759TIP3    H253693   3.487   2.577   2.473 -1.4364 -0.3283 -1.3382
10760TIP3   OH253694   6.615   2.779  15.954  0.2549 -0.6359  0.7048
10760TIP3    H153695   6.588   2.744  16.039 -1.2837  0.5163  0.7058
10760TIP3    H253696   6.707   2.804  15.967  0.3652 -1.5130  1.6879
10761TIP3   OH253697   3.532   1.246   2.714 -0.4109 -0.3635 -0.5385
10761TIP3    H153698   3.566   1.326   2.676  0.4264  1.3134  3.4650
10761TIP3    H253699   3.446   1.270   2.749  0.8847 -0.4178  2.9084
10762TIP3   OH253700   6.508   5.951   0.823 -0.7995  0.6243 -0.1403
10762TIP3    H153701   6.421   5.974   0.790 -0.9888  1.5648  0.9610
10762TIP3    H253702   6.559   6.032   0.813 -0.0760  0.0979 -0.7108
10763TIP3   OH253703   3.071   1.477   1.141  0.4753 -0.2516  0.2536
10763TIP3    H153704   3.025   1.522   1.070  1.4543 -1.3139 -1.0527
10763TIP3    H253705   3.155   1.522   1.147  0.6159 -0.5349  0.3727
10764TIP3   OH253706   4.901   0.879  14.998  0.0945  1.0064  0.2801
10764TIP3    H153707   4.974   0.914  14.946 -0.3507  0.9554 -0.3787
10764TIP3    H253708   4.944   0.826  15.066  0.6471  0.4570 -0.4900
10765TIP3   OH253709   3.121   1.753   1.424 -0.3830 -0.5072 -0.2767
10765TIP3    H153710   3.090   1.803   1.499 -1.4178  1.9114 -2.2391
10765TIP3    H253711   3.053   1.687   1.410  0.1054 -1.3613  1.2299
10766TIP3   OH253712   4.033   3.490   2.810 -0.2261  0.3460  0.3848
10766TIP3    H153713   3.985   3.572   2.801  0.9263  0.8916 -0.9417
10766TIP3    H253714   4.102   3.510   2.873 -0.9558 -0.0833  1.3289
10767TIP3   OH253715   3.450   2.630   1.544  0.0311  0.4869  0.2703
10767TIP3    H153716   3.459   2.651   1.637  1.5041 -0.6098  0.3924
10767TIP3    H253717   3.373   2.680   1.516  0.9996  2.7806  1.4955
10768TIP3   OH253718   4.657   2.281  14.833  0.0464 -0.2975 -0.0598
10768TIP3    H153719   4.674   2.255  14.743  1.3740 -0.5189  0.2488
10768TIP3    H253720   4.718   2.230  14.885 -0.3625  0.2015  0.9295
10769TIP3   OH253721   3.612   0.745   1.579 -0.3041 -0.0816 -0.0448
10769TIP3    H153722   3.634   0.668   1.527 -0.6566 -0.9231  1.0328
10769TIP3    H253723   3.570   0.805   1.517 -0.2791 -0.8653 -0.8306
10770TIP3   OH253724   3.336   6.777   1.209  0.4690 -0.7439  0.4096
10770TIP3    H153725   3.351   6.684   1.223  1.8066 -0.3624  1.7152
10770TIP3    H253726   3.328   6.813   1.298 -1.3026  0.1881 -0.1128
10771TIP3   OH253727   3.766   2.252   1.143 -0.1287 -0.0542  0.7419
10771TIP3    H153728   3.718   2.319   1.192  0.5462  1.0876 -0.1067
10771TIP3    H253729   3.811   2.201   1.210 -0.7943  0.2290  1.4178
10772TIP3   OH253730   5.070   1.349   0.323  0.0908  0.5448 -0.5769
10772TIP3    H153731   5.038   1.260   0.310 -0.7686  0.6847  0.4966
10772TIP3    H253732   5.054   1.366   0.416  2.7969  0.8049 -0.1087
10773TIP3   OH253733   2.635   1.193   0.292 -0.4615 -0.0951  0.4631
10773TIP3    H153734   2.552   1.235   0.270 -0.2176 -0.0898 -0.4619
10773TIP3    H253735   2.697   1.264   0.302 -0.4318 -0.1336  0.5523
10774TIP3   OH253736   5.215   2.083   2.228  0.0048 -0.3376  0.1037
10774TIP3    H153737   5.237   2.102   2.319  0.7089 -0.7285  0.0196
10774TIP3    H253738   5.215   1.987   2.223  0.8156 -0.3110 -0.5061
10775TIP3   OH253739   4.733   1.298   0.381 -0.0942  0.1621 -0.0692
10775TIP3    H153740   4.804   1.335   0.433 -1.2094  1.5292  0.5119
10775TIP3    H253741   4.760   1.208   0.364  2.2108  0.9266 -0.6453
10776TIP3   OH253742   4.156   3.068  15.781 -0.0232 -0.1331 -0.2625
10776TIP3    H153743   4.227   3.049  15.720 -1.3703  0.2021 -1.9530
10776TIP3    H253744   4.156   3.163  15.790 -0.1332 -0.1457 -0.1195
10777TIP3   OH253745   5.170   1.842   2.085 -0.1497  0.3137 -0.2825
10777TIP3    H153746   5.255   1.812   2.055  0.0338  0.4954  0.0555
10777TIP3    H253747   5.140   1.775   2.146 -0.3516  0.1343 -0.5797
10778TIP3   OH253748   4.775   2.655   3.287  0.2247 -0.1172  0.8158
10778TIP3    H153749   4.811   2.594   3.351 -1.9463 -1.1396  1.1134
10778TIP3    H253750   4.783   2.610   3.203 -0.3319 -0.3279  0.8768
10779TIP3   OH253751   6.093   7.216   1.320 -0.2263 -0.2197  0.7583
10779TIP3    H153752   6.070   7.294   1.370  0.7415  1.7461 -1.7799
10779TIP3    H253753   6.078   7.241   1.228  0.2127 -2.9787 -0.1070
10780TIP3   OH253754   4.082   2.246   0.890  0.5302  0.0590 -0.1047
10780TIP3    H153755   4.010   2.309   0.884 -0.1736 -0.8461 -1.2059
10780TIP3    H253756   4.107   2.247   0.983  0.6090  2.0394 -0.1176
10781TIP3   OH253757   4.917   0.083   3.380 -0.0700 -0.0717 -0.1881
10781TIP3    H153758   4.871   0.113   3.458  0.3417 -0.9459  0.3950
10781TIP3    H253759   4.850   0.041   3.326  0.0715 -1.4571  0.7169
10782TIP3   OH253760   2.546   0.581   1.438 -0.0649  0.1197 -0.1169
10782TIP3    H153761   2.518   0.607   1.350  1.7563  2.1053 -0.1363
10782TIP3    H253762   2.625   0.528   1.423 -1.3143 -1.8774  0.1869
10783TIP3   OH253763   2.523   6.984   4.437  0.6683 -0.1577  0.2634
10783TIP3    H153764   2.551   7.042   4.508  0.0255  1.1593 -0.5556
10783TIP3    H253765   2.481   7.041   4.374  0.0477 -1.5159 -0.5766
10784TIP3   OH253766   3.969   0.395   2.037 -0.3993 -0.6975  0.1354
10784TIP3    H153767   3.905   0.453   2.079  0.5794 -1.2642  2.4896
10784TIP3    H253768   3.916   0.333   1.986 -1.4923  1.7738 -1.8428
10785TIP3   OH253769   4.827   2.501   1.637 -0.2689  0.6734 -1.0810
10785TIP3    H153770   4.780   2.584   1.634  0.2155  0.9698 -0.5569
10785TIP3    H253771   4.877   2.498   1.555 -0.4251  0.8119 -1.1813
10786TIP3   OH253772   2.083   0.203  15.191 -0.4055 -0.9916 -0.2254
10786TIP3    H153773   2.156   0.260  15.214  0.8832 -2.2345 -1.1227
10786TIP3    H253774   2.026   0.257  15.136 -0.6497  0.2660  1.2279
10787TIP3   OH253775   4.416   0.080   0.480  0.0584 -0.1632 -0.2582
10787TIP3    H153776   4.327   0.089   0.445 -0.3761  0.3352  0.9590
10787TIP3    H253777   4.463   0.156   0.444  0.3586 -1.1083 -1.9346
10788TIP3   OH253778   1.469   3.101   2.987 -0.2224  0.1060 -0.7768
10788TIP3    H153779   1.538   3.128   2.927 -0.0409 -0.1239 -0.6731
10788TIP3    H253780   1.388   3.132   2.947 -0.0343  0.6077 -0.7702
10789TIP3   OH253781   2.961   3.285   2.551  0.5894 -0.2288  0.6476
10789TIP3    H153782   2.884   3.299   2.607 -0.5125  0.5983 -1.0251
10789TIP3    H253783   3.021   3.235   2.605 -1.4296 -1.5300  1.7675
10790TIP3   OH253784   4.800   2.560  15.637  0.2052 -0.4652 -0.3312
10790TIP3    H153785   4.760   2.482  15.674  0.1583  1.1026  3.1195
10790TIP3    H253786   4.882   2.529  15.599 -0.8598 -2.5233 -0.9992
10791TIP3   OH253787   4.275   0.751   3.884 -0.3712 -0.0371 -0.3183
10791TIP3    H153788   4.216   0.824   3.904  0.1214  0.5327 -0.8921
10791TIP3    H253789   4.340   0.753   3.954  0.3521  0.8584 -1.0061
10792TIP3   OH253790   6.169   2.476   1.520 -0.0530  0.5743 -0.4543
10792TIP3    H153791   6.120   2.399   1.492  0.6120 -0.2319  0.5310
10792TIP3    H253792   6.260   2.446   1.523 -0.1380  0.4490  2.9860
10793TIP3   OH253793   4.944   1.085   0.259 -0.2049  0.0612 -0.4557
10793TIP3    H153794   4.913   1.027   0.189  0.9343 -0.4431 -0.5616
10793TIP3    H253795   5.000   1.029   0.313 -2.4332 -0.0093  1.8700
10794TIP3   OH253796   0.680   6.590   0.173 -0.8224  0.3317 -0.3214
10794TIP3    H153797   0.716   6.552   0.253 -3.6705 -2.0935 -0.0959
10794TIP3    H253798   0.706   6.529   0.103 -2.0652  0.0593 -0.5601
10795TIP3   OH253799   5.354   2.473   1.435  0.3898  0.4419  0.5167
10795TIP3    H153800   5.295   2.542   1.404 -1.4406  0.0302  2.9187
10795TIP3    H253801   5.339   2.400   1.376  0.1470  1.1074 -0.2456
10796TIP3   OH253802   4.429   3.167   2.358  0.4940 -0.3657  0.2712
10796TIP3    H153803   4.441   3.078   2.390 -0.0916 -0.4063  0.3814
10796TIP3    H253804   4.506   3.215   2.390  2.2860 -1.4724 -2.1298
10797TIP3   OH253805   5.780   2.084  14.122  0.1030 -0.6165  0.5109
10797TIP3    H153806   5.737   2.063  14.038  0.0458  0.9246  0.1426
10797TIP3    H253807   5.716   2.059  14.188 -0.5642 -0.2074  0.0303
10798TIP3   OH253808   5.256   6.427  14.227 -0.6123 -0.4013 -0.2577
10798TIP3    H153809   5.210   6.503  14.192  0.7693 -0.1126 -1.5149
10798TIP3    H253810   5.190   6.380  14.278 -1.4326  1.7440  0.7233
10799TIP3   OH253811   6.435   6.714  15.818 -0.6603 -0.2802  0.5232
10799TIP3    H153812   6.460   6.703  15.727  0.6062 -0.5911  0.8961
10799TIP3    H253813   6.412   6.626  15.849  2.2626 -0.7493  1.4494
10800TIP3   OH253814   2.884   1.932   2.280 -0.2094 -0.2191 -0.2285
10800TIP3    H153815   2.849   1.889   2.359 -2.4115  0.7371 -0.6630
10800TIP3    H253816   2.900   1.860   2.219  0.9421 -0.9067  0.8632
10801TIP3   OH253817   4.139   1.397   1.305  0.0923 -0.1113  0.5546
10801TIP3    H153818   4.049   1.378   1.331  0.2381  0.4888  1.5162
10801TIP3    H253819   4.189   1.396   1.387  0.9470 -0.3464  0.0429
10802TIP3   OH253820   6.534   1.424   1.613 -0.0527 -0.2826 -0.2847
10802TIP3    H153821   6.513   1.497   1.555  0.2154  1.3259  1.5924
10802TIP3    H253822   6.602   1.375   1.567  0.0467  0.8878 -1.3922
10803TIP3   OH253823   3.362   0.349   2.571 -0.0066  0.1352  0.8155
10803TIP3    H153824   3.415   0.350   2.650  0.0233 -1.2276  0.8187
10803TIP3    H253825   3.424   0.365   2.500  0.8581 -3.7265  0.5900
10804TIP3   OH253826   0.545   0.402   1.922  0.1313 -0.0595  0.7630
10804TIP3    H153827   0.597   0.434   1.849 -0.1284  1.1538  1.1017
10804TIP3    H253828   0.455   0.400   1.889  0.4280 -2.6118  0.0238
10805TIP3   OH253829   5.155   1.262   3.289 -0.0876 -0.1741  0.3147
10805TIP3    H153830   5.139   1.198   3.220  0.3302 -1.0969  1.0681
10805TIP3    H253831   5.153   1.211   3.370  1.7564  0.4968  0.7997
10806TIP3   OH253832   5.004   1.710   0.529 -0.1789  0.0145  0.4730
10806TIP3    H153833   4.918   1.678   0.501 -0.5394  0.5179  0.9899
10806TIP3    H253834   5.066   1.643   0.501 -0.6131  0.1849 -0.9285
10807TIP3   OH253835   3.829   6.149   0.565  0.1081  0.4025 -0.0438
10807TIP3    H153836   3.786   6.104   0.493  1.1372 -1.3781  0.4207
10807TIP3    H253837   3.759   6.194   0.611 -1.6586 -4.0729  1.8859
10808TIP3   OH253838   6.093   6.879  14.696  0.1638 -0.0270 -0.0070
10808TIP3    H153839   6.124   6.955  14.647  0.7215  0.4071  1.0056
10808TIP3    H253840   6.053   6.822  14.630  1.5048  0.2392 -1.0605
10809TIP3   OH253841   4.425   1.113   0.919 -0.2588  0.5914  0.3908
10809TIP3    H153842   4.355   1.104   0.854 -1.2493 -1.9179  1.7364
10809TIP3    H253843   4.489   1.171   0.877 -0.9592 -0.7738 -2.7655
10810TIP3   OH253844   3.395   7.111  15.934 -0.4083  0.2318  0.1025
10810TIP3    H153845   3.451   7.037  15.908 -0.3644  0.1226  0.5058
10810TIP3    H253846   3.404   7.174  15.863  0.9319  0.5986  0.5955
10811TIP3   OH253847   4.162   0.609   1.932  0.0192  0.0429 -0.0481
10811TIP3    H153848   4.100   0.538   1.950 -0.2713  0.0292 -1.0666
10811TIP3    H253849   4.245   0.564   1.916 -0.0819 -0.0490 -0.3248
10812TIP3   OH253850   0.640   6.461  15.955  0.2088 -0.0167  0.0210
10812TIP3    H153851   0.546   6.445  15.967  0.2847  0.1267  0.8163
10812TIP3    H253852   0.646   6.506  15.870 -0.3660 -0.6912 -0.3783
10813TIP3   OH253853   2.764   5.835   0.200  0.3905 -0.5362 -0.2088
10813TIP3    H153854   2.846   5.841   0.149  1.4137 -2.0270  1.2262
10813TIP3    H253855   2.695   5.845   0.134  1.7053  0.5033 -1.4894
10814TIP3   OH253856   5.779   1.082   0.069  0.9472 -0.2072 -0.3720
10814TIP3    H153857   5.839   1.078   0.143  0.5055  1.1193  0.0653
10814TIP3    H253858   5.808   1.011   0.011  2.2758 -0.2418  0.3172
10815TIP3   OH253859   3.821   7.173   2.235  0.4148  0.0599  1.4360
10815TIP3    H153860   3.880   7.110   2.193  0.3512  0.1553  1.2048
10815TIP3    H253861   3.878   7.246   2.259  0.0668  0.9576 -0.4376
10816TIP3   OH253862   3.101   2.256   0.117  0.2714 -0.5453  0.4407
10816TIP3    H153863   3.070   2.344   0.135 -1.6104 -1.3278  1.0870
10816TIP3    H253864   3.155   2.233   0.193  1.6470  0.4118 -0.2092
10817TIP3   OH253865   2.606   3.188   2.332  0.0607  0.5258  1.0476
10817TIP3    H153866   2.697   3.173   2.355  0.6559 -0.9347 -1.9915
10817TIP3    H253867   2.562   3.105   2.349  0.0175  0.1919 -0.5544
10818TIP3   OH253868   3.445   3.653   4.118 -0.0715 -0.1350  0.0030
10818TIP3    H153869   3.382   3.595   4.160  1.1163 -1.2446  0.3237
10818TIP3    H253870   3.513   3.666   4.184  0.4652  0.3139 -0.6294
10819TIP3   OH253871   5.759   1.262   0.742 -0.1390  0.8201 -0.3372
10819TIP3    H153872   5.671   1.296   0.759  0.1900  1.3947  0.2300
10819TIP3    H253873   5.779   1.291   0.653 -0.0938  1.6117 -0.0701
10820TIP3   OH253874   3.526   0.444   1.693  0.6484 -0.0311  0.3275
10820TIP3    H153875   3.565   0.487   1.617  1.6447 -1.0888  0.2104
10820TIP3    H253876   3.534   0.508   1.764  0.8748  0.4834 -0.1589
10821TIP3   OH253877   3.999   2.344   2.843  0.2445  0.7048  0.2591
10821TIP3    H153878   4.056   2.267   2.852 -0.5832  0.2258  1.4365
10821TIP3    H253879   4.045   2.400   2.780  0.2360 -1.3338 -1.6419
10822TIP3   OH253880   2.496   0.982   2.354  0.6249  0.1052  0.0491
10822TIP3    H153881   2.405   0.965   2.378  0.6993 -1.8494 -0.9458
10822TIP3    H253882   2.541   0.993   2.438 -0.3837  0.3354  0.5641
10823TIP3   OH253883   4.247   2.578   1.122  0.0064  0.5803 -0.5027
10823TIP3    H153884   4.274   2.504   1.177  0.1987  2.2029  1.6489
10823TIP3    H253885   4.284   2.655   1.165 -0.9283  2.0372 -2.2275
10824TIP3   OH253886   3.868   0.399   2.759 -0.2649  0.2649 -0.5617
10824TIP3    H153887   3.801   0.414   2.691 -1.2374  2.5233  0.8452
10824TIP3    H253888   3.820   0.406   2.841  1.6549  1.6060  0.4770
10825TIP3   OH253889   4.274   1.243  15.392 -0.0838 -0.3713 -0.3246
10825TIP3    H153890   4.291   1.334  15.417  0.8684 -0.4907 -0.5306
10825TIP3    H253891   4.346   1.193  15.432 -0.3701 -0.9819 -0.5622
10826TIP3   OH253892   3.435   5.567   1.390  0.0843  0.7332  0.0009
10826TIP3    H153893   3.364   5.564   1.325 -0.8340  1.2071  0.9819
10826TIP3    H253894   3.461   5.475   1.401 -0.1875  0.5844 -0.5502
10827TIP3   OH253895   3.790   3.680   0.161 -0.4663  0.2916  0.6427
10827TIP3    H153896   3.832   3.765   0.170  0.8570 -0.1456 -1.1336
10827TIP3    H253897   3.716   3.696   0.103  1.5162 -0.2920 -2.1305
10828TIP3   OH253898   3.677   4.008   1.291  0.0475  0.3793  0.6064
10828TIP3    H153899   3.756   4.024   1.341  0.8198 -0.1859 -0.3942
10828TIP3    H253900   3.652   3.918   1.314  2.3379 -1.1580 -2.5120
10829TIP3   OH253901   3.713   2.420   3.136  0.3165  0.2488 -0.5402
10829TIP3    H153902   3.786   2.433   3.196  0.1541  1.8340 -0.6768
10829TIP3    H253903   3.647   2.483   3.164 -1.5129 -1.9880  0.3338
10830TIP3   OH253904   5.148   1.582   1.759  0.0094  0.5692  0.1506
10830TIP3    H153905   5.098   1.658   1.731  0.7222  1.3143  0.8785
10830TIP3    H253906   5.192   1.552   1.679 -0.3721  0.8427 -0.1662
10831TIP3   OH253907   5.283   4.780   2.380  0.0846 -0.0679  0.5397
10831TIP3    H153908   5.303   4.824   2.463  1.7923 -0.7199  0.4884
10831TIP3    H253909   5.346   4.816   2.318 -0.4720 -0.3997 -0.2230
10832TIP3   OH253910   1.364   6.302   1.997 -0.6776 -0.2590  0.2222
10832TIP3    H153911   1.376   6.338   1.908 -0.3292 -2.1245 -0.4964
10832TIP3    H253912   1.386   6.210   1.989  0.2542 -0.2647  2.4712
10833TIP3   OH253913   2.260   0.333   0.469 -0.1002  0.3085 -0.1355
10833TIP3    H153914   2.278   0.339   0.562  1.7738 -0.8246 -0.4052
10833TIP3    H253915   2.342   0.355   0.426 -0.4234 -0.9858 -1.4777
10834TIP3   OH253916   4.143   1.935   0.658  0.1497 -0.0457 -0.3798
10834TIP3    H153917   4.201   1.860   0.642 -0.4730 -0.1752 -2.2928
10834TIP3    H253918   4.183   2.007   0.610  0.1808  0.5757  0.5777
10835TIP3   OH253919   5.808   1.024   1.318  0.0085 -0.6025  0.1252
10835TIP3    H153920   5.876   1.033   1.252  1.1651  3.3041  1.6837
10835TIP3    H253921   5.735   1.075   1.284  0.1068  0.2541  1.1393
10836TIP3   OH253922   3.048   4.481   1.724  0.2980  0.2939  0.5960
10836TIP3    H153923   3.058   4.543   1.796 -0.1727  0.9765  0.0860
10836TIP3    H253924   3.130   4.488   1.675  1.6043 -1.9343  2.4010
10837TIP3   OH253925   5.191   1.360   2.432  0.0659 -0.0199 -0.3989
10837TIP3    H153926   5.199   1.407   2.515 -0.8189 -2.6419  1.2385
10837TIP3    H253927   5.278   1.324   2.417 -0.1095 -0.6748  0.1160
10838TIP3   OH253928   3.084   6.384   0.111 -0.2980  0.1401  0.3063
10838TIP3    H153929   3.054   6.370   0.201  1.0232 -1.2917  0.5533
10838TIP3    H253930   3.005   6.378   0.058 -0.6485 -2.5747  1.0418
10839TIP3   OH253931   5.401   0.228   1.513 -0.7954  0.2202 -0.5719
10839TIP3    H153932   5.396   0.230   1.609 -1.3079  0.2252 -0.5988
10839TIP3    H253933   5.463   0.157   1.494 -1.9321 -0.8561 -0.2830
10840TIP3   OH253934   3.692   0.522   1.445  0.2190 -0.5839  0.1343
10840TIP3    H153935   3.723   0.432   1.433  1.6324  0.0531 -1.2879
10840TIP3    H253936   3.747   0.574   1.385 -1.5905  1.0232 -0.1761
10841TIP3   OH253937   6.319   1.336   3.045 -0.2238  0.2077 -0.2925
10841TIP3    H153938   6.335   1.417   3.093 -0.1216  0.3851 -0.6249
10841TIP3    H253939   6.227   1.316   3.061 -0.6589  1.2143 -1.4627
10842TIP3   OH253940   3.111   0.219   1.672 -0.6875 -0.6650 -0.5889
10842TIP3    H153941   3.186   0.265   1.712 -0.4171 -0.1814 -1.6404
10842TIP3    H253942   3.120   0.129   1.703 -1.1003 -0.0727  1.3219
10843TIP3   OH253943   3.957   6.748   2.142 -0.0640 -0.6970 -0.0164
10843TIP3    H153944   3.967   6.657   2.113 -2.6955 -0.5569 -1.5060
10843TIP3    H253945   3.897   6.743   2.216 -0.5863 -0.1462 -0.3936
10844TIP3   OH253946   1.959   0.670   2.091 -0.1462 -0.4987 -0.6861
10844TIP3    H153947   1.992   0.756   2.117  0.5165 -0.7237 -0.7800
10844TIP3    H253948   1.877   0.661   2.140  0.4962 -0.4190  0.4424
10845TIP3   OH253949   4.706   5.307   3.312 -0.4402 -0.2527 -0.4748
10845TIP3    H153950   4.759   5.251   3.367  0.2675  1.2650  0.4098
10845TIP3    H253951   4.619   5.267   3.314 -0.0006 -1.1797  0.3137
10846TIP3   OH253952   0.490   2.242   2.559  0.0725  0.5081 -0.3875
10846TIP3    H153953   0.448   2.202   2.635 -0.0477  1.6621  0.1714
10846TIP3    H253954   0.466   2.335   2.565 -0.7852  0.4562 -2.3834
10847TIP3   OH253955   1.003   0.084   2.985  0.3398 -0.6931 -0.0460
10847TIP3    H153956   0.994   0.170   3.026 -0.7382 -0.7808 -0.1037
10847TIP3    H253957   0.918   0.041   2.998  0.7348 -1.5968 -0.3710
10848TIP3   OH253958   0.940   0.323   2.446  0.6437 -0.4122  0.2978
10848TIP3    H153959   0.894   0.256   2.497  0.7397 -0.3205  0.5049
10848TIP3    H253960   1.029   0.290   2.437  0.3758 -0.8881 -0.6452
10849TIP3   OH253961   5.230   6.596   2.046  0.0067  0.0704 -0.2321
10849TIP3    H153962   5.220   6.618   2.138  3.0081 -1.4676  0.5508
10849TIP3    H253963   5.178   6.516   2.034 -0.8538  0.5968 -0.0225
10850TIP3   OH253964   0.139   1.711   0.454 -0.2931 -0.5698 -0.3430
10850TIP3    H153965   0.075   1.698   0.383  0.4019  0.5653 -1.1865
10850TIP3    H253966   0.099   1.668   0.530 -3.3737  2.4856 -0.1401
10851TIP3   OH253967   1.218   1.064   0.853  0.2847 -0.4022 -0.3036
10851TIP3    H153968   1.166   1.121   0.909 -0.8476 -0.8895 -0.8373
10851TIP3    H253969   1.167   0.983   0.848  1.8548 -1.4680  0.4429
10852TIP3   OH253970   4.602   6.894   0.827 -0.0195 -0.3788  0.5350
10852TIP3    H153971   4.572   6.974   0.870 -0.0354 -0.6583  1.0509
10852TIP3    H253972   4.679   6.867   0.877  0.1206 -0.5629  0.2248
10853TIP3   OH253973   6.451   7.023   2.525 -0.1171  0.2166  0.4227
10853TIP3    H153974   6.453   7.048   2.433  1.2927 -0.1679  0.3261
10853TIP3    H253975   6.544   7.020   2.551 -0.5435  1.9879  2.3022
10854TIP3   OH253976   5.243   6.681   1.106  0.0130  0.2089  0.3358
10854TIP3    H153977   5.332   6.709   1.087 -0.1405  1.0236  0.7670
10854TIP3    H253978   5.241   6.668   1.201  0.0716 -1.2622  0.1449
10855TIP3   OH253979   5.852   0.985   0.827  0.6718  0.2305 -0.1620
10855TIP3    H153980   5.874   1.071   0.790 -0.2282  0.9916  1.0196
10855TIP3    H253981   5.936   0.943   0.844  1.1257 -0.3209 -3.4453
10856TIP3   OH253982   4.630   6.783   0.257 -0.4204 -0.1345  0.6661
10856TIP3    H153983   4.566   6.720   0.291 -0.5534 -0.6179 -0.4714
10856TIP3    H253984   4.665   6.741   0.179  2.1829 -0.4223  1.9307
10857TIP3   OH253985   6.622   0.264  15.046  0.3213  0.5580  1.2172
10857TIP3    H153986   6.599   0.225  14.962  1.8553  0.6873  0.7258
10857TIP3    H253987   6.711   0.297  15.034  0.6453  0.3738  2.9564
10858TIP3   OH253988   7.263   5.288   0.455 -0.2937 -0.0032  0.3621
10858TIP3    H153989   7.291   5.351   0.389 -0.6918  1.1429  1.2755
10858TIP3    H253990   7.242   5.341   0.532  1.5808 -1.4377  1.9145
10859TIP3   OH253991   0.286   5.554   0.970  0.1504 -0.3762 -0.3280
10859TIP3    H153992   0.369   5.585   1.006  0.7370 -1.1807 -0.9677
10859TIP3    H253993   0.294   5.569   0.876 -1.4093  1.8010 -0.1432
10860TIP3   OH253994   5.177   2.659   0.690  0.4367  0.0327 -0.0737
10860TIP3    H153995   5.089   2.641   0.657  0.8974 -0.5653 -1.0095
10860TIP3    H253996   5.236   2.623   0.623  1.3940  0.1285  0.6919
10861TIP3   OH253997   2.370   6.099   1.498 -0.0808  0.4438 -0.2620
10861TIP3    H153998   2.423   6.179   1.493  1.4557 -0.5476 -0.1940
10861TIP3    H253999   2.393   6.060   1.582 -1.5414  0.4190  0.1286
10862TIP3   OH254000   5.958   1.037   1.627  0.4194  0.0471  0.3853
10862TIP3    H154001   6.017   0.990   1.569  1.2414  0.7753  0.6165
10862TIP3    H254002   6.010   1.111   1.659 -0.2289  0.0247  1.5206
10863TIP3   OH254003   6.617   7.290   1.433  0.6887 -0.2102 -0.4578
10863TIP3    H154004   6.544   7.228   1.422  0.5281  0.1217 -1.3047
10863TIP3    H254005   6.612   7.316   1.525 -0.0061 -0.5127 -0.3995
10864TIP3   OH254006   5.340   1.207   1.173  0.4248  0.4599 -0.1003
10864TIP3    H154007   5.420   1.195   1.225  1.4511 -0.0376 -1.7629
10864TIP3    H254008   5.271   1.168   1.227  1.4364  0.1450  0.9926
10865TIP3   OH254009   0.348   1.520   0.565  0.1916 -0.2240  0.2619
10865TIP3    H154010   0.266   1.569   0.573 -0.9370 -1.9078 -0.7086
10865TIP3    H254011   0.373   1.531   0.473  0.8519 -0.0714  0.4548
10866TIP3   OH254012   6.698   6.824   1.546 -0.3790 -0.9477  0.4369
10866TIP3    H154013   6.734   6.778   1.621 -0.6011 -0.5243  0.8045
10866TIP3    H254014   6.604   6.832   1.565  0.0162  1.5857  1.3966
10867TIP3   OH254015   5.377   2.279   0.354 -0.1991 -0.2533  0.1400
10867TIP3    H154016   5.350   2.272   0.263 -1.6905  1.6143  0.4141
10867TIP3    H254017   5.317   2.222   0.402  1.9977 -3.0170 -0.2535
10868TIP3   OH254018   1.459   7.073   1.903  0.7058 -0.0453 -0.3022
10868TIP3    H154019   1.429   7.062   1.813  0.3229 -0.6591 -0.1074
10868TIP3    H254020   1.460   6.984   1.939 -0.7021  0.3440  0.7876
10869TIP3   OH254021   5.241   6.654   0.567 -0.2516 -0.2983  0.3520
10869TIP3    H154022   5.287   6.600   0.631  0.0413 -1.9116 -1.1922
10869TIP3    H254023   5.268   6.744   0.588 -2.2432 -0.5022  4.1282
10870TIP3   OH254024   6.727   2.592   1.927 -0.1112 -0.5020  0.0850
10870TIP3    H154025   6.638   2.579   1.895  0.0123 -0.9079 -0.1036
10870TIP3    H254026   6.783   2.560   1.856  0.1788 -0.5646  0.3392
10871TIP3   OH254027   3.200   2.611   1.144 -0.1761  0.0164  0.0650
10871TIP3    H154028   3.153   2.581   1.221 -0.2461 -0.6190 -0.2244
10871TIP3    H254029   3.211   2.533   1.090  2.1252 -0.0534  0.6032
10872TIP3   OH254030   7.158   2.276   2.435 -0.6038  0.4787  0.5606
10872TIP3    H154031   7.216   2.276   2.358 -0.6349  0.8651  0.5382
10872TIP3    H254032   7.090   2.339   2.413 -0.4114  0.8589  1.0589
10873TIP3   OH254033   6.096   5.940   3.009 -0.1975  0.3733 -0.5907
10873TIP3    H154034   6.046   5.894   3.077 -0.6582 -1.3183 -2.0354
10873TIP3    H254035   6.137   6.013   3.055  0.5415 -1.4742  1.7895
10874TIP3   OH254036   4.657   0.516   0.011  0.5899 -0.0261 -0.0141
10874TIP3    H154037   4.640   0.516  -0.083  0.1415  1.2891  0.0608
10874TIP3    H254038   4.631   0.429   0.041  0.3836 -0.3124 -1.0414
10875TIP3   OH254039   1.141   6.312  14.946 -0.5080 -0.4887  0.6354
10875TIP3    H154040   1.104   6.253  14.880  0.7171 -1.9615  1.2539
10875TIP3    H254041   1.067   6.333  15.003 -1.1904 -0.5452 -0.2077
10876TIP3   OH254042   1.498   1.534   1.377 -0.1957  0.6341  0.4637
10876TIP3    H154043   1.566   1.523   1.443  2.2847  0.9290 -1.9304
10876TIP3    H254044   1.502   1.453   1.326 -0.2549  1.4730 -0.8901
10877TIP3   OH254045   4.687   1.860   2.240  0.5671 -0.1259  0.7827
10877TIP3    H154046   4.633   1.922   2.192 -0.3447 -1.0531  0.5777
10877TIP3    H254047   4.717   1.798   2.174 -1.2566 -1.8073  1.4665
10878TIP3   OH254048   6.385   6.755   2.208 -0.3738  0.7557  0.0022
10878TIP3    H154049   6.353   6.666   2.194  0.5283  0.3569  0.3968
10878TIP3    H254050   6.379   6.768   2.302  1.6633  0.2508  0.2265
10879TIP3   OH254051   5.232   2.033   1.887  0.3098 -0.9825  0.2764
10879TIP3    H154052   5.316   2.009   1.927  1.2240  1.1113 -0.3384
10879TIP3    H254053   5.167   2.012   1.954  1.5391 -0.3552  1.6943
10880TIP3   OH254054   3.818   0.379   0.581  0.4286 -0.3168  0.1673
10880TIP3    H154055   3.816   0.414   0.670 -0.3852 -1.7292  0.7170
10880TIP3    H254056   3.741   0.322   0.576  0.8568 -0.7937 -1.2190
10881TIP3   OH254057   0.505   0.789   0.311  0.1408 -0.1118 -0.0141
10881TIP3    H154058   0.464   0.718   0.361  0.3513  0.6031  1.2029
10881TIP3    H254059   0.468   0.781   0.223 -0.7570 -0.9798  0.4329
10882TIP3   OH254060   5.296   2.402   1.717  0.0428  0.5546 -0.0813
10882TIP3    H154061   5.323   2.423   1.628 -1.7502 -0.1994 -0.8234
10882TIP3    H254062   5.284   2.307   1.717  2.3160  0.2217  1.6222
10883TIP3   OH254063   1.080   0.363   0.458  0.2670 -0.6288  0.2069
10883TIP3    H154064   1.069   0.434   0.521  0.4012  1.4986 -2.1184
10883TIP3    H254065   1.174   0.355   0.447  0.2019  0.1062 -0.9297
10884TIP3   OH254066   4.444   0.362   0.373  0.1251  0.0550 -0.0499
10884TIP3    H154067   4.446   0.452   0.340  0.2914 -0.2209 -0.8199
10884TIP3    H254068   4.362   0.356   0.421 -0.9451 -0.0109 -1.8385
10885TIP3   OH254069   0.214   2.740   2.455 -0.0953 -0.3638  0.1782
10885TIP3    H154070   0.205   2.831   2.483 -1.0602 -0.8670  1.5284
10885TIP3    H254071   0.156   2.733   2.379  0.7542  0.3915 -0.5639
10886TIP3   OH254072   5.678   0.580   1.627  0.0944  0.7871  0.2484
10886TIP3    H154073   5.587   0.569   1.655  0.0367  0.0995 -0.1941
10886TIP3    H254074   5.677   0.658   1.572 -0.4143  0.2193 -0.5549
10887TIP3   OH254075   6.988   0.973   0.901 -0.2576  0.4126 -0.7142
10887TIP3    H154076   7.058   1.034   0.879  0.1336  0.4822  0.6280
10887TIP3    H254077   6.987   0.909   0.830  1.1030  0.4702 -0.7930
10888TIP3   OH254078   6.877   1.431   0.525 -0.5031 -0.2904  0.0977
10888TIP3    H154079   6.932   1.367   0.571  0.2792 -0.5594 -1.1991
10888TIP3    H254080   6.909   1.430   0.435 -1.7494  0.5406 -0.3656
10889TIP3   OH254081   5.721   0.813  15.961 -0.3915  0.9162 -0.1708
10889TIP3    H154082   5.688   0.723  15.964 -1.6687  1.1606 -4.1337
10889TIP3    H254083   5.797   0.808  15.903  2.0240  1.7789  2.7556
10890TIP3   OH254084   5.889   3.037   2.349  0.7494 -0.1224 -0.1115
10890TIP3    H154085   5.905   2.945   2.369 -2.9281 -0.8111  0.0597
10890TIP3    H254086   5.851   3.036   2.261  1.3442  1.3064 -0.3968
10891TIP3   OH254087   6.660   3.925   2.244 -0.1993  0.9170  0.1243
10891TIP3    H154088   6.674   4.017   2.220 -0.8980  1.2456  0.9675
10891TIP3    H254089   6.724   3.908   2.312 -0.3780  0.9103  0.2905
10892TIP3   OH254090   4.650   2.567  14.871 -0.5409  0.6369 -0.3360
10892TIP3    H154091   4.678   2.550  14.961  0.2936  1.4489 -0.4357
10892TIP3    H254092   4.626   2.481  14.837  1.0978  0.0317  0.0091
10893TIP3   OH254093   5.618   4.506  15.210 -0.0037 -0.4090 -0.1142
10893TIP3    H154094   5.577   4.506  15.124  0.9327  2.2389 -0.6143
10893TIP3    H254095   5.559   4.557  15.265  1.0899  0.7972 -0.0579
10894TIP3   OH254096   1.998   3.142  15.043 -0.0348  0.7828  0.4795
10894TIP3    H154097   2.075   3.109  15.090  0.1316  1.5480  0.7405
10894TIP3    H254098   2.010   3.110  14.953 -1.0611 -1.8857  1.2397
10895TIP3   OH254099   6.599   5.879   2.158 -0.1581 -0.8398  0.2682
10895TIP3    H154100   6.647   5.905   2.080 -2.9059  0.1762 -1.1548
10895TIP3    H254101   6.554   5.958   2.187  1.3036 -1.0420  3.2978
10896TIP3   OH254102   6.784   1.895   2.745  0.8575 -0.0485 -0.2674
10896TIP3    H154103   6.853   1.905   2.811  2.4357  0.5727 -1.9731
10896TIP3    H254104   6.815   1.946   2.670 -0.8169 -0.8926 -1.5604
10897TIP3   OH254105   5.812   5.340   1.322  0.1663  0.1306 -0.7207
10897TIP3    H154106   5.833   5.368   1.233  2.3032 -0.6226 -0.4657
10897TIP3    H254107   5.769   5.255   1.311 -2.1294  1.3057 -1.1869
10898TIP3   OH254108   5.988   0.229   2.231 -0.3440 -0.2644  0.5364
10898TIP3    H154109   6.058   0.293   2.231 -1.2241  0.7113  1.2005
10898TIP3    H254110   5.952   0.233   2.320  0.0857 -2.2233  0.8278
10899TIP3   OH254111   1.347   0.771  15.984 -0.2085  0.3736 -0.2752
10899TIP3    H154112   1.420   0.723  16.025  0.9408  1.8813 -0.5065
10899TIP3    H254113   1.273   0.710  15.988  0.9602 -1.0424  0.3190
10900TIP3   OH254114   0.615   1.479  15.285  0.2696 -0.1542 -0.1178
10900TIP3    H154115   0.558   1.405  15.263  2.3217 -2.5840  2.3930
10900TIP3    H254116   0.682   1.478  15.216 -1.3643  1.2948 -1.7788
10901TIP3   OH254117   1.519   7.139   0.638  0.4480 -0.8415 -0.8819
10901TIP3    H154118   1.588   7.128   0.704 -0.3357 -0.1775  0.0715
10901TIP3    H254119   1.438   7.117   0.684 -0.2971  1.2365 -1.1257
10902TIP3   OH254120   1.416   1.950   1.596  0.1965 -0.0626  0.1059
10902TIP3    H154121   1.460   2.008   1.657 -0.0934 -0.5927  0.8271
10902TIP3    H254122   1.325   1.948   1.626 -0.6075  1.9062 -2.0143
10903TIP3   OH254123   6.618   0.743  15.736  0.7705 -0.4042  0.7840
10903TIP3    H154124   6.580   0.708  15.816 -0.5498  0.2289  0.4457
10903TIP3    H254125   6.558   0.714  15.666  1.8999 -0.9426  0.0233
10904TIP3   OH254126   0.560   0.632  15.846 -0.1138  0.1198  0.4239
10904TIP3    H154127   0.653   0.626  15.823 -0.2234  0.4528 -0.1356
10904TIP3    H254128   0.534   0.541  15.861  0.2260 -0.0113  0.2531
10905TIP3   OH254129   4.586   0.313   1.697 -0.2472  0.4164  0.3328
10905TIP3    H154130   4.590   0.346   1.606  2.2217  0.3641  0.3999
10905TIP3    H254131   4.514   0.251   1.696 -0.1772  0.3188 -1.6438
10906TIP3   OH254132   5.703   1.660   1.230  0.2141 -0.1927  0.1471
10906TIP3    H154133   5.742   1.734   1.277 -0.4394  0.4545 -0.3040
10906TIP3    H254134   5.747   1.660   1.145 -0.4108  0.2435 -0.1850
10907TIP3   OH254135   4.364   0.233   1.428 -0.2127  0.6947 -0.3378
10907TIP3    H154136   4.365   0.138   1.413  0.0144  0.8227 -1.1549
10907TIP3    H254137   4.455   0.260   1.419 -0.0482  0.7775  1.3677
10908TIP3   OH254138   0.015   1.164  15.420 -0.0211  1.3336  0.0892
10908TIP3    H154139  -0.074   1.188  15.394  0.1643  1.3252 -0.5605
10908TIP3    H254140   0.071   1.221  15.368  0.4022  0.0577 -0.8704
10909TIP3   OH254141   3.499   1.426   1.120  0.3140  0.3334 -0.3160
10909TIP3    H154142   3.541   1.345   1.151  1.5409  1.1470  0.1920
10909TIP3    H254143   3.442   1.452   1.192  0.6170  0.4092 -0.1003
10910TIP3   OH254144   4.735   0.938   0.004  0.1038  0.6090  0.2083
10910TIP3    H154145   4.830   0.938   0.014  0.2346  0.5926 -0.9751
10910TIP3    H254146   4.715   0.853  -0.037 -0.4992  0.3048  1.1079
10911TIP3   OH254147   7.139   6.938  15.654 -0.1991 -0.1401  0.2283
10911TIP3    H154148   7.226   6.968  15.627  0.8550 -2.5746  0.8204
10911TIP3    H254149   7.079   6.992  15.603  1.6493  1.0039 -0.8146
10912TIP3   OH254150   6.089   5.971   0.258 -0.0303  0.1526 -0.3362
10912TIP3    H154151   6.132   5.937   0.180 -1.5973  0.3538 -1.3155
10912TIP3    H254152   6.108   5.907   0.326  3.1078  1.0324 -0.3232
10913TIP3   OH254153   6.722   0.108  15.461 -0.1409  0.5004  0.0445
10913TIP3    H154154   6.667   0.151  15.396  1.1373  2.6480  0.3101
10913TIP3    H254155   6.796   0.073  15.411  0.0899  0.8600  0.1230
10914TIP3   OH254156   5.129   5.975   0.946  0.1041 -0.2300 -0.0332
10914TIP3    H154157   5.208   5.983   0.893  0.3353 -2.5676 -0.0906
10914TIP3    H254158   5.160   5.975   1.037  0.1343 -0.8229 -0.0448
10915TIP3   OH254159   6.452   6.599  15.536  0.0802  0.1140 -0.3544
10915TIP3    H154160   6.543   6.581  15.513  0.0836 -0.1798 -0.1135
10915TIP3    H254161   6.417   6.646  15.460  0.2290 -0.4067 -0.7473
10916TIP3   OH254162   1.580   4.518   3.080  0.3740 -0.5349 -0.0619
10916TIP3    H154163   1.525   4.461   3.134 -0.3682 -1.1524 -1.4449
10916TIP3    H254164   1.518   4.578   3.038  1.1396  1.2472  1.2993
10917TIP3   OH254165   0.173   0.183   0.267 -0.1901 -0.2456 -0.4768
10917TIP3    H154166   0.159   0.091   0.289 -1.3594 -0.0933 -0.5381
10917TIP3    H254167   0.267   0.191   0.255  0.1514 -0.9971  1.4798
10918TIP3   OH254168   0.376   1.471   0.258 -0.2706  0.5148 -0.1787
10918TIP3    H154169   0.313   1.491   0.188  0.0992  0.8543 -0.4195
10918TIP3    H254170   0.446   1.535   0.245 -0.1630  0.5283  0.4599
10919TIP3   OH254171   5.234   1.649   2.345 -0.2324 -0.4176  0.3199
10919TIP3    H154172   5.240   1.565   2.300 -1.2674 -1.2658  1.6945
10919TIP3    H254173   5.140   1.665   2.353 -0.0301  1.2475 -0.6041
10920TIP3   OH254174   6.053   5.828   1.227  0.1415 -0.3985 -0.0059
10920TIP3    H154175   5.979   5.884   1.203 -0.3543 -1.1138 -0.1567
10920TIP3    H254176   6.014   5.743   1.244  1.1772 -1.3159 -2.1223
10921TIP3   OH254177   4.353   6.739  15.484  0.4232  0.4254  0.6181
10921TIP3    H154178   4.309   6.732  15.569 -1.8316 -0.4897 -0.6054
10921TIP3    H254179   4.332   6.827  15.453  0.2288  0.3175  0.4460
10922TIP3   OH254180   0.015   2.826   0.857 -0.4345 -0.2587 -0.0718
10922TIP3    H154181  -0.050   2.883   0.897 -1.0777 -2.3901  2.0411
10922TIP3    H254182  -0.016   2.813   0.767 -2.7949 -1.0027  0.8233
10923TIP3   OH254183   6.431   1.690  15.707 -0.1798 -0.0153 -0.5914
10923TIP3    H154184   6.385   1.723  15.630 -1.2339  1.0013  0.4436
10923TIP3    H254185   6.523   1.707  15.689 -0.4131  0.2352 -1.6138
10924TIP3   OH254186   6.858   0.233   1.804 -0.3486 -0.3315  0.0362
10924TIP3    H154187   6.947   0.205   1.782 -0.0757 -0.1366  0.8816
10924TIP3    H254188   6.849   0.213   1.897 -0.7081  0.9302  0.2756
10925TIP3   OH254189   4.952   3.047   2.263  0.2350  0.5444 -0.3477
10925TIP3    H154190   4.884   2.979   2.261 -1.2367  1.9765  0.5475
10925TIP3    H254191   5.034   2.998   2.274 -0.6383 -1.1929 -1.3974
10926TIP3   OH254192   6.108   6.395   1.699  0.1796  0.1769  0.1957
10926TIP3    H154193   6.199   6.416   1.680  0.4432 -0.5816  0.5967
10926TIP3    H254194   6.060   6.476   1.681  0.8792  0.4722 -0.3762
10927TIP3   OH254195   6.185   0.565   2.037  0.4165  0.4015  0.3044
10927TIP3    H154196   6.106   0.520   2.010  0.4972  0.1734  0.4474
10927TIP3    H254197   6.247   0.552   1.965  0.4204  0.3356  0.3198
10928TIP3   OH254198   6.275   0.063   2.151 -0.7348 -0.3494 -0.1827
10928TIP3    H154199   6.254   0.083   2.060 -0.9784 -0.8736 -0.2453
10928TIP3    H254200   6.277   0.148   2.194 -2.0169 -0.2012 -0.3908
10929TIP3   OH254201   2.931   2.639   2.992 -0.0379 -0.0892 -0.5090
10929TIP3    H154202   2.955   2.718   2.944 -2.3099  0.4582 -0.8205
10929TIP3    H254203   2.986   2.570   2.954  2.8217  1.5083  0.5664
10930TIP3   OH254204   6.091   6.906   4.539 -0.1271  0.1934  0.6054
10930TIP3    H154205   6.100   6.860   4.622 -1.0190  0.3259  0.7797
10930TIP3    H254206   6.004   6.881   4.507  0.4645 -0.3986 -0.6131
10931TIP3   OH254207   6.809   1.839   1.648 -0.1798  0.0135  0.2820
10931TIP3    H154208   6.733   1.810   1.598  0.0180 -2.2748  1.2447
10931TIP3    H254209   6.885   1.812   1.595  0.0149 -1.4646  1.3131
10932TIP3   OH254210   4.927   6.666   2.115 -0.1783  0.4088 -0.0905
10932TIP3    H154211   4.976   6.600   2.164 -3.5470 -1.6602  0.6610
10932TIP3    H254212   4.914   6.626   2.028  0.6774  1.5662 -0.7696
10933TIP3   OH254213   3.701   0.850  15.527  0.1700 -0.0083 -0.0792
10933TIP3    H154214   3.721   0.761  15.499 -1.3727  0.3518 -2.4577
10933TIP3    H254215   3.607   0.850  15.544 -0.0571  1.4568 -1.2327
10934TIP3   OH254216   6.812   4.910   1.312 -0.1995 -0.2771 -0.2528
10934TIP3    H154217   6.840   4.820   1.293 -0.2778 -0.1795 -0.8185
10934TIP3    H254218   6.831   4.921   1.406 -1.7036 -1.4324  0.2079
10935TIP3   OH254219   5.183   0.632  14.768  0.3010  0.2446  0.1381
10935TIP3    H154220   5.246   0.611  14.700 -1.1785  1.9573 -1.8253
10935TIP3    H254221   5.102   0.588  14.741  0.0263 -0.0755  1.4376
10936TIP3   OH254222   6.025   1.342   0.099 -0.1359 -0.0553  0.1349
10936TIP3    H154223   6.102   1.285   0.099  0.9086  1.3388  0.5828
10936TIP3    H254224   6.015   1.369   0.007 -0.4459 -0.7106 -0.0240
10937TIP3   OH254225   6.679   0.403  15.527  0.2873 -0.0625 -0.0290
10937TIP3    H154226   6.593   0.443  15.540  0.1008  0.9300 -3.8354
10937TIP3    H254227   6.661   0.310  15.515 -0.0134 -0.1696  1.1094
10938TIP3   OH254228   4.035   0.416  15.113  0.0002 -0.7443  0.2332
10938TIP3    H154229   3.956   0.390  15.065  0.1319 -1.5004  0.4176
10938TIP3    H254230   4.055   0.503  15.079 -1.5110 -0.0914  0.9478
10939TIP3   OH254231   0.341   1.032  15.946 -0.2526 -0.6239 -0.4264
10939TIP3    H154232   0.259   0.991  15.919 -0.5850 -0.0756 -0.2395
10939TIP3    H254233   0.404   0.960  15.946 -0.6034 -0.9395 -1.1129
10940TIP3   OH254234   5.719   1.207   0.316  0.1301 -0.5301  0.3735
10940TIP3    H154235   5.702   1.301   0.318  2.8627  0.0024  0.8518
10940TIP3    H254236   5.702   1.182   0.225 -0.2254  0.4986  0.1494
10941TIP3   OH254237   6.492   6.699   3.644 -0.6324  0.2927  0.1312
10941TIP3    H154238   6.413   6.728   3.600 -1.1359  1.0370  1.4954
10941TIP3    H254239   6.461   6.642   3.715  0.1373 -0.5410 -0.1796
10942TIP3   OH254240   7.110   2.201   0.592  0.1450 -0.7614  0.4293
10942TIP3    H154241   7.070   2.189   0.678  0.5281 -1.1668  0.5567
10942TIP3    H254242   7.185   2.141   0.592  0.0202 -0.9284 -0.2665
10943TIP3   OH254243   4.547   2.431   2.706 -0.2559 -0.0920  0.0857
10943TIP3    H154244   4.642   2.424   2.695 -0.1877  0.9862 -0.0205
10943TIP3    H254245   4.535   2.449   2.799 -0.3690 -0.4400  0.1387
10944TIP3   OH254246   4.921   0.054  15.727  0.0288 -0.3105 -0.1835
10944TIP3    H154247   4.989   0.116  15.753  1.4261 -2.4086  1.3583
10944TIP3    H254248   4.839   0.092  15.759  0.9553  0.3678  1.4228
10945TIP3   OH254249   6.619   1.401  14.471  0.2042  0.1720 -0.2484
10945TIP3    H154250   6.685   1.413  14.539  0.6080 -2.7871 -0.0168
10945TIP3    H254251   6.644   1.461  14.401  2.0381  0.4788  0.6532
10946TIP3   OH254252   6.217   0.358   2.267  0.0246 -0.0296  0.2597
10946TIP3    H154253   6.204   0.452   2.282 -0.2634  0.0275 -0.3381
10946TIP3    H254254   6.272   0.329   2.341 -0.8870  0.3583  1.0967
10947TIP3   OH254255   7.091   6.879   1.351 -0.3367 -0.5166 -0.1303
10947TIP3    H154256   7.135   6.964   1.342 -0.8625 -0.2100  0.1187
10947TIP3    H254257   7.120   6.829   1.276  0.0077 -0.1244 -0.2622
10948TIP3   OH254258   6.928   1.234   0.319  0.3489 -0.4751  0.2201
10948TIP3    H154259   6.932   1.183   0.400  1.0774 -0.5291  0.1498
10948TIP3    H254260   7.008   1.210   0.272  0.3574  0.2230 -0.1165
10949TIP3   OH254261   0.598   7.286   0.229  0.4799 -0.4877 -0.0124
10949TIP3    H154262   0.540   7.362   0.226  1.6255  0.3611 -1.5319
10949TIP3    H254263   0.598   7.258   0.320 -1.1646  0.3897  0.2609
10950TIP3   OH254264   6.831   6.412   0.246  0.3509 -0.1766 -0.0511
10950TIP3    H154265   6.891   6.478   0.210 -0.2713  0.8932  0.8404
10950TIP3    H254266   6.868   6.328   0.218  1.3312  0.5405 -0.9310
10951TIP3   OH254267   5.105   5.760   0.607 -0.3743  0.0673 -0.1041
10951TIP3    H154268   5.179   5.792   0.556 -0.8415 -0.7988 -1.3493
10951TIP3    H254269   5.028   5.788   0.558 -0.8321 -0.4632  0.3115
10952TIP3   OH254270   6.041   0.156   0.013  0.3169  0.4755 -0.5784
10952TIP3    H154271   6.050   0.157  -0.082  0.5192  0.8626 -0.5576
10952TIP3    H254272   6.131   0.160   0.046  0.2489  0.3065 -0.3718
10953TIP3   OH254273   5.819   7.023   0.807  0.0892  0.2044 -0.1662
10953TIP3    H154274   5.793   7.081   0.735 -1.8957  0.2840  0.5972
10953TIP3    H254275   5.755   7.040   0.876  1.4441 -0.5225  1.3050
10954TIP3   OH254276   7.281   0.324   2.465 -0.0543  0.2872  0.0229
10954TIP3    H154277   7.360   0.343   2.415 -0.3169 -2.7688 -1.6295
10954TIP3    H254278   7.307   0.256   2.526 -1.6664 -1.6412 -1.3787
10955TIP3   OH254279   0.712   6.094  15.917 -0.4255 -0.0417 -0.2959
10955TIP3    H154280   0.665   6.133  15.844 -0.0300  0.9897  0.0019
10955TIP3    H254281   0.775   6.160  15.945  0.0542 -0.7673  0.3961
10956TIP3   OH254282   4.838   0.222   1.129 -0.0435  0.1855 -0.1373
10956TIP3    H154283   4.804   0.312   1.126 -1.6450 -0.3869  0.2085
10956TIP3    H254284   4.831   0.196   1.221 -0.5621 -0.6512 -0.4090
10957TIP3   OH254285   5.247   0.206   1.140  0.5064  1.0470 -0.3921
10957TIP3    H154286   5.204   0.136   1.188  2.0723 -0.6472 -1.4017
10957TIP3    H254287   5.183   0.233   1.074  0.4972 -0.5589 -1.0502
10958TIP3   OH254288   1.399   1.392   2.567  0.7312 -0.5249 -0.1698
10958TIP3    H154289   1.442   1.477   2.563  1.5130 -0.8876  0.3220
10958TIP3    H254290   1.403   1.359   2.477  1.7343 -0.6681 -0.0796
10959TIP3   OH254291   7.248   4.808   1.358  0.2802  0.5392 -0.3319
10959TIP3    H154292   7.176   4.825   1.297 -0.2900 -1.7139 -0.3502
10959TIP3    H254293   7.288   4.727   1.326  2.7696  1.6790 -0.2428
10960TIP3   OH254294   4.609   7.097   0.560 -0.1297  0.5047  0.4944
10960TIP3    H154295   4.634   7.012   0.596 -0.9126  0.2468  0.4464
10960TIP3    H254296   4.529   7.120   0.608 -0.2111  0.9692  0.1347
10961TIP3   OH254297   6.167   3.493   2.315  0.1037  0.9173  0.1302
10961TIP3    H154298   6.193   3.459   2.401  0.7110  0.4669 -0.2247
10961TIP3    H254299   6.229   3.564   2.298  0.8749  0.0800 -0.5603
10962TIP3   OH254300   5.367   0.732   1.074  0.5766 -0.2577  0.1827
10962TIP3    H154301   5.291   0.734   1.016 -1.1783  0.2450  2.4664
10962TIP3    H254302   5.359   0.650   1.122  1.0116  0.1981  1.0419
10963TIP3   OH254303   5.370   7.288   0.753 -0.4585 -0.1684 -0.2466
10963TIP3    H154304   5.372   7.222   0.822 -2.1088 -1.8886 -1.7936
10963TIP3    H254305   5.290   7.338   0.769 -0.4126 -0.0405 -0.4079
10964TIP3   OH254306   6.778   0.246   0.765  0.1588 -0.0234 -0.0676
10964TIP3    H154307   6.844   0.215   0.703 -1.1277 -2.1069 -0.4382
10964TIP3    H254308   6.719   0.300   0.713 -1.2033 -2.1706 -0.8090
10965TIP3   OH254309   7.215   2.349  15.743 -0.6582  0.0952 -0.3184
10965TIP3    H154310   7.233   2.317  15.832 -1.5680  0.4694  0.0133
10965TIP3    H254311   7.120   2.364  15.743 -0.6551  0.0809 -1.3614
10966TIP3   OH254312   5.291   1.725   3.743  0.5193 -0.8430  0.2012
10966TIP3    H154313   5.382   1.730   3.711  0.5281  1.0202  0.4648
10966TIP3    H254314   5.300   1.708   3.837  0.5866 -1.0868  0.1515
10967TIP3   OH254315   6.496   5.970  15.670  0.7450 -0.6698  0.5630
10967TIP3    H154316   6.548   5.944  15.594  2.4197 -0.9323  1.7530
10967TIP3    H254317   6.456   5.888  15.701  2.8817 -1.2234  1.9988
10968TIP3   OH254318   5.818   0.665   0.283 -0.4521 -0.1296  0.0793
10968TIP3    H154319   5.728   0.678   0.253  0.6887  1.3727 -2.9378
10968TIP3    H254320   5.856   0.753   0.281  1.7168 -1.0541 -0.8780
10969TIP3   OH254321   6.480   7.195   0.849  0.3693 -0.0102  0.6786
10969TIP3    H154322   6.444   7.283   0.859  1.1433  0.2947  0.8309
10969TIP3    H254323   6.565   7.199   0.892  2.7539  0.6435 -3.7670
10970TIP3   OH254324   5.647   0.122   2.176 -0.2769 -0.6485  0.1092
10970TIP3    H154325   5.552   0.123   2.162 -0.4354  1.9424  1.1180
10970TIP3    H254326   5.668   0.030   2.190 -2.8142 -1.1271  1.0346
10971TIP3   OH254327   5.497   3.205  15.979  0.2741  0.0071 -0.1795
10971TIP3    H154328   5.446   3.271  15.932 -0.9334 -0.7554  0.0284
10971TIP3    H254329   5.493   3.232  16.071 -0.3045 -0.3934 -0.0807
10972TIP3   OH254330   3.265   0.328   1.178  0.2271  0.2156 -0.6081
10972TIP3    H154331   3.193   0.350   1.120 -0.7138 -0.1053  0.4175
10972TIP3    H254332   3.240   0.244   1.217  0.7749  0.4820  0.3546
10973TIP3   OH254333   5.328   7.257   1.033  0.2474 -0.1642 -0.0114
10973TIP3    H154334   5.257   7.201   1.000 -0.4789 -0.5669  2.2049
10973TIP3    H254335   5.284   7.336   1.064  1.0449  0.6534 -0.9129
10974TIP3   OH254336   6.956   5.604   0.692  0.2737  0.0767 -0.1857
10974TIP3    H154337   6.957   5.652   0.775  0.3085  3.5867 -2.1102
10974TIP3    H254338   7.045   5.569   0.683  0.8852  1.4681  0.2781
10975TIP3   OH254339   0.980   0.151   2.714 -0.1054 -0.4794  0.4735
10975TIP3    H154340   0.941   0.089   2.776  0.9891 -1.1363  0.5137
10975TIP3    H254341   0.982   0.104   2.631  0.4556 -0.3899  0.4365
10976TIP3   OH254342   7.189   0.489   1.686  0.1626 -0.6673  0.1526
10976TIP3    H154343   7.266   0.531   1.725  0.1081 -0.4132 -0.0108
10976TIP3    H254344   7.207   0.395   1.692 -0.8428 -0.7118  2.7978
10977TIP3   OH254345   0.301   7.037   0.155  0.2277  0.0209  0.4173
10977TIP3    H154346   0.376   7.015   0.210  0.4375  1.2079  0.6175
10977TIP3    H254347   0.326   7.117   0.110 -0.7810  0.2366  0.2132
10978TIP3   OH254348   4.745   6.859   1.346  0.2174  0.5297 -0.0867
10978TIP3    H154349   4.712   6.795   1.284 -0.2182  0.6877 -0.0165
10978TIP3    H254350   4.668   6.889   1.394  0.5033  0.6684  0.2867
10979TIP3   OH254351   1.328   0.375   0.568  0.0333  0.0488 -0.8379
10979TIP3    H154352   1.387   0.437   0.525 -0.1712  0.1751 -0.9366
10979TIP3    H254353   1.382   0.335   0.636  0.0230  0.7138 -0.4301
10980TIP3   OH254354   6.375   6.290   3.186 -0.3851 -0.0391  0.1881
10980TIP3    H154355   6.316   6.361   3.161  1.3096  1.8319  1.3802
10980TIP3    H254356   6.415   6.262   3.104 -0.7178  0.7046 -0.2310
10981TIP3   OH254357   3.717   6.437   1.419  0.1944 -0.1022  0.0012
10981TIP3    H154358   3.703   6.429   1.514 -1.0576  2.2964  0.0339
10981TIP3    H254359   3.650   6.380   1.380 -0.3233  0.1541  0.5115
10982TIP3   OH254360   6.515   1.089   0.002  0.4860 -0.7591  0.1816
10982TIP3    H154361   6.599   1.068  -0.040  1.2761 -1.3467  2.0273
10982TIP3    H254362   6.530   1.173   0.046  0.2493 -1.0994  0.9133
10983TIP3   OH254363   6.187   1.042   2.428  0.1143 -0.0401 -0.7160
10983TIP3    H154364   6.270   0.995   2.417 -1.1901 -2.1327 -1.9837
10983TIP3    H254365   6.122   0.973   2.438 -1.7367  1.5293 -1.6973
10984TIP3   OH254366   6.702   6.843   4.989 -0.1345  0.3084  0.2602
10984TIP3    H154367   6.773   6.799   5.036 -0.0420 -0.3960 -0.5105
10984TIP3    H254368   6.743   6.921   4.952  0.3598 -0.3150 -0.5426
10985TIP3   OH254369   3.217   6.352   2.851 -0.1307  0.9178  0.3296
10985TIP3    H154370   3.181   6.266   2.827  0.5158  0.8777 -0.5346
10985TIP3    H254371   3.256   6.338   2.937  0.5280  0.1685 -0.0792
10986TIP3   OH254372   6.288   0.026   2.570  0.0687  0.8251  0.3547
10986TIP3    H154373   6.192   0.030   2.574 -0.0530 -0.3156 -0.9306
10986TIP3    H254374   6.310  -0.054   2.619  0.0659 -1.0242 -2.5189
10987TIP3   OH254375   7.199   0.442   3.321 -0.0873  0.1015 -0.0462
10987TIP3    H154376   7.129   0.388   3.356  0.2072  1.4464  2.7251
10987TIP3    H254377   7.153   0.517   3.281 -0.2801  0.6605  1.1980
10988TIP3   OH254378   0.722   1.752   0.179 -0.1353 -0.3648 -0.3564
10988TIP3    H154379   0.753   1.688   0.242 -0.5758 -0.1477  0.0855
10988TIP3    H254380   0.630   1.766   0.202  0.0689  0.7415 -0.1851
10989TIP3   OH254381   4.344   7.155   0.612 -0.5347  0.5757  0.4740
10989TIP3    H154382   4.264   7.139   0.562 -0.3695  0.2706  0.3044
10989TIP3    H254383   4.375   7.241   0.581 -1.3193  1.1444  1.2532
10990TIP3   OH254384   4.401   1.894   1.156  0.3330 -0.2161  0.2683
10990TIP3    H154385   4.383   1.835   1.229 -1.4805  0.7969  0.6981
10990TIP3    H254386   4.318   1.897   1.107  0.4306  1.7845  0.1690
10991TIP3   OH254387   5.296   0.829   0.487 -0.1586  0.5257  0.2229
10991TIP3    H154388   5.373   0.868   0.444 -0.5473  0.4828 -0.5222
10991TIP3    H254389   5.332   0.760   0.542  0.4604  1.3732  0.8939
10992TIP3   OH254390   5.197   3.361   0.399  0.1747 -0.0542 -0.7682
10992TIP3    H154391   5.184   3.388   0.308 -0.7474 -2.0628 -1.2526
10992TIP3    H254392   5.128   3.296   0.415  0.6531 -0.1048  1.2109
10993TIP3   OH254393   0.632   0.837  15.411 -0.4173  0.1515  0.1983
10993TIP3    H154394   0.556   0.808  15.461 -1.4573 -0.3436 -1.6214
10993TIP3    H254395   0.665   0.757  15.369  0.0469  0.6615 -0.4170
10994TIP3   OH254396   4.399   0.836   0.998 -0.9004  0.0346 -0.2490
10994TIP3    H154397   4.346   0.849   1.077 -0.9213  2.2056 -0.6157
10994TIP3    H254398   4.404   0.922   0.957  2.4415 -0.2495 -0.5476
10995TIP3   OH254399   0.070   0.202   1.390  0.1596 -0.3692 -0.1726
10995TIP3    H154400   0.119   0.271   1.433 -1.8146  3.0390 -3.1212
10995TIP3    H254401   0.130   0.166   1.325 -0.1356  1.5449 -1.5397
10996TIP3   OH254402   4.345   1.732   1.479 -0.3459  0.2201 -0.1405
10996TIP3    H154403   4.358   1.640   1.455 -0.2384  0.0253  0.6409
10996TIP3    H254404   4.250   1.744   1.480 -0.3336  0.4616 -1.5065
10997TIP3   OH254405   0.222   1.123   2.622 -0.0731 -0.4205  0.0171
10997TIP3    H154406   0.281   1.132   2.547 -0.0845  1.0133  0.1838
10997TIP3    H254407   0.277   1.142   2.698 -0.2276 -1.2120  0.3314
10998TIP3   OH254408   6.479   0.175   1.908  0.1578  0.5396  0.6271
10998TIP3    H154409   6.514   0.259   1.937  0.3374  1.2174 -1.4683
10998TIP3    H254410   6.451   0.191   1.817 -0.4907 -1.4628  0.4549
10999TIP3   OH254411   6.557   0.055   2.143 -0.1609  0.0384  0.1683
10999TIP3    H154412   6.523   0.081   2.058 -0.8163  1.3012  0.7985
10999TIP3    H254413   6.497   0.094   2.206 -0.6089 -2.2476  1.1925
11000TIP3   OH254414   5.413   5.390  15.580  0.0277  0.1766 -0.0523
11000TIP3    H154415   5.447   5.344  15.656  0.0754  0.1585 -0.0844
11000TIP3    H254416   5.413   5.482  15.606 -1.0174  0.0632  0.3839
11001TIP3   OH254417   4.991   0.699  15.709 -0.6399  0.2056 -0.1466
11001TIP3    H154418   4.973   0.746  15.627  1.4775 -0.3381 -0.9573
11001TIP3    H254419   5.015   0.610  15.681 -0.2892 -0.0960  1.0884
11002TIP3   OH254420   6.067   6.030   2.744 -0.1585  0.8903  0.2094
11002TIP3    H154421   6.091   5.978   2.821 -3.5546  0.8759  1.3589
11002TIP3    H254422   6.128   6.103   2.744  0.7014  0.2117  2.2015
11003TIP3   OH254423   5.340   0.905   2.079 -0.5747  0.2104 -0.4414
11003TIP3    H154424   5.321   0.974   2.015 -0.2435  0.9893  0.2940
11003TIP3    H254425   5.431   0.920   2.104  0.2792 -1.9335 -2.0348
11004TIP3   OH254426   6.302   1.144   2.864 -0.0926  0.4439  0.1518
11004TIP3    H154427   6.323   1.181   2.779  1.8505  0.5211  0.6438
11004TIP3    H254428   6.320   1.214   2.926 -2.4780  0.7311  0.5734
11005TIP3   OH254429   6.567   2.674   1.370 -0.2412  0.0214  0.0054
11005TIP3    H154430   6.580   2.768   1.353 -1.2914 -0.0836 -1.4072
11005TIP3    H254431   6.486   2.652   1.325  0.0778 -1.6198  0.2024
11006TIP3   OH254432   0.001   0.409   0.996 -0.5152 -0.2528 -0.0383
11006TIP3    H154433  -0.017   0.327   1.041 -1.7865 -0.3937 -0.7746
11006TIP3    H254434  -0.049   0.403   0.914  1.0028  0.3944 -1.0268
11007TIP3   OH254435   6.572   0.256  15.786  0.6721  0.1822  0.5205
11007TIP3    H154436   6.552   0.177  15.735  1.4589 -0.3093  0.9647
11007TIP3    H254437   6.578   0.225  15.876 -0.7633  1.0557  0.9314
11008TIP3   OH254438   5.747   0.549   2.459 -0.8895 -0.1590  0.0807
11008TIP3    H154439   5.745   0.489   2.384  1.1963 -0.4091  0.2003
11008TIP3    H254440   5.712   0.631   2.425  0.1864 -0.2220 -1.2210
11009TIP3   OH254441   3.141   3.354   1.337 -0.3900  0.3089 -0.0671
11009TIP3    H154442   3.075   3.299   1.295  0.0620  0.6490 -1.2115
11009TIP3    H254443   3.219   3.345   1.282 -0.3431  2.1955 -0.3271
11010TIP3   OH254444   5.492   1.488   1.344  0.5084 -0.3245 -0.3829
11010TIP3    H154445   5.554   1.557   1.318 -0.2318  0.8158  0.8030
11010TIP3    H254446   5.542   1.432   1.403  1.1487 -0.8990 -1.4422
11011TIP3   OH254447   6.374   0.640   2.255 -0.3538 -0.2414  0.2073
11011TIP3    H154448   6.456   0.593   2.270  1.0964  1.9265 -0.6762
11011TIP3    H254449   6.342   0.606   2.171  0.9013  0.6084 -0.6338
11012TIP3   OH254450   4.410   1.761   2.397 -0.4649 -0.1715 -0.5176
11012TIP3    H154451   4.354   1.807   2.335  0.6771  1.4423 -0.3692
11012TIP3    H254452   4.481   1.725   2.344 -0.8450 -0.9875 -0.4916
11013TIP3   OH254453   6.044   1.228   2.924 -0.1411 -0.3554  0.3440
11013TIP3    H154454   6.080   1.298   2.869  0.4198  0.0334  1.2053
11013TIP3    H254455   6.113   1.161   2.925 -0.7081 -0.9725 -0.5459
11014TIP3   OH254456   5.431   0.951   1.265 -0.3642 -0.0210  0.4292
11014TIP3    H154457   5.410   0.890   1.194 -0.5705 -1.8550  2.0203
11014TIP3    H254458   5.504   1.003   1.231 -1.4598  0.2019 -1.6963
11015TIP3   OH254459   0.238   0.276  15.800 -0.0342  0.1461 -0.1666
11015TIP3    H154460   0.228   0.307  15.891 -0.6375 -1.5469  0.3695
11015TIP3    H254461   0.247   0.356  15.749 -1.1514  1.1985  1.2221
11016TIP3   OH254462   6.156   1.513   0.716  0.4293 -0.0069 -0.1376
11016TIP3    H154463   6.215   1.584   0.689 -0.0059 -0.4609 -2.3355
11016TIP3    H254464   6.211   1.435   0.716  0.6110  0.1112  1.0837
11017TIP3   OH254465   5.383   0.384   2.060  0.0039  0.3968  0.3455
11017TIP3    H154466   5.442   0.459   2.073 -0.1091  0.6599 -0.6276
11017TIP3    H254467   5.318   0.393   2.129 -0.4890  1.6780 -0.2729
11018TIP3   OH254468   0.965   6.297   1.291  0.2872 -0.0058  0.4511
11018TIP3    H154469   0.897   6.297   1.224  1.9071 -1.9834 -1.2734
11018TIP3    H254470   0.934   6.234   1.356  1.1728 -2.1913 -1.1621
11019TIP3   OH254471   5.677   5.713  15.739  0.4102 -0.2518  1.2275
11019TIP3    H154472   5.702   5.725  15.647  0.2125  1.1247  1.3371
11019TIP3    H254473   5.660   5.802  15.770  0.8289 -0.6751  2.6998
11020TIP3   OH254474   5.031   6.773   1.375  0.7076  0.1384  0.4159
11020TIP3    H154475   5.017   6.728   1.458 -2.2238  1.5278  0.7310
11020TIP3    H254476   4.961   6.741   1.318  2.1051 -0.0514 -1.2218
11021TIP3   OH254477   2.532   0.515   2.020 -0.0777  0.1181  0.1732
11021TIP3    H154478   2.500   0.508   2.110 -0.7914  1.0200 -0.0037
11021TIP3    H254479   2.627   0.505   2.028 -0.1888 -0.3656  0.9583
11022TIP3   OH254480   0.878   1.082   0.907  0.2152  0.4897 -0.1120
11022TIP3    H154481   0.900   1.148   0.842  3.9314 -0.6114 -0.0563
11022TIP3    H254482   0.844   1.008   0.856 -1.8985  1.5583 -0.3248
11023TIP3   OH254483   7.097   0.404  15.647  0.1887  0.4324 -0.1706
11023TIP3    H154484   7.103   0.355  15.729 -0.3876  0.5241 -0.0748
11023TIP3    H254485   7.023   0.463  15.659 -1.2434 -1.0435 -1.5658
11024TIP3   OH254486   6.286   7.259  15.961 -0.1107  0.2457 -0.2938
11024TIP3    H154487   6.273   7.215  16.045  0.5541  1.3071  0.3797
11024TIP3    H254488   6.374   7.295  15.967  0.2234 -0.3085 -1.7518
11025TIP3   OH254489   0.790   0.421   1.091  0.4603  0.3399 -0.5235
11025TIP3    H154490   0.775   0.515   1.103 -1.1427  0.0754 -0.3424
11025TIP3    H254491   0.761   0.381   1.173 -0.7133 -0.4883 -1.3242
11026TIP3   OH254492   5.095   7.177   0.904  1.0934 -0.0656 -0.6339
11026TIP3    H154493   5.011   7.137   0.880  1.7205 -1.0819 -1.1534
11026TIP3    H254494   5.075   7.270   0.915 -0.6402 -0.7040  1.8593
11027TIP3   OH254495   5.721   2.214   2.519  0.5278 -0.1200  0.2210
11027TIP3    H154496   5.666   2.255   2.452  2.0385  0.0948 -0.9192
11027TIP3    H254497   5.679   2.130   2.537 -0.1119 -0.0087 -0.7331
11028TIP3   OH254498   6.498   5.853   3.654  0.5899  0.3557 -0.0305
11028TIP3    H154499   6.512   5.818   3.565 -0.1133  1.2597 -0.5002
11028TIP3    H254500   6.586   5.866   3.688  0.8898 -1.8895  0.1707
11029TIP3   OH254501   5.826   1.758   1.724 -0.0022  0.4312  0.3091
11029TIP3    H154502   5.912   1.743   1.765 -0.1125 -0.8074  0.1121
11029TIP3    H254503   5.808   1.851   1.739  1.0312  0.5266  1.0130
11030TIP3   OH254504   5.046   2.441  15.620  0.5755  0.2925 -0.4682
11030TIP3    H154505   5.092   2.398  15.692 -0.3821 -1.9240 -1.1548
11030TIP3    H254506   5.115   2.467  15.559  1.0027 -2.5560 -1.2464
11031TIP3   OH254507   0.635   5.402   2.738  0.0278  0.3660  0.1672
11031TIP3    H154508   0.728   5.380   2.733 -0.2413 -1.0134  0.8518
11031TIP3    H254509   0.627   5.450   2.821  0.3565  1.7472 -0.5841
11032TIP3   OH254510   0.165   2.509  15.751  0.0058  0.3133 -0.3524
11032TIP3    H154511   0.192   2.458  15.675  1.1327 -1.0970  0.9544
11032TIP3    H254512   0.079   2.474  15.774  0.3846 -0.3908  0.0006
11033TIP3   OH254513   6.688   4.186  15.901  0.7557 -0.1456  0.6725
11033TIP3    H154514   6.680   4.266  15.952  2.4070  1.4951 -1.5468
11033TIP3    H254515   6.733   4.125  15.958 -0.2938  0.5752  2.2993
11034TIP3   OH254516   2.788   3.077   1.001 -0.8170  0.0817  0.6551
11034TIP3    H154517   2.708   3.046   1.043  0.2295 -1.3669  1.5863
11034TIP3    H254518   2.795   3.023   0.922 -2.6594  2.6418 -1.3906
11035TIP3   OH254519   6.680   1.226   0.884  0.2655  0.2623 -0.1602
11035TIP3    H154520   6.753   1.283   0.908  0.1131  0.2160  0.4237
11035TIP3    H254521   6.612   1.246   0.949 -0.5844  0.9776 -1.2488
11036TIP3   OH254522   0.955   3.439   1.342  0.2713 -0.5680  0.3036
11036TIP3    H154523   0.927   3.499   1.273 -1.5766 -0.8589  0.7807
11036TIP3    H254524   0.977   3.358   1.295 -1.2715 -0.8654  0.0679
11037TIP3   OH254525   6.013   5.195  14.942  0.0027 -0.1487 -0.1500
11037TIP3    H154526   6.071   5.187  14.866 -0.2212 -0.8651 -0.2503
11037TIP3    H254527   6.038   5.122  14.999  0.2344  0.4459  0.5137
11038TIP3   OH254528   4.591   1.418  15.591  0.1581 -0.5223  0.1947
11038TIP3    H154529   4.523   1.413  15.659 -0.2770 -1.1035 -0.2764
11038TIP3    H254530   4.563   1.491  15.535  0.5012 -0.0634  0.6098
11039TIP3   OH254531   0.966   2.328   0.971 -0.1967 -0.4517 -0.4275
11039TIP3    H154532   0.906   2.254   0.973 -0.4100 -0.2811 -0.5441
11039TIP3    H254533   0.920   2.398   1.018 -0.4946 -0.0094 -1.3760
11040TIP3   OH254534   1.913   3.486   1.697 -0.0008 -0.0181 -0.4154
11040TIP3    H154535   1.874   3.415   1.647  0.1140 -0.5613  0.2755
11040TIP3    H254536   1.992   3.448   1.736  1.2630  1.0575 -1.8184
11041TIP3   OH254537   2.196   4.253   0.132  0.8628  0.5319 -0.0649
11041TIP3    H154538   2.263   4.200   0.088  0.3359  0.7822 -1.1906
11041TIP3    H254539   2.141   4.285   0.061 -0.1804  0.7092  0.8121
11042TIP3   OH254540   3.631   2.741   1.793  0.1201 -0.7109  0.2699
11042TIP3    H154541   3.544   2.720   1.827  0.4238  0.1165  1.5638
11042TIP3    H254542   3.628   2.835   1.775  0.9250 -0.5798  0.8260
11043TIP3   OH254543   1.001   4.253   1.655  0.0219 -0.0968 -0.0968
11043TIP3    H154544   1.020   4.251   1.749 -0.6322 -0.1056  0.0394
11043TIP3    H254545   0.914   4.212   1.647 -0.5823  1.2415 -0.5406
11044TIP3   OH254546   6.847   4.380   1.170 -0.0145 -0.3299  0.2105
11044TIP3    H154547   6.923   4.322   1.165 -0.8053 -1.3759  0.0669
11044TIP3    H254548   6.781   4.337   1.115 -0.0120  1.6416 -1.3829
11045TIP3   OH254549   2.635   4.186   0.295  0.3629  0.3856 -0.0783
11045TIP3    H154550   2.626   4.203   0.389  0.0874  2.1623 -0.4226
11045TIP3    H254551   2.645   4.272   0.256  4.1319 -0.5779 -1.3355
11046TIP3   OH254552   6.454   3.779   2.331  0.6879  0.2065  0.2416
11046TIP3    H154553   6.402   3.742   2.259  0.9427 -0.1138  0.2205
11046TIP3    H254554   6.508   3.846   2.289  1.2894 -0.4062  0.0180
11047TIP3   OH254555   2.527   0.970   0.748 -0.1225 -0.4646 -0.6262
11047TIP3    H154556   2.454   1.022   0.783 -0.9775 -0.9800 -1.5910
11047TIP3    H254557   2.606   1.018   0.774 -0.8509  0.7477 -0.5865
11048TIP3   OH254558   3.302   1.782   0.632  0.4915 -0.1064  0.5391
11048TIP3    H154559   3.242   1.829   0.690  0.5079 -0.2124  0.6418
11048TIP3    H254560   3.324   1.846   0.564 -1.1989 -0.6494 -0.5476
11049TIP3   OH254561   6.741   1.754   1.400  0.3172  0.1786  0.0005
11049TIP3    H154562   6.665   1.813   1.402  0.0609 -0.1606  0.7356
11049TIP3    H254563   6.757   1.738   1.307  0.3182  1.3138 -0.2032
11050TIP3   OH254564   1.924   4.304   2.219  0.4805 -0.3187  0.8784
11050TIP3    H154565   1.997   4.247   2.240  0.6528  0.1268  1.5120
11050TIP3    H254566   1.855   4.245   2.189  0.2891 -0.9676  2.5286
11051TIP3   OH254567   1.170   4.022   1.438 -0.0928 -0.1716 -0.8552
11051TIP3    H154568   1.250   4.049   1.482 -0.7260 -0.6350  0.6295
11051TIP3    H254569   1.101   4.039   1.502 -1.1260 -0.2153 -1.9360
11052TIP3   OH254570   0.340   2.462   1.438  0.2122  0.0569 -0.4393
11052TIP3    H154571   0.283   2.392   1.405  0.6372  0.7655 -2.8403
11052TIP3    H254572   0.420   2.417   1.465 -0.6167 -0.6936  0.7948
11053TIP3   OH254573   5.764   2.418  14.951 -1.0435  0.1353 -0.1693
11053TIP3    H154574   5.688   2.451  14.903 -2.2297 -1.3437  0.6433
11053TIP3    H254575   5.727   2.355  15.013  0.5793  1.1510  1.8841
11054TIP3   OH254576   0.839   3.650   1.702  0.2337 -0.4078  0.2994
11054TIP3    H154577   0.766   3.680   1.648  1.0757  0.2225 -0.4979
11054TIP3    H254578   0.797   3.620   1.783 -1.0452 -1.4704 -0.7278
11055TIP3   OH254579   1.969   3.043   0.407  0.0141  0.7149  0.4100
11055TIP3    H154580   1.935   2.980   0.344 -1.5748  3.0064 -1.0889
11055TIP3    H254581   2.025   3.100   0.355  1.1366  0.7994  1.6809
11056TIP3   OH254582   2.411   3.890   1.020  0.5855 -0.0310  0.4684
11056TIP3    H154583   2.400   3.821   1.086 -0.8056  0.4440  0.7406
11056TIP3    H254584   2.322   3.909   0.990  1.0856  0.7503 -0.5304
11057TIP3   OH254585   0.598   2.218   0.313 -0.3259 -1.1132 -0.4224
11057TIP3    H154586   0.679   2.170   0.335  0.9134  0.7431 -0.8389
11057TIP3    H254587   0.582   2.272   0.390 -0.0496  0.0031 -1.1447
11058TIP3   OH254588   6.730   1.266   1.398  0.3888  0.1983  0.5586
11058TIP3    H154589   6.765   1.214   1.326  1.1349  0.9275  0.3905
11058TIP3    H254590   6.744   1.212   1.476  4.3837  1.5460  0.9089
11059TIP3   OH254591   7.027   4.127   3.205  0.1192  0.0520 -0.1471
11059TIP3    H154592   7.049   4.035   3.219 -0.1365  0.1045  0.5720
11059TIP3    H254593   7.111   4.169   3.186  0.3177 -0.2095  0.1581
11060TIP3   OH254594   2.902   4.623   1.076  0.3505 -0.0849  0.6089
11060TIP3    H154595   2.912   4.638   1.170  0.0928 -0.9307  0.7776
11060TIP3    H254596   2.808   4.610   1.063  0.6394 -2.3113  0.6098
11061TIP3   OH254597   3.412   2.321   1.604  0.1482  0.3161 -0.0899
11061TIP3    H154598   3.320   2.295   1.599  0.6850 -1.2012 -3.1974
11061TIP3    H254599   3.412   2.413   1.580 -0.7410  0.8885  1.9488
11062TIP3   OH254600   5.622   3.666  13.163 -0.1566  0.4757  0.0125
11062TIP3    H154601   5.675   3.591  13.189  0.0444  0.3784 -0.6722
11062TIP3    H254602   5.549   3.629  13.115 -1.1847  0.5646  1.4949
11063TIP3   OH254603   1.970   3.090  14.314  0.1601  0.3009  0.0163
11063TIP3    H154604   2.016   3.153  14.259  0.9320  1.2026  1.6566
11063TIP3    H254605   1.878   3.115  14.307  0.3567  1.0160 -0.1009
11064TIP3   OH254606   4.136   3.089   2.777  0.0810 -0.3322 -0.5414
11064TIP3    H154607   4.127   3.000   2.742  1.6304  0.5906 -3.5241
11064TIP3    H254608   4.071   3.140   2.728 -0.3426  0.3166  0.6844
11065TIP3   OH254609   1.577   4.603   1.602 -0.1740 -0.5291 -0.4360
11065TIP3    H154610   1.623   4.687   1.594  0.6037 -1.0493 -1.5957
11065TIP3    H254611   1.489   4.621   1.567 -0.1389 -0.0976 -0.3078
11066TIP3   OH254612   2.770   1.666   2.731 -0.8649 -0.2040  0.6076
11066TIP3    H154613   2.827   1.730   2.688 -0.6481  0.3968  1.7711
11066TIP3    H254614   2.743   1.708   2.812 -0.6538 -1.6332  1.4368
11067TIP3   OH254615   1.432   4.943   1.791 -0.0866  0.2945  0.5674
11067TIP3    H154616   1.436   5.022   1.845  0.9268  1.5307 -1.2740
11067TIP3    H254617   1.385   4.970   1.712  2.7056 -0.1880 -1.3164
11068TIP3   OH254618   7.084   3.383   1.798  0.4588  0.4776  0.0292
11068TIP3    H154619   6.993   3.355   1.799  1.1581 -1.9839 -1.0025
11068TIP3    H254620   7.123   3.340   1.874  1.0423  0.4617 -0.2728
11069TIP3   OH254621   7.084   2.922  15.593  0.3702  0.3988  0.6160
11069TIP3    H154622   7.104   2.938  15.500 -1.3540 -1.0167 -0.0281
11069TIP3    H254623   7.101   2.829  15.605  0.9705  0.6600  1.8447
11070TIP3   OH254624   1.270   3.937   2.856  0.5344  0.0931 -0.7821
11070TIP3    H154625   1.241   4.026   2.836  0.4755  0.4359  0.7502
11070TIP3    H254626   1.205   3.905   2.919  1.1167 -0.6740 -0.5665
11071TIP3   OH254627   1.728   4.389   2.597  0.4150  0.8402 -0.0011
11071TIP3    H154628   1.685   4.314   2.638 -1.7175  2.6317  1.1957
11071TIP3    H254629   1.741   4.363   2.506  1.4216 -1.6560  0.8420
11072TIP3   OH254630   1.366   4.485   0.068  0.1828  0.2522  0.5673
11072TIP3    H154631   1.404   4.404   0.033  0.4170  0.2579  0.8073
11072TIP3    H254632   1.274   4.481   0.042 -0.7955 -2.0639  4.0451
11073TIP3   OH254633   0.362   1.500   1.937 -0.1164 -0.0722  0.0751
11073TIP3    H154634   0.317   1.415   1.944  1.3288 -0.7746  1.1476
11073TIP3    H254635   0.430   1.486   1.870 -0.2682  0.4278 -0.1884
11074TIP3   OH254636   2.495   3.594   3.027 -0.0996  0.1293  0.2119
11074TIP3    H154637   2.447   3.672   2.997  1.5098  0.4724 -1.5664
11074TIP3    H254638   2.446   3.564   3.104 -2.1244  1.4980 -0.4902
11075TIP3   OH254639   5.784   5.464   2.459 -0.1852  0.4033  0.0892
11075TIP3    H154640   5.772   5.557   2.480 -0.3396  0.1523  1.1362
11075TIP3    H254641   5.879   5.452   2.462 -0.0731  0.8321 -1.4096
11076TIP3   OH254642   2.260   1.711   2.007 -0.1739 -0.1758 -0.2166
11076TIP3    H154643   2.171   1.698   2.040 -0.0644 -0.0208  0.1412
11076TIP3    H254644   2.314   1.651   2.059 -0.1430 -0.6747 -0.8066
11077TIP3   OH254645   6.810   2.481   1.413 -0.6158 -0.8519  0.4838
11077TIP3    H154646   6.747   2.544   1.381  1.0369  0.2328 -0.7015
11077TIP3    H254647   6.771   2.396   1.396 -2.5059 -0.1779  1.3691
11078TIP3   OH254648   7.237   5.922   0.329 -0.1690  0.1215 -0.3811
11078TIP3    H154649   7.244   5.827   0.324 -0.0220  0.0111  1.4270
11078TIP3    H254650   7.320   5.951   0.367  0.5831  1.1736 -2.7292
11079TIP3   OH254651   6.879   0.557  15.661  0.4620  0.5026 -0.2383
11079TIP3    H154652   6.847   0.620  15.726  1.8043 -0.8305  1.7758
11079TIP3    H254653   6.800   0.508  15.635 -0.0055  0.6453  0.8580
11080TIP3   OH254654   4.535   1.453  14.032 -0.0972 -0.2892 -0.3125
11080TIP3    H154655   4.453   1.413  14.062 -0.0172 -0.0485  0.2363
11080TIP3    H254656   4.603   1.394  14.063 -0.0990 -0.8988 -1.4423
11081TIP3   OH254657   1.418   5.007   0.042 -0.2757  0.2006  0.5380
11081TIP3    H154658   1.399   4.913   0.051 -2.0392  0.4953 -0.0103
11081TIP3    H254659   1.382   5.031  -0.043 -0.2910  1.5036  0.9030
11082TIP3   OH254660   0.937   2.520   0.404  0.0501 -0.3576 -0.1493
11082TIP3    H154661   0.946   2.485   0.493 -0.3014 -0.4257 -0.1399
11082TIP3    H254662   0.877   2.594   0.413  0.0275 -0.3539 -0.3254
11083TIP3   OH254663   0.407   3.024   0.509 -0.4761 -0.1478 -0.3597
11083TIP3    H154664   0.426   2.936   0.478 -1.6997  0.5216 -3.1462
11083TIP3    H254665   0.494   3.064   0.520  0.0438 -1.2483 -0.4081
11084TIP3   OH254666   0.173   3.122   0.959  0.2477 -0.9370  0.6573
11084TIP3    H154667   0.189   3.036   0.920  2.7472 -0.3749  0.3499
11084TIP3    H254668   0.087   3.148   0.925  0.2138 -2.5848 -0.5668
11085TIP3   OH254669   0.017   5.060  14.484  0.0402  0.4187  0.1235
11085TIP3    H154670  -0.019   5.013  14.559  0.5703  0.1602  0.2161
11085TIP3    H254671  -0.053   5.058  14.418 -0.0573 -0.2188  0.2424
11086TIP3   OH254672   3.510   5.680   1.659 -0.4847 -0.0537  0.0837
11086TIP3    H154673   3.584   5.717   1.611 -0.3771  1.6276  1.4719
11086TIP3    H254674   3.444   5.662   1.592  1.5877 -2.7031 -1.3255
11087TIP3   OH254675   2.251   4.236   1.567 -0.0032  0.7841 -0.2821
11087TIP3    H154676   2.279   4.326   1.549 -0.7901  1.4142  1.5519
11087TIP3    H254677   2.186   4.245   1.637 -0.4355 -1.1744 -0.4218
11088TIP3   OH254678   1.366   3.457   1.985  0.1087  0.1071  0.7229
11088TIP3    H154679   1.304   3.493   1.921 -0.2773  0.3366  1.2231
11088TIP3    H254680   1.387   3.369   1.952  0.6773  0.6004 -0.2427
11089TIP3   OH254681   3.666   2.745   2.193 -0.5975 -0.5514  0.3870
11089TIP3    H154682   3.630   2.711   2.274  5.1111 -2.4922  2.3419
11089TIP3    H254683   3.670   2.669   2.135  0.0530 -0.3082  0.1070
11090TIP3   OH254684   3.872   3.245   0.367 -0.2270  0.1800 -0.0800
11090TIP3    H154685   3.914   3.305   0.305  0.5698  0.8740  1.1021
11090TIP3    H254686   3.788   3.285   0.386 -0.2465  0.2445 -0.3045
11091TIP3   OH254687   1.351   2.806  15.673  0.5721 -0.5522 -0.1557
11091TIP3    H154688   1.279   2.750  15.700 -0.3189  0.6056 -0.0732
11091TIP3    H254689   1.345   2.809  15.577 -0.8063  1.2036 -0.0497
11092TIP3   OH254690   1.494   3.209  14.833  0.4208  0.2975 -0.3982
11092TIP3    H154691   1.473   3.131  14.781 -0.4444  1.8501 -2.4927
11092TIP3    H254692   1.588   3.223  14.820  0.3136  0.3558 -1.1366
11093TIP3   OH254693   6.000   4.402   1.302 -0.5295 -0.3304  1.1522
11093TIP3    H154694   5.995   4.309   1.324 -0.4657  0.0361  2.7755
11093TIP3    H254695   5.979   4.447   1.384 -1.0014  1.0872  0.2715
11094TIP3   OH254696   0.216   2.686   1.014  0.0370 -0.1745 -0.5457
11094TIP3    H154697   0.129   2.701   0.978 -0.4054  1.9181  1.2698
11094TIP3    H254698   0.214   2.596   1.046 -1.5326 -0.0940 -0.3811
11095TIP3   OH254699   0.819   4.288   1.336  0.0612 -0.2583 -0.2477
11095TIP3    H154700   0.825   4.194   1.322 -0.0385 -0.5435  1.4539
11095TIP3    H254701   0.906   4.322   1.315  0.8696 -1.1034  1.6440
11096TIP3   OH254702   0.991   2.219   0.010 -0.9340  0.3396  0.3102
11096TIP3    H154703   1.085   2.205  -0.001 -0.9009 -1.0556  2.0630
11096TIP3    H254704   0.981   2.241   0.102 -2.4091 -0.3038  0.3102
11097TIP3   OH254705   1.660   2.408  14.666  0.4982  0.1177 -0.5440
11097TIP3    H154706   1.699   2.495  14.677  1.4300 -0.2962 -0.5155
11097TIP3    H254707   1.565   2.424  14.669  0.6559  1.1531 -0.7329
11098TIP3   OH254708   1.193   2.601  14.216  0.3720  0.2234 -0.2562
11098TIP3    H154709   1.174   2.602  14.122 -1.0858 -0.9200  0.0091
11098TIP3    H254710   1.180   2.692  14.244 -1.2346  0.1725 -0.7793
11099TIP3   OH254711   6.101   1.644   1.119  0.0413  0.1744 -0.6092
11099TIP3    H154712   6.019   1.635   1.071 -0.2815 -1.0516  0.1409
11099TIP3    H254713   6.089   1.722   1.173 -1.3760 -1.0479  0.8921
11100TIP3   OH254714   6.742   3.560   1.637 -0.1442 -0.5339 -0.5403
11100TIP3    H154715   6.758   3.470   1.666 -0.7792 -0.3210  0.4759
11100TIP3    H254716   6.768   3.614   1.712  1.8971  0.2283 -1.7647
11101TIP3   OH254717   6.374   4.030   1.556  0.4044  0.1132  0.0676
11101TIP3    H154718   6.463   3.995   1.562  0.0926 -0.6052  0.6104
11101TIP3    H254719   6.363   4.081   1.636  1.9509  4.1151 -2.1330
11102TIP3   OH254720   5.850   2.419   1.303 -0.0267 -0.0513 -0.0432
11102TIP3    H154721   5.776   2.418   1.364  0.2502  0.0274  0.2978
11102TIP3    H254722   5.832   2.494   1.246 -0.3581 -0.2102 -0.1482
11103TIP3   OH254723   1.996   2.755   0.262 -0.2095 -0.6862 -0.1604
11103TIP3    H154724   2.067   2.692   0.275  0.0623 -0.2842  0.3416
11103TIP3    H254725   1.919   2.713   0.302  0.0212 -0.6042  0.3692
11104TIP3   OH254726   0.699   2.624   1.274 -0.0697  0.0355  0.0525
11104TIP3    H154727   0.619   2.577   1.296  1.1455 -0.5553  3.4933
11104TIP3    H254728   0.680   2.715   1.297 -1.4290  0.8724 -3.9340
11105TIP3   OH254729   6.170   2.697   1.774 -0.2527 -0.0111  0.2824
11105TIP3    H154730   6.209   2.703   1.687 -2.1852 -2.5988 -0.8528
11105TIP3    H254731   6.141   2.786   1.794 -0.4542  0.4730 -2.0691
11106TIP3   OH254732   0.559   4.782  14.767  0.4867 -0.4955  0.7755
11106TIP3    H154733   0.588   4.717  14.703 -3.7634 -1.3264 -0.4822
11106TIP3    H254734   0.550   4.732  14.849 -0.9765 -1.1256  0.2516
11107TIP3   OH254735   0.625   0.247   0.952 -0.0096  0.1698  0.4071
11107TIP3    H154736   0.679   0.315   0.991 -1.5384 -0.0006  2.9029
11107TIP3    H254737   0.542   0.252   0.999 -0.6057 -2.5398 -0.2761
11108TIP3   OH254738   1.478   2.537   2.299 -0.4060 -0.0354 -0.0955
11108TIP3    H154739   1.441   2.551   2.212 -0.9836 -1.0495 -0.0242
11108TIP3    H254740   1.402   2.524   2.356 -0.0625  1.1510  0.6765
11109TIP3   OH254741   1.428   3.428   2.354 -0.6810  0.7681 -0.0534
11109TIP3    H154742   1.519   3.409   2.332 -0.5394 -0.2032  1.2847
11109TIP3    H254743   1.381   3.420   2.271  0.0310 -1.5558 -0.2827
11110TIP3   OH254744   4.559   4.536   1.485  0.3673 -0.3665 -0.2709
11110TIP3    H154745   4.616   4.568   1.414 -1.0692  0.7135 -0.9577
11110TIP3    H254746   4.500   4.475   1.442 -1.5543  1.4857 -0.3445
11111TIP3   OH254747   1.300   1.415   0.311 -0.0503  0.0988 -0.3875
11111TIP3    H154748   1.348   1.489   0.348  2.2027 -0.7263 -1.5083
11111TIP3    H254749   1.348   1.338   0.343 -0.7665 -0.7608 -1.3639
11112TIP3   OH254750   5.965   2.692   0.784  0.6636 -0.3381  0.9340
11112TIP3    H154751   5.893   2.666   0.726 -0.1206  0.5200  1.5109
11112TIP3    H254752   5.991   2.778   0.751  2.9452 -1.5840 -0.6851
11113TIP3   OH254753   6.793   3.042   1.198  0.0947 -0.8669  0.1852
11113TIP3    H154754   6.787   3.131   1.166  0.3696 -0.8311  0.2317
11113TIP3    H254755   6.886   3.021   1.194  0.3477 -0.3328  2.3594
11114TIP3   OH254756   6.482   1.923   1.934  0.2844 -0.0360 -0.4094
11114TIP3    H154757   6.470   1.994   1.996  1.3799 -0.6568  0.5316
11114TIP3    H254758   6.393   1.895   1.912 -0.1697  1.8011 -1.0307
11115TIP3   OH254759   3.265   3.039   1.331 -0.3281 -0.2164  0.4223
11115TIP3    H154760   3.230   3.111   1.278  0.8370 -0.3024 -0.4900
11115TIP3    H254761   3.307   3.082   1.405 -0.2799  0.0139  0.2643
11116TIP3   OH254762   0.762   2.968   0.526  0.0201 -0.6904 -0.0054
11116TIP3    H154763   0.784   2.903   0.593  1.0060  0.0785  0.4433
11116TIP3    H254764   0.837   3.027   0.525 -0.8417  0.4201 -0.4308
11117TIP3   OH254765   7.040   4.838   1.579 -0.1706  1.4101  0.1823
11117TIP3    H154766   7.084   4.918   1.551  0.3609  1.5147  1.2909
11117TIP3    H254767   6.998   4.862   1.661 -0.6107  0.7442  0.1493
11118TIP3   OH254768   6.446   2.430   1.485 -0.1065 -0.1530 -0.5089
11118TIP3    H154769   6.510   2.496   1.460  1.0891 -1.2216 -0.3338
11118TIP3    H254770   6.484   2.386   1.561 -0.4291 -1.6803 -1.2063
11119TIP3   OH254771   0.649   3.389   1.355  0.2313 -0.2609 -0.5248
11119TIP3    H154772   0.656   3.336   1.275  2.3724  1.2956 -1.4065
11119TIP3    H254773   0.647   3.324   1.426  4.5569 -1.6192 -1.4556
11120TIP3   OH254774   6.135   5.419  15.026  0.5265 -0.4490 -0.5437
11120TIP3    H154775   6.078   5.347  14.996  1.3482 -1.7518  0.9733
11120TIP3    H254776   6.075   5.480  15.068 -0.1924 -0.1936 -1.9024
11121TIP3   OH254777   0.444   2.609   1.854 -0.1021  0.1817 -0.1441
11121TIP3    H154778   0.486   2.666   1.917 -0.8899 -0.6488  1.1509
11121TIP3    H254779   0.367   2.657   1.824 -2.0510 -1.0831  2.6615
11122TIP3   OH254780   6.680   3.276   1.473 -0.0449  0.2204 -0.1145
11122TIP3    H154781   6.749   3.312   1.418  0.5964 -0.5330  0.1832
11122TIP3    H254782   6.623   3.350   1.492  1.5586  1.2098  0.9549
11123TIP3   OH254783   1.747   3.842  15.621  0.1582  0.3602  0.3953
11123TIP3    H154784   1.825   3.882  15.660  0.4572 -1.2209  1.4892
11123TIP3    H254785   1.781   3.791  15.547  0.1795 -0.2317  0.8009
11124TIP3   OH254786   3.569   1.938  15.146  0.0946  0.2732 -0.3544
11124TIP3    H154787   3.622   2.016  15.131 -0.1484  0.7986  1.3823
11124TIP3    H254788   3.624   1.866  15.115  1.0598  0.9711 -0.3104
11125TIP3   OH254789   2.395   4.185   1.050 -0.0818  0.2756 -0.0041
11125TIP3    H154790   2.399   4.161   1.143  0.0435  1.0059  0.1758
11125TIP3    H254791   2.436   4.111   1.005  1.3071  0.6417  0.6380
11126TIP3   OH254792   1.744   4.654   0.884 -0.4681  0.1939  0.0625
11126TIP3    H154793   1.817   4.715   0.876  0.5017 -0.6428  2.2871
11126TIP3    H254794   1.776   4.572   0.848 -0.9639  0.3412 -0.7213
11127TIP3   OH254795   2.372   3.029   0.251  0.5586 -0.4274 -1.1663
11127TIP3    H154796   2.331   2.993   0.172 -0.4444 -3.5302  0.6664
11127TIP3    H254797   2.442   2.968   0.272  1.3571  0.8267 -0.0908
11128TIP3   OH254798   7.262   3.917   0.519  0.3464 -0.4115 -0.2624
11128TIP3    H154799   7.305   3.869   0.590 -0.2449 -0.7939 -0.1586
11128TIP3    H254800   7.312   3.895   0.441  0.6420 -0.4541 -0.0612
11129TIP3   OH254801   6.251   3.036  13.540 -0.1847 -0.1353 -0.0856
11129TIP3    H154802   6.334   2.991  13.524  0.5234  1.0119  0.3403
11129TIP3    H254803   6.220   3.000  13.623  0.9125  0.9219  0.8014
11130TIP3   OH254804   6.377   2.577   1.192  0.3204  0.0423  0.2699
11130TIP3    H154805   6.414   2.509   1.136  1.5717  1.1030 -0.2310
11130TIP3    H254806   6.291   2.595   1.154  1.0343  0.5385 -1.1450
11131TIP3   OH254807   0.971   2.636   3.546  0.6149  0.2107  0.6850
11131TIP3    H154808   0.900   2.580   3.516  0.8457  0.5766 -0.5758
11131TIP3    H254809   0.952   2.651   3.639 -0.3938 -0.5143  0.6070
11132TIP3   OH254810   0.441   3.108   1.032 -0.3802 -0.5009  0.1998
11132TIP3    H154811   0.354   3.147   1.035  0.0028  0.2972  1.2719
11132TIP3    H254812   0.426   3.014   1.041 -1.1783 -0.4415 -0.4630
11133TIP3   OH254813   3.437   3.947   2.178  0.0914 -0.5597 -0.0789
11133TIP3    H154814   3.422   3.954   2.084  0.3320  1.7288  0.0278
11133TIP3    H254815   3.493   3.870   2.188 -0.3100 -1.0892 -1.7488
11134TIP3   OH254816   5.378   3.777  15.861 -0.1731  0.3748 -0.1196
11134TIP3    H154817   5.345   3.690  15.838 -0.9501  0.7120 -0.3159
11134TIP3    H254818   5.325   3.803  15.937  0.5509  0.3772  0.3885
11135TIP3   OH254819   2.146   2.906   1.247  0.5227  0.3700  0.0349
11135TIP3    H154820   2.170   2.933   1.336  0.1491  2.2961 -0.4285
11135TIP3    H254821   2.052   2.886   1.253 -0.2813  3.6076 -0.5812
11136TIP3   OH254822   3.403   4.470   2.160  0.6808  0.0674 -0.5261
11136TIP3    H154823   3.308   4.483   2.159  0.5391 -0.9512 -1.0347
11136TIP3    H254824   3.416   4.389   2.210  1.3497  0.6953  0.3357
11137TIP3   OH254825   5.851   3.742   0.892 -0.2739 -0.1604 -0.3335
11137TIP3    H154826   5.809   3.689   0.959  0.4839  0.2408  0.4662
11137TIP3    H254827   5.788   3.812   0.874 -0.2263  0.0684  0.3849
11138TIP3   OH254828   6.351   3.237   0.899 -0.4303  0.4318 -0.7030
11138TIP3    H154829   6.410   3.280   0.837  0.1014  1.4174  0.4558
11138TIP3    H254830   6.321   3.307   0.957  0.7017 -0.7874  1.4331
11139TIP3   OH254831   5.232   4.577   1.417 -0.0593 -0.0953  0.0760
11139TIP3    H154832   5.200   4.490   1.394  1.4528 -0.7129  0.2320
11139TIP3    H254833   5.165   4.637   1.384 -1.8240 -1.3669  1.2172
11140TIP3   OH254834   1.142   2.824   0.929  0.3070  0.5839  0.0243
11140TIP3    H154835   1.120   2.917   0.925  1.5124  0.8129 -1.7118
11140TIP3    H254836   1.232   2.819   0.897  0.7497 -1.0277  1.3950
11141TIP3   OH254837   6.316   2.593  13.770  0.3289 -0.4202 -0.2004
11141TIP3    H154838   6.338   2.685  13.755  0.9190 -0.6787 -0.9736
11141TIP3    H254839   6.230   2.581  13.732 -0.0196 -0.0409  0.4579
11142TIP3   OH254840   2.230   1.885  15.856  0.5046 -0.2454 -0.5323
11142TIP3    H154841   2.230   1.790  15.850 -1.2660 -0.1911 -1.5431
11142TIP3    H254842   2.225   1.903  15.950  2.0304 -1.1141 -0.2555
11143TIP3   OH254843   0.185   0.427   1.577 -0.2486 -0.2688 -0.2926
11143TIP3    H154844   0.258   0.395   1.524 -2.5734 -1.6875 -2.7114
11143TIP3    H254845   0.149   0.500   1.527 -1.4277 -0.5324  0.1643
11144TIP3   OH254846   1.121   4.405   0.593 -0.1215 -0.0109 -0.4878
11144TIP3    H154847   1.164   4.490   0.597  0.6784 -0.4469  0.6872
11144TIP3    H254848   1.106   4.390   0.500 -2.6359  2.5466 -0.5487
11145TIP3   OH254849   1.366   2.459   0.758 -0.1286  0.0414  0.3614
11145TIP3    H154850   1.310   2.393   0.798 -0.8328  0.6989  0.4648
11145TIP3    H254851   1.320   2.542   0.773  0.0235  0.3837 -1.0693
11146TIP3   OH254852   1.384   3.530   1.125  0.0753 -0.3081  0.1243
11146TIP3    H154853   1.435   3.472   1.182  1.4991 -0.6185 -1.4230
11146TIP3    H254854   1.372   3.610   1.177  0.6538 -0.8682  1.1504
11147TIP3   OH254855   1.418   2.812   2.460  0.2911 -0.2367 -0.5662
11147TIP3    H154856   1.419   2.724   2.496 -0.9759  0.7963  2.1557
11147TIP3    H254857   1.511   2.836   2.452  0.6218 -0.7400  1.4974
11148TIP3   OH254858   6.130   1.833  15.788  0.1467  0.0280  0.3005
11148TIP3    H154859   6.040   1.809  15.808  0.1637 -0.2781  0.0164
11148TIP3    H254860   6.159   1.768  15.724  0.5078  0.2357  0.2486
11149TIP3   OH254861   6.592   1.048   0.681 -0.2474 -0.4584 -0.1140
11149TIP3    H154862   6.499   1.047   0.701 -0.5957 -1.8650 -1.6340
11149TIP3    H254863   6.625   1.127   0.722 -2.1809  0.2255  0.1680
11150TIP3   OH254864   1.029   2.903  15.900  0.1252 -0.1701 -0.1538
11150TIP3    H154865   1.084   2.875  15.973 -1.2592 -0.1188  0.9185
11150TIP3    H254866   1.021   2.998  15.911 -1.8908 -0.4423  0.9167
11151TIP3   OH254867   1.395   2.801   0.858 -0.8687  0.5999 -0.3218
11151TIP3    H154868   1.459   2.857   0.903 -0.2259 -1.6267  1.6334
11151TIP3    H254869   1.446   2.754   0.792 -0.0677 -2.3535  2.2856
11152TIP3   OH254870   0.324   1.677   0.816 -0.1007 -0.9071 -0.0338
11152TIP3    H154871   0.337   1.620   0.740  0.3618  0.0297 -0.6678
11152TIP3    H254872   0.395   1.652   0.876 -0.2954 -1.4525 -0.0289
11153TIP3   OH254873   1.576   2.226   1.248  0.1373 -0.1832  0.2170
11153TIP3    H154874   1.667   2.206   1.227 -0.6782 -1.5585 -2.1409
11153TIP3    H254875   1.564   2.316   1.216  0.3843 -0.3576 -0.3728
11154TIP3   OH254876   1.486   3.932   0.534  0.1953 -0.0777 -0.0503
11154TIP3    H154877   1.535   3.994   0.480  1.0782 -0.7132  0.0136
11154TIP3    H254878   1.441   3.988   0.599 -1.3694  0.7390 -1.7762
11155TIP3   OH254879   1.145   0.599  15.216 -0.5078  0.2845  0.3954
11155TIP3    H154880   1.086   0.568  15.147 -0.8104 -0.1375  0.8432
11155TIP3    H254881   1.202   0.661  15.171  0.8672 -1.7643 -0.7625
11156TIP3   OH254882   1.820   2.553  15.158  0.6257 -0.4145  0.4368
11156TIP3    H154883   1.843   2.646  15.168  1.4376 -0.7064  1.2657
11156TIP3    H254884   1.770   2.531  15.237  1.0573 -0.8787  0.5798
11157TIP3   OH254885   1.320   5.035   0.322  0.4585 -0.0096  0.4712
11157TIP3    H154886   1.389   4.978   0.355  1.0069  0.5711  0.3275
11157TIP3    H254887   1.348   5.059   0.233 -0.3252 -0.4313  0.0982
11158TIP3   OH254888   6.134   2.536   2.474 -0.1666 -0.0695  0.4399
11158TIP3    H154889   6.046   2.528   2.511  0.3767  1.5779  2.1814
11158TIP3    H254890   6.191   2.494   2.538  0.4786  0.1876  0.0424
11159TIP3   OH254891   1.102   5.341   1.397  0.2615 -0.0056 -0.1424
11159TIP3    H154892   1.116   5.435   1.399 -0.8163  0.1748 -0.3752
11159TIP3    H254893   1.137   5.308   1.479 -0.4202  0.7572  0.4530
11160TIP3   OH254894   1.763   2.405   1.861 -0.0471 -0.2208 -0.1895
11160TIP3    H154895   1.738   2.385   1.951  0.9639 -0.6959 -0.0087
11160TIP3    H254896   1.682   2.396   1.811 -0.4240 -0.8646  0.5251
11161TIP3   OH254897   1.824   2.533   0.674 -0.0599  0.3675  0.4116
11161TIP3    H154898   1.895   2.539   0.737 -1.6910  0.3641  2.3055
11161TIP3    H254899   1.822   2.441   0.649 -0.2435  0.0962  1.3912
11162TIP3   OH254900   7.227   0.983   0.403 -0.1944  0.4368  0.2261
11162TIP3    H154901   7.197   1.046   0.338  0.7762  0.9423  0.2600
11162TIP3    H254902   7.295   0.932   0.358  0.2682  0.5867  0.7510
11163TIP3   OH254903   0.156   1.543  15.601  0.0851 -0.5446  0.1354
11163TIP3    H154904   0.126   1.574  15.515 -0.3008 -1.0810  0.0745
11163TIP3    H254905   0.078   1.506  15.642  0.5741 -1.6356  0.1186
11164TIP3   OH254906   1.439   2.645   1.236 -0.4973  0.4118 -0.1844
11164TIP3    H154907   1.450   2.556   1.204 -0.0565  0.5034 -0.2869
11164TIP3    H254908   1.345   2.654   1.250 -0.4831 -0.2557  0.3638
11165TIP3   OH254909   0.287   3.453  15.963 -0.1926  0.1570 -0.1515
11165TIP3    H154910   0.313   3.518  16.028 -0.3247  0.4312 -0.3667
11165TIP3    H254911   0.327   3.484  15.881  1.3869 -1.1038  0.1204
11166TIP3   OH254912   0.779   1.607   0.931  0.1515  0.2407  0.0166
11166TIP3    H154913   0.847   1.552   0.893  1.0594  0.5230  1.2114
11166TIP3    H254914   0.769   1.680   0.870  2.3860  1.2841  0.8434
11167TIP3   OH254915   5.889   3.341   1.625  0.3342  0.1832  0.3098
11167TIP3    H154916   5.917   3.312   1.539  2.1196  2.4180  0.1069
11167TIP3    H254917   5.952   3.302   1.685  1.4876  1.9047  0.2273
11168TIP3   OH254918   6.808   3.222   0.538 -0.0677  0.3918 -0.7337
11168TIP3    H154919   6.885   3.185   0.495  0.2577  0.2445 -0.0353
11168TIP3    H254920   6.826   3.316   0.541  0.4755  0.2662  0.1822
11169TIP3   OH254921   6.848   3.820  15.523 -0.0258  0.0938 -0.3140
11169TIP3    H154922   6.775   3.760  15.541 -0.1825  0.8689  1.8608
11169TIP3    H254923   6.924   3.777  15.561 -0.2119  1.4045  1.6493
11170TIP3   OH254924   1.987   4.967  15.539 -0.4326 -0.3260 -0.2043
11170TIP3    H154925   2.081   4.949  15.539 -0.4048 -0.1841 -0.2675
11170TIP3    H254926   1.966   4.987  15.630 -0.2570  0.3807 -0.3168
11171TIP3   OH254927   0.559   4.073   1.357  0.0762  0.1466 -0.3827
11171TIP3    H154928   0.506   4.002   1.395 -1.2111  0.3848 -1.7037
11171TIP3    H254929   0.524   4.153   1.396  0.2351  0.2198 -0.3866
11172TIP3   OH254930   1.147   3.110   1.019 -0.1544  0.2601 -0.0781
11172TIP3    H154931   1.154   3.197   1.060 -1.1474  0.3490 -0.0776
11172TIP3    H254932   1.060   3.109   0.981 -0.4286 -1.0169  0.5558
11173TIP3   OH254933   1.828   3.927   2.989  0.3924  0.1154  0.1168
11173TIP3    H154934   1.745   3.886   2.964  0.7100  0.2528 -1.2328
11173TIP3    H254935   1.803   3.997   3.049 -0.3866 -0.4303  0.4312
11174TIP3   OH254936   7.241   1.522  14.959  0.5901 -0.5605  0.4568
11174TIP3    H154937   7.325   1.567  14.970  0.9360 -1.2042  0.4829
11174TIP3    H254938   7.256   1.459  14.888 -0.6997  1.3139 -1.5279
11175TIP3   OH254939   3.419   3.039   1.062 -0.8384 -0.0618 -0.0066
11175TIP3    H154940   3.420   3.005   1.151  0.3406  2.8191  1.1687
11175TIP3    H254941   3.499   3.004   1.022 -1.2448 -1.1691  0.1491
11176TIP3   OH254942   2.474   3.370   0.134 -0.2987  0.0535  0.1821
11176TIP3    H154943   2.521   3.292   0.164  1.5315  1.4447  1.0870
11176TIP3    H254944   2.388   3.338   0.106  0.8845 -2.4500 -0.7147
11177TIP3   OH254945   4.678   3.332   1.300 -0.2407  0.3940 -0.7457
11177TIP3    H154946   4.768   3.308   1.320 -0.0883  1.1653 -0.4644
11177TIP3    H254947   4.637   3.251   1.269  0.7271  0.2013 -1.5324
11178TIP3   OH254948   0.484   5.282   0.986  0.1360  0.2342  0.2561
11178TIP3    H154949   0.403   5.331   1.000 -0.1990 -0.2782  0.1348
11178TIP3    H254950   0.502   5.292   0.892  1.0087  1.5630  0.5559
11179TIP3   OH254951   6.077   1.547   1.952  0.3745 -0.5851  0.2847
11179TIP3    H154952   6.021   1.473   1.973 -1.3417 -0.5523 -3.7551
11179TIP3    H254953   6.077   1.551   1.857  2.0891  3.3582  0.3571
11180TIP3   OH254954   3.119   2.554   0.812  0.0929  0.0177 -0.1277
11180TIP3    H154955   3.095   2.480   0.868  0.2752 -0.2411 -0.3898
11180TIP3    H254956   3.041   2.610   0.811 -0.0581 -0.1911  0.0395
11181TIP3   OH254957   0.692   3.281   1.091 -0.0398 -0.0360 -0.1714
11181TIP3    H154958   0.619   3.227   1.059  1.4901 -1.7442 -0.8330
11181TIP3    H254959   0.689   3.360   1.037 -1.5695  0.0518  0.0065
11182TIP3   OH254960   0.964   3.361   1.691 -0.3101  0.1410  0.3477
11182TIP3    H154961   1.054   3.332   1.704 -0.2671 -0.2420 -0.7406
11182TIP3    H254962   0.918   3.337   1.771  0.1856 -1.1249  0.2583
11183TIP3   OH254963   0.493   2.439   1.093 -0.4717 -0.0885  0.5910
11183TIP3    H154964   0.430   2.509   1.080  1.1642  1.2642 -0.1998
11183TIP3    H254965   0.467   2.371   1.031 -1.0706  0.5225  0.1703
11184TIP3   OH254966   1.180   2.161   3.639 -0.5573 -0.8760 -0.2315
11184TIP3    H154967   1.189   2.223   3.566  1.1616  2.1197  2.3869
11184TIP3    H254968   1.264   2.114   3.640 -0.1833 -0.1837  0.4759
11185TIP3   OH254969   0.911   4.036   0.787  0.6313  0.2098 -0.7861
11185TIP3    H154970   0.978   3.968   0.784  0.1066 -0.5094  2.0119
11185TIP3    H254971   0.854   4.017   0.712  3.2233  0.5684 -2.9370
11186TIP3   OH254972   5.911   3.053  15.030 -0.1659  0.3460 -0.2776
11186TIP3    H154973   6.003   3.045  15.007  0.2569  0.9751  1.1173
11186TIP3    H254974   5.878   2.964  15.032 -0.1665  0.2469 -3.0010
11187TIP3   OH254975   7.225   1.064  15.959  0.0940 -0.9121  0.0136
11187TIP3    H154976   7.219   1.013  15.879 -0.8756 -0.1637 -0.3984
11187TIP3    H254977   7.317   1.087  15.966  0.2035 -1.0871 -0.8189
11188TIP3   OH254978   0.335   2.525   0.012  0.4203  0.1368  0.3223
11188TIP3    H154979   0.262   2.495  -0.043  0.8486 -1.0223  0.3715
11188TIP3    H254980   0.369   2.602  -0.034 -0.0505 -0.0521 -0.3504
11189TIP3   OH254981   2.052   3.982   0.156 -0.6364  0.2190  0.2391
11189TIP3    H154982   2.065   4.027   0.239  1.0852  0.2685 -0.0518
11189TIP3    H254983   2.017   4.049   0.097  0.1804  0.7287  0.3270
11190TIP3   OH254984   4.628   3.448   2.417  0.8486  0.1515  0.2101
11190TIP3    H154985   4.657   3.359   2.437  0.6819  0.2575  0.9674
11190TIP3    H254986   4.653   3.462   2.326  2.7383  0.0570  0.6987
11191TIP3   OH254987   1.647   4.334   0.077  0.6627 -0.2776 -0.2805
11191TIP3    H154988   1.630   4.318   0.169  2.1689  1.1128  0.2476
11191TIP3    H254989   1.584   4.278   0.031  0.3727 -1.4937  1.5674
11192TIP3   OH254990   4.247   3.081  13.678 -0.3214 -0.1172  0.3899
11192TIP3    H154991   4.216   3.007  13.625 -0.1012 -0.3770  0.6238
11192TIP3    H254992   4.331   3.052  13.713 -0.1232  0.3341  0.2953
11193TIP3   OH254993   6.691   1.941   0.424 -0.1080  0.1932 -0.2332
11193TIP3    H154994   6.717   2.032   0.410 -0.8973  0.3724 -0.5842
11193TIP3    H254995   6.705   1.899   0.339  1.3994 -0.3055  0.2527
11194TIP3   OH254996   1.759   4.152   1.373 -0.2056  0.0731 -0.0952
11194TIP3    H154997   1.730   4.243   1.381  0.5211  0.4492 -1.5410
11194TIP3    H254998   1.781   4.126   1.463  0.7239  1.7119  0.1828
11195TIP3   OH254999   6.206   2.453   1.940  0.1602  0.3741  0.4055
11195TIP3    H155000   6.249   2.390   1.882 -2.7435 -0.7534 -0.6415
11195TIP3    H255001   6.197   2.532   1.888 -0.4710  0.0769  0.0566
11196TIP3   OH255002   6.583   2.832  14.903 -0.5512  0.3061 -0.3059
11196TIP3    H155003   6.566   2.754  14.957 -1.0959 -0.6027 -1.7287
11196TIP3    H255004   6.563   2.803  14.814  0.5259  1.7141 -1.0167
11197TIP3   OH255005   1.382   4.226  14.766  0.2553 -0.3144 -0.0713
11197TIP3    H155006   1.307   4.283  14.751  0.7820  0.2099 -0.7738
11197TIP3    H255007   1.353   4.164  14.833 -0.5925  0.2710  0.1066
11198TIP3   OH255008   2.810   3.200  15.100  0.1836  0.3094 -0.2227
11198TIP3    H155009   2.826   3.159  15.185 -2.5279  1.5240  0.9163
11198TIP3    H255010   2.894   3.239  15.076  1.5242 -1.7645  0.9184
11199TIP3   OH255011   5.240   1.301   0.120 -0.4766  0.1848  0.3498
11199TIP3    H155012   5.172   1.340   0.174 -0.2070  0.2211  0.6688
11199TIP3    H255013   5.296   1.253   0.182  0.5972  1.3271  0.2860
11200TIP3   OH255014   1.833   2.286   1.136 -0.3413 -0.1096  0.2597
11200TIP3    H155015   1.870   2.371   1.112 -1.1161  0.4123  0.8854
11200TIP3    H255016   1.802   2.250   1.052  0.5559 -0.0684 -0.1009
11201TIP3   OH255017   2.526   2.004   0.186 -0.3262  0.1434 -0.2371
11201TIP3    H155018   2.507   1.922   0.140 -0.2292 -0.5528  0.9194
11201TIP3    H255019   2.457   2.011   0.252  0.8157 -0.0575  1.0006
11202TIP3   OH255020   0.892   1.935   2.564  0.1100 -0.3342 -0.2093
11202TIP3    H155021   0.824   1.992   2.598  1.0818 -0.1014  1.3797
11202TIP3    H255022   0.847   1.879   2.501 -0.6957  2.7134 -2.4343
11203TIP3   OH255023   1.074   2.262   0.406 -0.3820 -0.1110 -0.7037
11203TIP3    H155024   0.983   2.278   0.429  0.2138 -0.5189  2.1348
11203TIP3    H255025   1.098   2.334   0.348 -1.5915  1.8423  1.1571
11204TIP3   OH255026   0.844   1.802  15.948  0.4178 -0.3717 -0.2773
11204TIP3    H155027   0.774   1.789  15.884 -0.2792 -1.0992  0.6304
11204TIP3    H255028   0.803   1.787  16.033  1.4060  0.3064  0.3358
11205TIP3   OH255029   0.467   4.658   1.547  0.0586  0.3293 -0.8692
11205TIP3    H155030   0.385   4.627   1.508 -0.5943 -0.5585  1.1546
11205TIP3    H255031   0.527   4.583   1.540  0.0928  0.3333 -0.6299
11206TIP3   OH255032   3.167   0.510   2.824 -0.1931 -0.9368  0.3218
11206TIP3    H155033   3.085   0.461   2.827  0.0231 -1.2977  0.3315
11206TIP3    H255034   3.210   0.490   2.907  0.6645 -2.0615 -0.3753
11207TIP3   OH255035   0.368   3.621   0.472 -0.0505  0.3608  0.3529
11207TIP3    H155036   0.459   3.619   0.502  0.0295  0.6366  0.1348
11207TIP3    H255037   0.373   3.657   0.383 -0.1718 -1.4903 -0.4156
11208TIP3   OH255038   0.654   3.639   1.422 -0.1414 -0.4724  0.1430
11208TIP3    H155039   0.568   3.651   1.380  1.4929  1.4998 -2.8077
11208TIP3    H255040   0.678   3.549   1.401 -1.6193 -1.1626  1.3002
11209TIP3   OH255041   1.134   1.458   1.346  0.3971 -0.2097  0.1320
11209TIP3    H155042   1.216   1.418   1.316 -0.3229 -0.8764 -1.0073
11209TIP3    H255043   1.078   1.384   1.369  0.2151  0.2541  1.2113
11210TIP3   OH255044   2.247   3.240   1.068  0.5372 -0.5270 -0.2968
11210TIP3    H155045   2.274   3.252   1.159  0.0986  0.7997 -0.3308
11210TIP3    H255046   2.157   3.274   1.065 -0.0797 -2.1861 -0.8390
11211TIP3   OH255047   0.068   2.222  15.209 -0.4976  0.1302  0.1145
11211TIP3    H155048   0.129   2.172  15.262 -1.6508 -0.6739  0.7102
11211TIP3    H255049  -0.017   2.207  15.250 -1.0678  1.3797 -0.5906
11212TIP3   OH255050   1.334   1.065  15.829  0.4827  0.3573  0.0591
11212TIP3    H155051   1.419   1.083  15.868  0.6267  0.7935 -0.4521
11212TIP3    H255052   1.275   1.052  15.904  1.0286 -0.1261  0.4097
11213TIP3   OH255053   0.860   4.776   0.819 -0.7488  0.0487  0.0626
11213TIP3    H155054   0.831   4.689   0.846 -1.1489 -0.2415 -1.2757
11213TIP3    H255055   0.946   4.785   0.858 -0.2164 -1.4145 -0.7208
11214TIP3   OH255056   6.147   1.185   1.733 -0.8698  0.6342  0.4235
11214TIP3    H155057   6.233   1.213   1.764  0.3492  0.0539 -2.3650
11214TIP3    H255058   6.103   1.266   1.709  0.7166  0.6389 -2.6805
11215TIP3   OH255059   3.012   2.431   2.347 -0.1486  0.0279 -0.7517
11215TIP3    H155060   2.919   2.431   2.327 -0.2154 -1.1044 -0.4842
11215TIP3    H255061   3.055   2.459   2.267 -0.6686 -0.3839 -1.1764
11216TIP3   OH255062   0.226   4.927   1.806  0.0935 -0.0000 -0.0879
11216TIP3    H155063   0.178   5.008   1.794 -2.2499 -1.3347 -0.0614
11216TIP3    H255064   0.169   4.860   1.768  2.0875 -1.5935 -0.3365
11217TIP3   OH255065   2.475   3.965   3.202  0.0934  0.1894  0.3252
11217TIP3    H155066   2.405   4.024   3.174  0.7748  0.2161 -1.4221
11217TIP3    H255067   2.551   4.022   3.215 -0.2425  0.1945  2.4561
11218TIP3   OH255068   1.224   1.949   1.791  0.1411 -0.2146 -0.4514
11218TIP3    H155069   1.217   1.987   1.879 -0.3945 -1.5841  0.1023
11218TIP3    H255070   1.134   1.929   1.766  0.5814 -3.4140  0.2939
11219TIP3   OH255071   2.901   1.612   0.795 -0.5646  0.3312  0.1444
11219TIP3    H155072   2.898   1.623   0.700  0.5957  2.7844  0.3579
11219TIP3    H255073   2.861   1.526   0.810  0.1525 -0.5538 -2.6226
11220TIP3   OH255074   0.126   5.034   3.060  0.0495  0.4700  0.0415
11220TIP3    H155075   0.145   5.081   3.141 -0.7727 -1.4476  1.3871
11220TIP3    H255076   0.184   4.958   3.062 -1.3421 -0.6221 -0.2171
11221TIP3   OH255077   0.463   2.103   1.947 -0.1704  0.4641 -0.1992
11221TIP3    H155078   0.420   2.052   1.878  1.4950  0.1023 -0.9948
11221TIP3    H255079   0.446   2.054   2.027 -2.2194  0.9416 -0.2947
11222TIP3   OH255080   3.325   5.332   0.494 -0.3271 -0.0627 -0.4849
11222TIP3    H155081   3.370   5.380   0.563  1.2326  0.4612 -1.8438
11222TIP3    H255082   3.386   5.262   0.470 -0.6886  0.0022 -1.6062
11223TIP3   OH255083   2.592   5.352  15.057  0.2866 -0.0653 -1.0387
11223TIP3    H155084   2.687   5.343  15.066 -0.1071 -1.8385  1.8409
11223TIP3    H255085   2.559   5.262  15.054 -1.2435  0.5284 -2.8942
11224TIP3   OH255086   1.195   1.985   3.399  0.8078  0.2834 -0.1209
11224TIP3    H155087   1.194   1.993   3.303  1.0598 -0.5992 -0.2025
11224TIP3    H255088   1.195   2.076   3.430 -0.1024  0.5701 -0.9412
11225TIP3   OH255089   6.010   6.492   0.883 -0.1719  0.1473 -0.5768
11225TIP3    H155090   6.078   6.547   0.845 -1.0587  0.9237 -1.0567
11225TIP3    H255091   6.033   6.403   0.854  2.0551  0.0409  1.3818
11226TIP3   OH255092   6.203   4.982  15.019  0.4165 -0.4706  0.0558
11226TIP3    H155093   6.238   5.058  15.064 -0.1748  0.6958 -1.3950
11226TIP3    H255094   6.271   4.956  14.958 -0.3390  0.4503 -1.2110
11227TIP3   OH255095   0.301   4.192   1.366  0.1503 -0.3891  0.1651
11227TIP3    H155096   0.304   4.154   1.278 -1.6944 -0.1295 -0.0369
11227TIP3    H255097   0.242   4.135   1.415  0.7096 -0.1986  1.0783
11228TIP3   OH255098   7.192   2.113   1.995 -0.3518  0.2974  0.0049
11228TIP3    H155099   7.206   2.192   1.943  0.0291  0.0112 -0.3279
11228TIP3    H255100   7.136   2.142   2.067  2.1015  1.5286  1.4924
11229TIP3   OH255101   1.934   1.933   3.744  0.0675 -0.0454  0.0970
11229TIP3    H155102   1.988   1.887   3.807  1.9312 -0.7472 -1.9590
11229TIP3    H255103   1.887   1.864   3.697  0.6879  0.2935 -1.0401
11230TIP3   OH255104   1.302   1.730   1.461  0.2409  0.3706 -0.2823
11230TIP3    H155105   1.366   1.660   1.460 -0.0175  0.1109  1.1591
11230TIP3    H255106   1.348   1.805   1.498  0.7437  1.2167 -2.5081
11231TIP3   OH255107   5.671   0.838   0.592 -0.3216  0.3746 -0.1005
11231TIP3    H155108   5.658   0.745   0.612 -4.0456  0.6430 -0.9289
11231TIP3    H255109   5.752   0.861   0.638  0.6679 -3.2393  0.1563
11232TIP3   OH255110   7.235   1.110   1.728 -0.3656  0.2388  0.2195
11232TIP3    H155111   7.227   1.128   1.821 -0.2944  2.3381 -0.1524
11232TIP3    H255112   7.149   1.132   1.691  0.1764  1.2823 -0.4690
11233TIP3   OH255113   0.465   1.259   1.124 -0.1581  0.6496 -0.2247
11233TIP3    H155114   0.528   1.232   1.191 -0.5410 -1.2056 -0.5850
11233TIP3    H255115   0.454   1.181   1.068  0.7000  2.3742 -2.8931
11234TIP3   OH255116   6.617   1.750   0.625  0.3340  0.0540 -0.5048
11234TIP3    H155117   6.646   1.811   0.558  0.8022 -1.7827 -2.0030
11234TIP3    H255118   6.656   1.782   0.706 -0.3302  2.3558 -1.0610
11235TIP3   OH255119   1.802   1.929   1.118 -0.5192 -0.1179  0.1579
11235TIP3    H155120   1.760   1.848   1.146 -1.1931 -0.0668 -0.6920
11235TIP3    H255121   1.887   1.929   1.162  0.2196 -2.1567 -1.2335
11236TIP3   OH255122   6.300   2.574  15.393 -0.1512  0.6000  0.3669
11236TIP3    H155123   6.301   2.509  15.323  0.4156  1.1070 -0.1071
11236TIP3    H255124   6.257   2.650  15.353 -1.2051  0.3687  1.0505
11237TIP3   OH255125   6.349   0.722   0.673 -0.5211  0.2728 -0.6460
11237TIP3    H155126   6.387   0.683   0.752  0.6693 -0.8812 -1.7523
11237TIP3    H255127   6.317   0.807   0.701  1.7526  0.7557  0.6487
11238TIP3   OH255128   1.549   0.734   1.271 -0.2979  0.9382 -0.0451
11238TIP3    H155129   1.558   0.646   1.234 -0.8225  0.8683 -0.0107
11238TIP3    H255130   1.456   0.744   1.288 -0.3628  1.8602 -0.9101
11239TIP3   OH255131   1.363   5.138  14.970 -0.0611 -0.1418  0.4981
11239TIP3    H155132   1.368   5.198  14.896 -0.8662 -0.5011  0.1463
11239TIP3    H255133   1.322   5.059  14.934  1.4474 -1.1016  0.8239
11240TIP3   OH255134   3.319   5.443   2.061 -0.1647  0.0111 -0.3704
11240TIP3    H155135   3.279   5.479   1.982 -1.2087  2.1326  1.0674
11240TIP3    H255136   3.413   5.448   2.044 -0.3823 -0.3168 -1.7859
11241TIP3   OH255137   2.551   5.863   2.510  0.0499  0.1332 -0.2775
11241TIP3    H155138   2.461   5.841   2.486 -0.4768  0.6682  1.2032
11241TIP3    H255139   2.578   5.792   2.568  0.1913  0.5951  0.2156
11242TIP3   OH255140   2.488   2.717   0.906  0.1539  0.4453  0.5097
11242TIP3    H155141   2.518   2.660   0.977 -0.4762 -1.0223 -0.3756
11242TIP3    H255142   2.392   2.713   0.911  0.1090 -0.1440 -0.8050
11243TIP3   OH255143   3.061   5.346   1.517 -0.1714  0.1120 -0.5666
11243TIP3    H155144   3.033   5.399   1.443  1.0268 -1.1171 -1.9212
11243TIP3    H255145   3.031   5.395   1.594 -4.0390 -0.0639 -1.8655
11244TIP3   OH255146   2.011   3.658   0.728  0.2284  0.0288  0.0467
11244TIP3    H155147   2.056   3.726   0.778  1.0311  0.8789 -1.7649
11244TIP3    H255148   2.078   3.624   0.668 -1.3414  0.9689 -2.3367
11245TIP3   OH255149   1.192   4.045   2.460 -0.1922 -0.4499 -0.0071
11245TIP3    H155150   1.119   4.028   2.520 -0.9331  0.5837 -0.5866
11245TIP3    H255151   1.269   4.014   2.507 -0.8354 -0.3003  1.1857
11246TIP3   OH255152   2.291   2.828  15.196 -0.3321 -0.5026 -0.1206
11246TIP3    H155153   2.222   2.779  15.243 -1.2014 -0.8041 -1.6860
11246TIP3    H255154   2.245   2.872  15.125  0.6190  1.8245  0.6760
11247TIP3   OH255155   2.786   4.210  13.270  0.2388  0.1869  0.0405
11247TIP3    H155156   2.871   4.244  13.299  1.2878 -1.9457 -0.4471
11247TIP3    H255157   2.733   4.288  13.255  1.6103  1.5092  1.8374
11248TIP3   OH255158   2.467   4.515   2.519  0.1879  0.3796  0.5047
11248TIP3    H155159   2.376   4.538   2.499 -0.2162  0.2406  2.1307
11248TIP3    H255160   2.508   4.502   2.433 -1.4471 -0.0404 -0.2317
11249TIP3   OH255161   2.098   5.295  15.938 -0.2251 -0.1143  0.5666
11249TIP3    H155162   2.072   5.208  15.971 -0.8893  0.0384  0.4386
11249TIP3    H255163   2.180   5.313  15.984 -0.0822 -0.8100  0.6017
11250TIP3   OH255164   3.038   0.491  14.317 -0.1365  0.3077 -0.8822
11250TIP3    H155165   3.077   0.451  14.239 -1.4371 -0.8495 -0.9706
11250TIP3    H255166   3.112   0.522  14.368  0.7715  0.3592 -2.2019
11251TIP3   OH255167   1.114   0.131   0.035  0.3831  0.2870  0.1311
11251TIP3    H155168   1.195   0.147   0.083 -0.5980 -0.5156  2.0977
11251TIP3    H255169   1.141   0.081  -0.042  1.9030  1.0898  0.1229
11252TIP3   OH255170   1.345   1.477   3.769 -0.3083  0.0891 -0.0194
11252TIP3    H155171   1.400   1.456   3.845  0.9507  0.5085 -0.7878
11252TIP3    H255172   1.395   1.545   3.723 -0.5558 -0.9248 -1.7885
11253TIP3   OH255173   3.044   2.852   1.669 -0.0575 -0.4491  0.0404
11253TIP3    H155174   2.979   2.801   1.718  0.5886 -2.0379 -0.7439
11253TIP3    H255175   3.026   2.943   1.693 -2.1474 -0.9290  0.3366
11254TIP3   OH255176   0.404   3.110  15.437 -0.0354 -0.0965  0.3839
11254TIP3    H155177   0.488   3.071  15.413 -0.8891 -1.0975 -1.0587
11254TIP3    H255178   0.350   3.099  15.359 -2.1828 -1.3747  1.9975
11255TIP3   OH255179   4.067   3.913   0.038  0.1558 -0.5204  0.3362
11255TIP3    H155180   4.098   3.976  -0.028  0.1537  0.6157  1.3891
11255TIP3    H255181   4.015   3.966   0.099  3.2230 -0.7829  3.3590
11256TIP3   OH255182   4.275   2.840  15.245  0.2882 -0.7298 -0.2172
11256TIP3    H155183   4.240   2.751  15.237  1.3771 -1.0503 -1.5491
11256TIP3    H255184   4.246   2.885  15.166 -1.1301  0.4448  0.9167
11257TIP3   OH255185   1.843   4.244  15.626 -0.1987 -0.0285 -0.7197
11257TIP3    H155186   1.752   4.274  15.616 -0.0473 -0.4275 -3.5485
11257TIP3    H255187   1.874   4.290  15.704 -2.3592  1.3088 -0.5973
11258TIP3   OH255188   3.928   1.889   1.709  0.4190  0.0520  0.3156
11258TIP3    H155189   3.832   1.888   1.708  0.4214 -0.0752 -0.1132
11258TIP3    H255190   3.952   1.842   1.788  0.1469 -2.3600 -0.9926
11259TIP3   OH255191   2.865   4.369   3.439  0.4728  0.1510  0.1154
11259TIP3    H155192   2.892   4.281   3.412  0.3633  0.3214 -0.5627
11259TIP3    H255193   2.946   4.410   3.469  0.8495  0.3981 -1.1901
11260TIP3   OH255194   0.659   1.178   0.086 -0.3977  0.5108  0.0662
11260TIP3    H155195   0.680   1.086   0.066 -1.9878  0.3640 -1.0564
11260TIP3    H255196   0.732   1.227   0.048  0.4804 -0.2874  0.6917
11261TIP3   OH255197   4.852   4.044   0.497  0.2777 -0.5185 -0.2050
11261TIP3    H155198   4.836   3.981   0.427 -1.3385  1.5056 -1.7212
11261TIP3    H255199   4.790   4.020   0.566  0.3234 -1.1462 -0.3776
11262TIP3   OH255200   1.731   3.571   2.642  0.0357  0.2360 -0.3744
11262TIP3    H155201   1.788   3.571   2.565  0.2769 -2.2408 -0.2351
11262TIP3    H255202   1.788   3.546   2.715 -1.0878 -1.9376 -0.1777
11263TIP3   OH255203   3.518   3.838   3.750  0.2631  0.0277  0.4595
11263TIP3    H155204   3.495   3.892   3.826 -0.0162  1.7320 -0.8096
11263TIP3    H255205   3.454   3.767   3.751  0.1221  0.1528  1.6765
11264TIP3   OH255206   2.980   2.894   0.200  0.3942  0.4185  0.1220
11264TIP3    H155207   2.922   2.896   0.123  1.4505  2.0991 -0.6492
11264TIP3    H255208   2.936   2.835   0.261 -0.4258 -1.0279 -1.8080
11265TIP3   OH255209   3.254   3.322   2.045  0.3426  0.1308  0.5967
11265TIP3    H155210   3.199   3.397   2.067 -1.3659 -0.7922 -0.3746
11265TIP3    H255211   3.267   3.329   1.950 -0.1960 -1.0052  0.4262
11266TIP3   OH255212   4.160   2.523   0.396 -0.0084 -0.0656  0.3795
11266TIP3    H155213   4.143   2.465   0.471  0.4215 -0.1565  0.4094
11266TIP3    H255214   4.074   2.555   0.371  0.0012  1.2526  1.9608
11267TIP3   OH255215   2.881   3.339   1.779 -0.3047  0.1961 -0.6341
11267TIP3    H155216   2.856   3.347   1.687 -1.9969 -0.5336 -0.2493
11267TIP3    H255217   2.820   3.395   1.826  0.6201  0.6488  0.0491
11268TIP3   OH255218   1.107   4.925   2.834  0.1836  0.3582  0.0425
11268TIP3    H155219   1.059   4.996   2.792  1.8328  0.7850 -1.1629
11268TIP3    H255220   1.180   4.968   2.879  1.5831 -0.6131 -1.2534
11269TIP3   OH255221   3.593   2.929   1.292 -0.5353 -0.3547 -0.0132
11269TIP3    H155222   3.684   2.907   1.312 -0.5072 -0.9678 -0.8253
11269TIP3    H255223   3.550   2.846   1.274 -1.4184 -0.1306  0.9716
11270TIP3   OH255224   2.611   6.335  15.335  0.2421  0.3488 -0.2015
11270TIP3    H155225   2.666   6.270  15.292  1.4718  1.8407 -0.9550
11270TIP3    H255226   2.672   6.386  15.389 -0.4800  1.6621 -0.6124
11271TIP3   OH255227   2.038   0.149   1.182  0.4789  0.0285 -0.2491
11271TIP3    H155228   2.013   0.118   1.269  0.6051 -0.2155 -0.2994
11271TIP3    H255229   2.088   0.228   1.197 -0.1506  0.4108 -0.1345
11272TIP3   OH255230   5.178   3.884   0.705  0.1031  0.3935 -0.4046
11272TIP3    H155231   5.187   3.977   0.682  2.8103 -0.0118 -1.2338
11272TIP3    H255232   5.179   3.882   0.801 -0.5217  1.2603 -0.3781
11273TIP3   OH255233   5.205   6.033  14.540 -0.1713 -0.2836 -0.7379
11273TIP3    H155234   5.199   6.072  14.627 -2.2111  0.9929 -1.4268
11273TIP3    H255235   5.286   5.982  14.542 -0.1251 -0.1426  1.8471
11274TIP3   OH255236   2.934   0.686   0.677 -0.0001  0.2581 -0.0866
11274TIP3    H155237   2.891   0.663   0.759  2.5373 -2.0266  0.6612
11274TIP3    H255238   3.016   0.728   0.703  0.6643 -0.1686 -1.4131
11275TIP3   OH255239   3.922   4.844  15.746  0.1159 -0.0375 -0.0240
11275TIP3    H155240   3.918   4.938  15.730  1.2199 -0.2121 -1.4246
11275TIP3    H255241   3.963   4.836  15.832  2.0662  0.7106 -0.8639
11276TIP3   OH255242   3.778   2.511   0.554  0.2318  0.2962 -0.2054
11276TIP3    H155243   3.821   2.426   0.567  0.1621  0.3742  0.5151
11276TIP3    H255244   3.695   2.503   0.599  1.4749  1.7828  2.4634
11277TIP3   OH255245   3.357   7.275   3.025 -0.1551 -0.5996 -0.1697
11277TIP3    H155246   3.338   7.290   3.117 -0.1175 -1.9666  0.0690
11277TIP3    H255247   3.272   7.269   2.983 -0.1728 -0.0230 -0.2227
11278TIP3   OH255248   3.532   3.234   2.328  0.2255 -0.1311 -0.3002
11278TIP3    H155249   3.483   3.257   2.407 -2.2088  1.4417 -2.1626
11278TIP3    H255250   3.619   3.212   2.359 -0.8132 -0.0554  2.8638
11279TIP3   OH255251   3.513   2.967   3.049 -0.1833  0.2446  0.0840
11279TIP3    H155252   3.425   3.006   3.052 -0.1644  0.1776  2.5189
11279TIP3    H255253   3.569   3.037   3.016 -1.0957  0.3705 -1.2360
11280TIP3   OH255254   2.621   4.977  15.967 -0.1629 -0.1583 -0.2517
11280TIP3    H155255   2.622   4.890  16.005  2.7790 -1.1233 -2.3302
11280TIP3    H255256   2.563   4.970  15.892  0.0264 -0.3328 -0.3822
11281TIP3   OH255257   2.833   3.698   1.050 -0.4451 -0.3619  0.0187
11281TIP3    H155258   2.899   3.655   1.105 -1.4368 -0.6861  0.9789
11281TIP3    H255259   2.843   3.658   0.964 -1.1077 -2.2866  0.8041
11282TIP3   OH255260   1.797   2.371   4.956 -0.3196  0.5132 -0.3005
11282TIP3    H155261   1.735   2.306   4.989  1.0387 -0.1857  0.9236
11282TIP3    H255262   1.793   2.442   5.020 -2.2714  1.9567 -1.9689
11283TIP3   OH255263   4.392   3.208   1.553 -0.5184  0.0797 -0.0994
11283TIP3    H155264   4.435   3.125   1.573  0.3780  1.2031  2.8418
11283TIP3    H255265   4.453   3.253   1.495  0.6890  0.1927  1.2354
11284TIP3   OH255266   4.763   3.656   2.537 -0.1858 -0.2695  0.0639
11284TIP3    H155267   4.721   3.571   2.549 -0.6486 -0.5048 -2.7504
11284TIP3    H255268   4.693   3.713   2.505  0.4598  0.7558  0.4491
11285TIP3   OH255269   4.348   0.916  14.024  0.0853 -0.4684 -0.2464
11285TIP3    H155270   4.403   0.993  14.012 -0.5737 -0.0400 -0.4817
11285TIP3    H255271   4.401   0.858  14.080 -0.1274  0.8803  1.3819
11286TIP3   OH255272   3.484   2.231   0.156  0.1103  0.3031  0.6483
11286TIP3    H155273   3.442   2.148   0.178 -2.7128  1.7647  0.9767
11286TIP3    H255274   3.474   2.238   0.061 -1.0756  0.9754  0.8094
11287TIP3   OH255275   3.859   6.056   1.870 -0.8172  0.3115 -0.2694
11287TIP3    H155276   3.817   6.023   1.791  0.0725 -0.2411 -0.5198
11287TIP3    H255277   3.868   6.150   1.856 -1.6981  0.3832 -0.3415
11288TIP3   OH255278   1.602   4.775  13.538 -0.2423  0.8607 -0.0937
11288TIP3    H155279   1.632   4.865  13.548 -0.9686  1.1510 -0.4706
11288TIP3    H255280   1.556   4.756  13.620 -1.5480  1.4116 -0.6890
11289TIP3   OH255281   3.469   2.413  15.043  0.0557  0.0046  0.1354
11289TIP3    H155282   3.559   2.447  15.040  0.1745 -0.3645 -0.9369
11289TIP3    H255283   3.434   2.433  14.956 -1.3604  1.3388  0.9785
11290TIP3   OH255284   1.843   3.802  14.414 -0.4518  0.1290 -0.0649
11290TIP3    H155285   1.831   3.710  14.438 -1.0524  0.4146  0.7582
11290TIP3    H255286   1.806   3.851  14.488  0.0014  1.0325 -0.4282
11291TIP3   OH255287   6.751   2.132  14.951 -0.4422 -0.6643  0.8345
11291TIP3    H155288   6.687   2.063  14.938 -1.9911  0.7784  0.6607
11291TIP3    H255289   6.835   2.087  14.954 -1.2993 -2.4154 -0.6158
11292TIP3   OH255290   1.600   3.007  15.017 -0.4881 -0.0399  0.0362
11292TIP3    H155291   1.561   2.973  15.097  2.1323  0.3003  1.5213
11292TIP3    H255292   1.542   3.079  14.990 -2.1790 -1.0898  0.7880
11293TIP3   OH255293   2.527   3.202  13.867 -0.2504 -0.5225 -0.0174
11293TIP3    H155294   2.620   3.192  13.845  0.6462  0.3677  3.1609
11293TIP3    H255295   2.495   3.112  13.872  0.3855 -0.8347 -1.2224
11294TIP3   OH255296   4.334   4.145   3.254 -0.6432 -0.1499  0.3514
11294TIP3    H155297   4.302   4.059   3.278 -1.1515 -0.2510 -0.6591
11294TIP3    H255298   4.377   4.132   3.169 -0.2750  0.4945  0.4327
11295TIP3   OH255299   4.216   1.958   2.009  0.4728  0.4079 -0.3130
11295TIP3    H155300   4.153   1.946   2.080 -0.3030 -0.2510 -1.0950
11295TIP3    H255301   4.216   1.875   1.962  3.4655 -0.2994  0.8756
11296TIP3   OH255302   2.417   1.253  15.824 -0.2118 -0.1917 -0.1449
11296TIP3    H155303   2.479   1.324  15.836 -1.0717  0.3331  1.3999
11296TIP3    H255304   2.446   1.207  15.746  0.6650  1.5267 -0.8304
11297TIP3   OH255305   0.591   3.142   1.472 -0.7036 -0.6582 -0.3707
11297TIP3    H155306   0.552   3.090   1.542  1.0184 -0.9518  0.3852
11297TIP3    H255307   0.629   3.078   1.413  0.5778 -0.3015  0.0578
11298TIP3   OH255308   3.452   3.766   3.434 -0.3392  0.2823  0.3104
11298TIP3    H155309   3.525   3.713   3.466  0.0730 -0.4547 -1.7789
11298TIP3    H255310   3.493   3.835   3.383 -1.0679  0.3706 -0.1558
11299TIP3   OH255311   1.030   5.442  15.337  0.1634  0.0734 -0.4226
11299TIP3    H155312   1.107   5.426  15.282 -0.6101 -2.4011 -0.8725
11299TIP3    H255313   0.959   5.461  15.275  0.2040  1.3992 -0.0634
11300TIP3   OH255314   1.652   2.978   3.276  0.2350  0.4569 -0.5265
11300TIP3    H155315   1.691   2.910   3.332  0.2136  3.1750  2.9149
11300TIP3    H255316   1.723   3.040   3.260 -0.3821  0.8742 -1.7229
11301TIP3   OH255317   0.338   1.948   0.447  0.7452 -0.2205 -0.4484
11301TIP3    H155318   0.331   1.998   0.529  1.9802 -1.0875  0.2022
11301TIP3    H255319   0.274   1.877   0.458  2.2787 -1.4780  0.6261
11302TIP3   OH255320   1.856   2.787  15.998 -0.1275  0.2259  0.0900
11302TIP3    H155321   1.906   2.766  16.077  0.9794 -0.2448 -0.7100
11302TIP3    H255322   1.797   2.856  16.025  0.6135  0.4520  1.2017
11303TIP3   OH255323   4.000   3.574   1.992  0.2123  0.2329 -0.4411
11303TIP3    H155324   4.037   3.596   1.907 -0.6318  1.7525 -0.4344
11303TIP3    H255325   4.067   3.601   2.055 -0.0957  1.1970 -0.5205
11304TIP3   OH255326   2.550   0.001  14.920  0.0166  0.0739 -0.8908
11304TIP3    H155327   2.481   0.046  14.871  0.7128  1.3068 -0.7528
11304TIP3    H255328   2.535   0.025  15.011 -1.3005 -2.2541 -0.4592
11305TIP3   OH255329   4.735   3.601  15.549 -0.1775  0.2880  0.1542
11305TIP3    H155330   4.680   3.672  15.582 -0.7648 -0.9143  1.8298
11305TIP3    H255331   4.730   3.533  15.616  0.7264 -1.1737 -1.2141
11306TIP3   OH255332   3.200   1.512   0.853  0.3532  0.4909 -0.6065
11306TIP3    H155333   3.262   1.581   0.876 -1.3586  1.5342  1.0720
11306TIP3    H255334   3.127   1.558   0.812 -1.1026 -0.1997  1.1161
11307TIP3   OH255335   1.249   1.771  15.756 -0.3426  0.5274 -0.4346
11307TIP3    H155336   1.284   1.715  15.826 -0.5721 -0.2748 -0.9568
11307TIP3    H255337   1.263   1.860  15.788  1.1665  0.2094 -0.1400
11308TIP3   OH255338   3.086   4.388   0.484 -0.1905 -0.5932  0.2526
11308TIP3    H155339   3.178   4.383   0.512 -0.0921 -0.2296  0.0012
11308TIP3    H255340   3.091   4.401   0.389 -0.4493  2.2288  0.5835
11309TIP3   OH255341   4.170   1.988   0.962  0.6728 -0.0058  0.2704
11309TIP3    H155342   4.128   2.024   0.883 -1.2801  0.6273  1.5616
11309TIP3    H255343   4.206   2.065   1.006  1.3833 -0.3150  0.2472
11310TIP3   OH255344   2.454   5.103  15.675 -0.3191 -0.4272  0.2114
11310TIP3    H155345   2.412   5.189  15.677 -0.4616 -0.5041  0.4945
11310TIP3    H255346   2.546   5.122  15.656 -0.5292 -0.2757 -0.6892
11311TIP3   OH255347   0.130   1.922  14.179  0.6642  0.3871 -0.1011
11311TIP3    H155348   0.112   1.907  14.086  1.4547  1.1129 -0.3812
11311TIP3    H255349   0.199   1.989  14.179  0.3726  0.6936  1.0147
11312TIP3   OH255350   0.871   1.272   2.126  1.0102 -0.2314 -0.2535
11312TIP3    H155351   0.790   1.276   2.074  1.3330 -1.6991 -0.8803
11312TIP3    H255352   0.940   1.300   2.066  1.1482 -0.2239 -0.0920
11313TIP3   OH255353   1.473   2.926  13.844 -0.6155 -0.1925  0.3435
11313TIP3    H155354   1.561   2.963  13.830 -0.0948 -0.5046  2.5140
11313TIP3    H255355   1.430   2.990  13.902 -1.0930 -1.0294  0.9221
11314TIP3   OH255356   0.381   7.256   2.994  0.7832 -1.2187  0.4940
11314TIP3    H155357   0.372   7.166   3.026  0.9276 -0.5163  2.5449
11314TIP3    H255358   0.447   7.295   3.050 -0.0884  0.5087  0.3503
11315TIP3   OH255359   2.805   1.430  14.510  0.3926  0.1492 -0.1636
11315TIP3    H155360   2.876   1.451  14.570  2.4357 -0.5697 -2.2286
11315TIP3    H255361   2.797   1.335  14.514 -0.0972  0.1821 -0.3270
11316TIP3   OH255362   4.620   3.360   0.536  0.3526  0.1692  0.0512
11316TIP3    H155363   4.676   3.288   0.567  1.2490  0.7252 -0.2457
11316TIP3    H255364   4.567   3.383   0.612  2.3313  1.3178  1.1330
11317TIP3   OH255365   2.109   1.203   0.683  0.1586  0.6488  0.0898
11317TIP3    H155366   2.082   1.190   0.774 -1.6694 -0.1157 -0.5423
11317TIP3    H255367   2.112   1.114   0.647 -0.7244  1.0683 -1.0332
11318TIP3   OH255368   1.948   3.208   0.985  0.5190 -0.0655 -0.0235
11318TIP3    H155369   1.889   3.245   0.920  2.4128  1.6556 -0.8179
11318TIP3    H255370   1.909   3.231   1.070  0.7695  2.3270 -0.5197
11319TIP3   OH255371   1.508   3.542  14.301  0.5582  0.6641  0.2304
11319TIP3    H155372   1.452   3.595  14.244  0.4309  0.6089  0.3032
11319TIP3    H255373   1.474   3.557  14.389 -0.7174 -1.0571  0.0543
11320TIP3   OH255374   1.410   1.625  15.002 -0.2035  0.3947  0.4525
11320TIP3    H155375   1.382   1.587  15.085  0.4601 -0.0209  0.4897
11320TIP3    H255376   1.332   1.668  14.968 -0.6727 -0.0535  0.9473
11321TIP3   OH255377   2.295   2.095  15.684  0.3257  0.0371  1.2086
11321TIP3    H155378   2.309   2.053  15.600  0.5500  0.0590  1.2363
11321TIP3    H255379   2.258   2.026  15.740 -4.3187  1.1683 -0.2317
11322TIP3   OH255380   3.404   3.841   2.894 -0.2287 -1.1867 -0.4191
11322TIP3    H155381   3.450   3.901   2.953  0.4202 -2.2999  0.2270
11322TIP3    H255382   3.349   3.897   2.841 -0.6087 -0.1369  1.0681
11323TIP3   OH255383   2.334   2.240   3.586 -0.5636  0.0549 -0.4805
11323TIP3    H155384   2.306   2.156   3.551  1.7882 -1.0435  0.1834
11323TIP3    H255385   2.274   2.258   3.658  0.4109 -2.2548  0.9417
11324TIP3   OH255386   2.703   2.867   0.789  0.1696 -0.3148  0.3186
11324TIP3    H155387   2.636   2.811   0.829 -0.0568 -0.4076 -0.1808
11324TIP3    H255388   2.653   2.935   0.744  0.2572 -1.9615 -2.4328
11325TIP3   OH255389   0.716   1.715  14.595 -0.1533  0.2350  0.0769
11325TIP3    H155390   0.703   1.810  14.594 -0.2846  0.2145 -0.9790
11325TIP3    H255391   0.628   1.679  14.583 -0.0513 -0.0110  0.0682
11326TIP3   OH255392   2.200   1.984   3.088 -0.0554 -0.0305 -0.3220
11326TIP3    H155393   2.225   1.990   2.996  1.7188  2.0412  0.2777
11326TIP3    H255394   2.155   2.066   3.106  1.5939  0.5519  1.2300
11327TIP3   OH255395   3.121   2.797  14.958 -0.0100  0.5386  0.3912
11327TIP3    H155396   3.130   2.886  14.993 -0.1064  0.1659  1.4008
11327TIP3    H255397   3.074   2.750  15.027  1.3343 -0.6553  0.5168
11328TIP3   OH255398   2.523   5.711   1.212 -0.1011 -0.1785  0.3803
11328TIP3    H155399   2.463   5.728   1.285 -0.1496 -2.1317  0.8224
11328TIP3    H255400   2.608   5.699   1.253  0.2816  0.9382 -0.0944
11329TIP3   OH255401   2.227   1.183   0.036 -0.3202 -0.0656  0.6663
11329TIP3    H155402   2.301   1.242   0.023 -0.4322 -0.1756 -0.5392
11329TIP3    H255403   2.265   1.095   0.032 -0.4741 -0.1167  0.2929
11330TIP3   OH255404   6.086   2.543   2.974 -0.5791  0.0700  0.1262
11330TIP3    H155405   6.068   2.602   3.048 -0.2064  1.1006 -0.5920
11330TIP3    H255406   6.101   2.602   2.900 -0.8676 -0.9535 -0.7567
11331TIP3   OH255407   3.002   3.104   1.776 -0.5391 -0.1289  0.2419
11331TIP3    H155408   3.034   3.080   1.863  0.2983  0.5997  0.1342
11331TIP3    H255409   2.953   3.185   1.790 -1.8477 -0.9167  0.3066
11332TIP3   OH255410   1.873   4.088  15.942 -0.1157  0.0069  0.6255
11332TIP3    H155411   1.845   4.176  15.917  0.7212  0.2233  0.4471
11332TIP3    H255412   1.798   4.052  15.990 -1.0789  0.2205 -0.6781
11333TIP3   OH255413   2.206   2.432   1.261  0.5579 -0.4643 -0.1136
11333TIP3    H155414   2.180   2.498   1.197  0.6577 -0.9139 -0.6148
11333TIP3    H255415   2.220   2.482   1.342 -0.7677 -0.0724 -0.1149
11334TIP3   OH255416   1.705   0.907   2.449  0.0741  0.5654  0.0768
11334TIP3    H155417   1.770   0.841   2.424  0.0475  1.5455 -2.7652
11334TIP3    H255418   1.635   0.856   2.490  0.9329 -0.9525 -0.2807
11335TIP3   OH255419   1.027   3.383  15.184 -0.1693 -0.6842 -0.5010
11335TIP3    H155420   1.032   3.374  15.088  2.0416  1.2243 -0.6109
11335TIP3    H255421   0.981   3.466  15.198  0.4675 -0.4227  0.0599
11336TIP3   OH255422   4.421   5.078   3.587 -0.2034 -0.0481  0.2257
11336TIP3    H155423   4.488   5.011   3.587  0.3189  0.4662  1.1107
11336TIP3    H255424   4.339   5.031   3.569  0.1674 -0.9050  0.7857
11337TIP3   OH255425   1.164   2.117   0.633  0.2768 -0.3532 -0.8196
11337TIP3    H155426   1.153   2.167   0.552  1.5383 -0.5744 -1.1298
11337TIP3    H255427   1.257   2.096   0.636 -0.3391 -3.2845 -1.0431
11338TIP3   OH255428   2.302   4.083   2.826  0.1119 -0.1792  0.0288
11338TIP3    H155429   2.217   4.099   2.866 -0.1415  0.3873 -0.7276
11338TIP3    H255430   2.300   3.991   2.801 -0.1430 -0.2536  0.3150
11339TIP3   OH255431   4.222   2.448  15.213 -0.0166 -0.0844 -0.2842
11339TIP3    H155432   4.254   2.361  15.238  2.8696  1.3143  1.0528
11339TIP3    H255433   4.288   2.481  15.153 -0.0140  2.0186  0.8475
11340TIP3   OH255434   4.275   3.893   3.346 -0.1710 -0.4925  0.5510
11340TIP3    H155435   4.247   3.904   3.437 -0.8864 -0.4725  0.3310
11340TIP3    H255436   4.262   3.801   3.327 -2.3378 -0.0361 -0.2829
11341TIP3   OH255437   2.620   0.571  13.751 -0.0942 -0.6975  0.3816
11341TIP3    H155438   2.681   0.640  13.726 -1.8968  1.1929  1.0608
11341TIP3    H255439   2.664   0.525  13.822  1.9554 -1.5448 -1.3490
11342TIP3   OH255440   0.516   3.132   0.778  0.4011  0.1472 -0.2851
11342TIP3    H155441   0.490   3.155   0.867 -1.8387  0.9717 -1.1140
11342TIP3    H255442   0.540   3.040   0.783 -0.3538  0.0059  1.0491
11343TIP3   OH255443   3.760   3.463   1.123 -0.3618 -0.4064  0.3511
11343TIP3    H155444   3.702   3.432   1.054 -1.4854 -1.0494  1.5436
11343TIP3    H255445   3.788   3.383   1.168  0.6318 -0.0246  0.4228
11344TIP3   OH255446   4.267   5.468   1.712 -0.3673  0.3268 -0.1986
11344TIP3    H155447   4.307   5.520   1.782  0.1594 -0.4083  0.0482
11344TIP3    H255448   4.174   5.466   1.735 -0.5432  1.9788 -0.7355
11345TIP3   OH255449   6.852   5.727  15.421  0.2906  0.0046  0.5424
11345TIP3    H155450   6.934   5.743  15.373 -1.1394  0.7067 -1.7377
11345TIP3    H255451   6.816   5.648  15.380 -1.7616  1.5414 -0.6821
11346TIP3   OH255452   1.821   5.652   3.484 -0.3140  0.2815 -0.4690
11346TIP3    H155453   1.907   5.650   3.442 -0.6725  0.4176 -1.2114
11346TIP3    H255454   1.831   5.715   3.556  0.7860 -1.2433  0.7511
11347TIP3   OH255455   4.449   4.244   0.145  0.4719 -0.2918  0.0326
11347TIP3    H155456   4.504   4.217   0.072 -0.4167 -0.3575 -0.6149
11347TIP3    H255457   4.455   4.172   0.208 -0.9876 -1.5061 -1.1962
11348TIP3   OH255458   4.956   4.955   2.286  0.3552 -0.4892 -0.0917
11348TIP3    H155459   4.981   4.986   2.373  2.1985 -1.0067 -0.4042
11348TIP3    H255460   4.972   4.861   2.288 -0.9345 -0.7205 -0.5505
11349TIP3   OH255461   3.450   2.172   1.152 -0.2608  0.1332  0.1845
11349TIP3    H155462   3.422   2.127   1.232  0.2871 -1.8618 -0.7094
11349TIP3    H255463   3.544   2.153   1.145  0.6181  3.7024  1.1989
11350TIP3   OH255464   1.697   2.840   2.647  0.4528 -0.0184 -0.0502
11350TIP3    H155465   1.632   2.911   2.644  0.2358 -0.2268 -0.2586
11350TIP3    H255466   1.778   2.881   2.618  0.5448  0.3866  0.7550
11351TIP3   OH255467   2.873   2.957   0.498  0.0357 -0.1565  0.1803
11351TIP3    H155468   2.853   3.042   0.460 -0.4462  0.6581  2.1837
11351TIP3    H255469   2.797   2.936   0.552  0.8548 -1.0907  1.0005
11352TIP3   OH255470   2.799   4.060   4.244 -0.5664 -0.6240  0.3339
11352TIP3    H155471   2.832   4.140   4.203 -1.3126  0.0420  1.0037
11352TIP3    H255472   2.709   4.052   4.212  0.3405 -2.6838 -1.8522
11353TIP3   OH255473   3.220   2.220  15.604  0.1341  0.0614  0.4971
11353TIP3    H155474   3.165   2.216  15.526  0.2522  3.1168  0.2028
11353TIP3    H255475   3.237   2.128  15.626 -4.1842 -0.9700 -0.0004
11354TIP3   OH255476   2.524   3.291   0.917 -0.3999  0.7540  0.0036
11354TIP3    H155477   2.432   3.267   0.920 -0.8005  2.0656 -1.0776
11354TIP3    H255478   2.548   3.306   1.009 -1.1395 -0.0182  0.3294
11355TIP3   OH255479   3.357   4.087   4.961  0.6626 -0.4821  0.3835
11355TIP3    H155480   3.415   4.016   4.988  1.8590 -0.5288 -2.2101
11355TIP3    H255481   3.366   4.092   4.866 -0.6442  2.0649  0.3309
11356TIP3   OH255482   2.537   1.380  14.900  0.3726  0.2510  0.3287
11356TIP3    H155483   2.608   1.416  14.953 -0.0535 -0.2396  1.2570
11356TIP3    H255484   2.458   1.397  14.951 -0.4293  2.4638 -1.5660
11357TIP3   OH255485   4.930   2.992   1.106  0.2423  0.1532  0.3287
11357TIP3    H155486   4.984   2.985   1.185  1.8283 -0.6670 -0.8015
11357TIP3    H255487   4.932   2.905   1.068 -0.3838  0.5835 -0.7090
11358TIP3   OH255488   3.182   0.877   0.658  0.0645  0.5972 -0.5259
11358TIP3    H155489   3.242   0.803   0.655 -0.1623  0.2593  1.9874
11358TIP3    H255490   3.235   0.952   0.631  0.9949 -0.0537 -0.5255
11359TIP3   OH255491   2.809   5.080   0.559 -0.3622 -0.4869  0.8843
11359TIP3    H155492   2.882   5.114   0.610 -1.7165  0.7017  2.1091
11359TIP3    H255493   2.826   4.986   0.551  1.3436 -0.2009  1.0431
11360TIP3   OH255494   3.010   7.290  15.092  0.1821 -0.2985 -0.2293
11360TIP3    H155495   2.956   7.281  15.014 -1.4440 -1.9967  1.0590
11360TIP3    H255496   3.098   7.305  15.058 -0.7806  0.7892 -2.3601
11361TIP3   OH255497   3.865   3.282   1.278  0.2306  0.1811  0.1291
11361TIP3    H155498   3.907   3.213   1.227 -0.1006  0.6973 -0.8605
11361TIP3    H255499   3.880   3.258   1.369  1.1464 -0.5642 -0.2165
11362TIP3   OH255500   3.081   2.064   1.117  0.8727  0.6020  0.5808
11362TIP3    H155501   3.035   1.980   1.106  0.0988  1.1633 -0.6077
11362TIP3    H255502   3.141   2.049   1.190  1.6775 -1.4055 -0.4510
11363TIP3   OH255503   3.949   2.288   2.215 -0.1063 -0.4195 -0.5204
11363TIP3    H155504   4.038   2.277   2.248 -0.0493 -0.5253 -0.7061
11363TIP3    H255505   3.939   2.383   2.206 -0.7576 -0.2831  1.5145
11364TIP3   OH255506   4.599   2.017  15.187  0.1128 -0.1277 -0.0285
11364TIP3    H155507   4.637   1.994  15.102 -1.7615 -0.8532 -0.7102
11364TIP3    H255508   4.521   2.069  15.165 -0.5322 -0.5349  1.2229
11365TIP3   OH255509   2.688   3.405   2.976 -0.4030 -0.4420  0.0923
11365TIP3    H155510   2.692   3.359   3.060 -0.1333  1.7149  1.3023
11365TIP3    H255511   2.632   3.481   2.993 -0.4731 -0.0562 -1.7415
11366TIP3   OH255512   1.660   3.629  15.270 -0.4768 -0.1789 -0.2112
11366TIP3    H155513   1.686   3.588  15.352 -0.1969  0.9241  0.2639
11366TIP3    H255514   1.603   3.564  15.227 -0.0757 -1.0266  0.5330
11367TIP3   OH255515   4.989   5.498   3.067 -0.0428 -0.5884  0.4822
11367TIP3    H155516   5.016   5.550   3.143  1.4489 -0.6863  0.0338
11367TIP3    H255517   5.035   5.415   3.078  0.5184 -0.4535 -0.7299
11368TIP3   OH255518   3.011   3.380  15.659 -0.5642  0.0366  0.0818
11368TIP3    H155519   3.086   3.390  15.718 -0.0641  0.3507 -0.6016
11368TIP3    H255520   3.049   3.381  15.572 -1.2574 -0.8498 -0.2431
11369TIP3   OH255521   1.519   5.640   0.759 -0.3860  0.2137 -0.3785
11369TIP3    H155522   1.569   5.692   0.695  1.6860 -1.4009 -0.1056
11369TIP3    H255523   1.525   5.690   0.840  1.8622 -0.5546 -0.0394
11370TIP3   OH255524   3.876   4.942   2.016 -0.7811  0.3773  0.1514
11370TIP3    H155525   3.822   4.864   2.002  1.5722 -1.3481  0.2191
11370TIP3    H255526   3.826   4.997   2.075 -2.5138 -1.0780  0.0697
11371TIP3   OH255527   3.384   4.478   3.678 -0.2522  0.4779 -0.1057
11371TIP3    H155528   3.346   4.560   3.645 -0.2768  0.0755 -1.0867
11371TIP3    H255529   3.421   4.502   3.763 -1.5649  1.1745  0.2873
11372TIP3   OH255530   2.345   1.194   3.142  0.0751  0.0818 -0.1967
11372TIP3    H155531   2.391   1.109   3.143  2.3230  1.2102 -1.8126
11372TIP3    H255532   2.300   1.197   3.226  1.0167 -2.1644  0.4563
11373TIP3   OH255533   1.568   4.777   4.743 -0.1914  0.0148  0.6895
11373TIP3    H155534   1.580   4.839   4.815 -1.1231 -0.5233  1.3219
11373TIP3    H255535   1.629   4.706   4.763  0.3205  0.3551  0.3712
11374TIP3   OH255536   2.301   5.699  15.889 -0.4738 -0.3445  0.2065
11374TIP3    H155537   2.308   5.762  15.817 -0.5135 -0.7194 -0.1292
11374TIP3    H255538   2.209   5.671  15.887 -0.1310 -1.4234 -0.5075
11375TIP3   OH255539   2.235   4.393   1.003  0.4126  0.1175 -0.1274
11375TIP3    H155540   2.270   4.308   1.027  1.7717  0.5895 -0.3747
11375TIP3    H255541   2.157   4.403   1.056  0.8672 -0.8023  0.7300
11376TIP3   OH255542   3.320   5.233  14.261  0.4880 -0.7872 -0.0859
11376TIP3    H155543   3.401   5.248  14.311  1.6897 -1.4253 -1.7873
11376TIP3    H255544   3.333   5.148  14.219 -1.5515 -1.4167  0.5083
11377TIP3   OH255545   2.179   4.831   1.970 -0.2283  0.1887  0.2077
11377TIP3    H155546   2.208   4.904   1.916 -0.5449  0.6505  0.6438
11377TIP3    H255547   2.142   4.768   1.909  0.0232  0.4091 -0.1705
11378TIP3   OH255548   4.025   3.691   4.038  0.4916 -0.4634  0.2998
11378TIP3    H155549   3.933   3.666   4.048  0.6150 -0.9209  0.2790
11378TIP3    H255550   4.035   3.769   4.093 -0.0566 -0.0540 -0.1645
11379TIP3   OH255551   1.741   3.254   0.100  0.0182  0.2109 -0.4471
11379TIP3    H155552   1.815   3.293   0.146  1.0497 -1.4371 -0.6850
11379TIP3    H255553   1.749   3.286   0.011 -0.5762  1.4405 -0.0703
11380TIP3   OH255554   3.687   1.191  15.973  0.1152  0.5079 -0.0368
11380TIP3    H155555   3.652   1.175  15.885  3.4860 -0.4733 -1.2741
11380TIP3    H255556   3.767   1.242  15.957  0.4153  0.8630  2.5078
11381TIP3   OH255557   2.811   0.885  14.615  0.0897  0.2696 -0.8535
11381TIP3    H155558   2.897   0.863  14.649  0.4584  0.6348 -1.5376
11381TIP3    H255559   2.801   0.829  14.538  0.4088  1.4036 -1.7330
11382TIP3   OH255560   4.320   1.183  14.331  0.4085 -0.2233  0.4977
11382TIP3    H155561   4.277   1.266  14.353  0.4899 -0.3646  1.2216
11382TIP3    H255562   4.357   1.197  14.244  0.9504  0.7067  0.8705
11383TIP3   OH255563   2.838   3.066   1.512  0.1683  0.4082 -0.1495
11383TIP3    H155564   2.814   3.153   1.482 -2.3769 -0.1061  0.2750
11383TIP3    H255565   2.880   3.080   1.597 -0.9514  1.1604  0.2829
11384TIP3   OH255566   2.667   3.828   1.255 -0.0435  0.5199 -0.5438
11384TIP3    H155567   2.738   3.892   1.249  0.0348  0.4864  0.0151
11384TIP3    H255568   2.684   3.767   1.183  0.5094  0.4980 -0.4000
11385TIP3   OH255569   3.881   2.243   0.591  0.0127 -0.8451 -0.1297
11385TIP3    H155570   3.906   2.152   0.574 -0.0663 -1.0587  0.9131
11385TIP3    H255571   3.909   2.260   0.680 -1.9019 -0.5156  0.4397
11386TIP3   OH255572   3.394   2.353   0.960 -0.2511 -0.0055  0.1814
11386TIP3    H155573   3.419   2.289   1.026 -1.8546 -0.3805  0.4511
11386TIP3    H255574   3.450   2.334   0.885 -1.5641 -2.5681 -0.2068
11387TIP3   OH255575   2.915   5.013   1.025  0.5086 -0.7628 -0.0375
11387TIP3    H155576   2.892   5.077   0.957 -0.2671 -1.7734 -0.7321
11387TIP3    H255577   2.976   4.953   0.982  1.5768 -0.2592  0.7399
11388TIP3   OH255578   1.847   2.471   2.274  0.4258 -0.4563  0.0739
11388TIP3    H155579   1.882   2.413   2.207 -0.0658 -0.8238  0.1339
11388TIP3    H255580   1.922   2.522   2.303  1.2391 -2.3044  1.3063
11389TIP3   OH255581   5.893   4.616   3.692  0.0810  0.0996 -0.1591
11389TIP3    H155582   5.825   4.552   3.714 -0.6978  0.8177 -0.4586
11389TIP3    H255583   5.921   4.593   3.604 -2.1195  1.7922 -1.3604
11390TIP3   OH255584   2.649   2.230   3.865 -0.5309  0.1726  0.2037
11390TIP3    H155585   2.648   2.134   3.870 -0.7808  0.3001  2.9558
11390TIP3    H255586   2.727   2.257   3.913 -0.4500  1.3650 -0.5714
11391TIP3   OH255587   2.677   3.729   4.677 -0.2047 -0.1428 -0.4694
11391TIP3    H155588   2.731   3.731   4.598 -0.6293 -0.8659 -0.7851
11391TIP3    H255589   2.740   3.721   4.749  0.1209 -1.0674 -0.8409
11392TIP3   OH255590   3.454   0.889   2.860 -0.2981 -0.4621  0.6136
11392TIP3    H155591   3.419   0.860   2.944  0.8088 -1.2457  0.8229
11392TIP3    H255592   3.377   0.906   2.806 -1.0057 -1.5864  1.2405
11393TIP3   OH255593   1.295   2.694   3.215  0.7823  0.7160 -0.6780
11393TIP3    H155594   1.382   2.714   3.181  0.4777  1.2291 -1.1875
11393TIP3    H255595   1.299   2.718   3.307  1.4823 -0.2383 -0.4548
11394TIP3   OH255596   3.751   3.844   1.814 -0.3385  0.2389 -0.0738
11394TIP3    H155597   3.683   3.803   1.867 -1.7059  0.6349 -1.4547
11394TIP3    H255598   3.753   3.792   1.734  0.7574  0.4375 -0.1776
11395TIP3   OH255599   2.676   3.925   2.084 -0.1358 -0.5443  0.1884
11395TIP3    H155600   2.639   3.994   2.139  2.1629  0.2066  0.8778
11395TIP3    H255601   2.620   3.849   2.099 -2.2506  0.9452  0.0116
11396TIP3   OH255602   3.646   0.990   1.883 -0.0023 -0.3844  0.6464
11396TIP3    H155603   3.590   1.011   1.808  1.4038  0.8366 -0.0819
11396TIP3    H255604   3.695   0.913   1.855 -0.2402 -0.5595  0.7118
11397TIP3   OH255605   0.950   3.274   2.141  0.1006  0.2783  0.0826
11397TIP3    H155606   0.950   3.212   2.213 -1.3681  0.3993  0.2019
11397TIP3    H255607   1.028   3.252   2.090  0.4126 -0.6727  0.9555
11398TIP3   OH255608   2.955   3.967   2.021 -0.2538 -0.0337 -0.4406
11398TIP3    H155609   2.964   3.962   1.926  2.1296  0.9360 -0.2971
11398TIP3    H255610   2.861   3.979   2.035 -0.3622  2.3546 -2.8192
11399TIP3   OH255611   2.259   5.181   0.681  0.2662 -0.0880 -0.7893
11399TIP3    H155612   2.184   5.159   0.737  0.6529 -0.3624 -0.3784
11399TIP3    H255613   2.248   5.274   0.663 -0.7708 -0.3505 -1.6256
11400TIP3   OH255614   5.047   3.982   1.608 -0.1877  0.2381  0.3465
11400TIP3    H155615   5.107   3.998   1.681  2.1032 -1.3617 -1.1290
11400TIP3    H255616   5.020   3.891   1.618  0.3752 -0.0821 -0.9346
11401TIP3   OH255617   1.787   2.684   1.810  0.0282  0.3556 -0.7926
11401TIP3    H155618   1.757   2.725   1.891  0.3900 -0.7011 -0.1028
11401TIP3    H255619   1.794   2.591   1.832 -0.8511 -0.0875 -2.3338
11402TIP3   OH255620   3.095   2.087   2.228 -0.1443  0.0798  0.8318
11402TIP3    H155621   3.015   2.035   2.239 -0.2412 -0.2990 -1.5044
11402TIP3    H255622   3.097   2.144   2.305 -3.3318  0.9838  0.3079
11403TIP3   OH255623   3.810   2.484  15.618  0.0488  0.1149 -0.1942
11403TIP3    H155624   3.825   2.428  15.694  1.2378 -0.6667 -0.9692
11403TIP3    H255625   3.897   2.516  15.595 -0.5249  1.6384 -0.2539
11404TIP3   OH255626   2.747   1.167   3.776  0.2060  0.9008 -0.3469
11404TIP3    H155627   2.752   1.146   3.869  2.0027  1.1245 -0.3588
11404TIP3    H255628   2.792   1.251   3.768  1.0810  0.3448 -1.5625
11405TIP3   OH255629   4.627   1.966  15.723 -0.5394 -0.2748  0.4518
11405TIP3    H155630   4.721   1.981  15.735 -0.3722 -1.1465  0.2846
11405TIP3    H255631   4.599   2.034  15.662  0.2085 -0.6859 -0.3506
11406TIP3   OH255632   3.656   2.009   0.885 -0.3925 -0.4764 -0.0912
11406TIP3    H155633   3.674   1.948   0.813  1.9169 -0.7145  0.6397
11406TIP3    H255634   3.742   2.031   0.919 -1.4138  0.4040  1.9927
11407TIP3   OH255635   1.975   4.775   0.812 -0.4917  0.2483 -0.4886
11407TIP3    H155636   2.008   4.709   0.751 -2.6558  0.0769 -1.5434
11407TIP3    H255637   1.990   4.859   0.768  1.0826  0.3705  0.2781
11408TIP3   OH255638   2.578   3.964   1.845 -0.6366  0.0856  0.7084
11408TIP3    H155639   2.639   4.023   1.801 -1.1220  1.6557  2.1146
11408TIP3    H255640   2.614   3.954   1.933 -0.7288 -1.4996  0.5877
11409TIP3   OH255641   5.147   1.383   0.772  0.8005 -0.2623  0.2470
11409TIP3    H155642   5.142   1.323   0.846 -0.2986 -0.7465 -0.2245
11409TIP3    H255643   5.210   1.342   0.712 -1.5261 -2.0106 -1.0445
11410TIP3   OH255644   2.208   2.148  15.111  0.5097 -0.3278 -0.3370
11410TIP3    H155645   2.211   2.230  15.062  0.9851 -0.8046 -1.1183
11410TIP3    H255646   2.152   2.091  15.059  1.8277 -1.1716 -0.8437
11411TIP3   OH255647   5.078   3.295  15.814  0.7408  0.0287 -0.1372
11411TIP3    H155648   5.082   3.265  15.723  0.8486 -0.0993 -0.0905
11411TIP3    H255649   5.164   3.334  15.830  1.0967 -0.8828  0.2284
11412TIP3   OH255650   2.956   2.063  15.719  0.2518 -0.1347  0.9803
11412TIP3    H155651   2.918   2.044  15.805 -1.0836 -5.3323 -0.6100
11412TIP3    H255652   3.019   1.992  15.705  0.5402  0.7059 -2.2691
11413TIP3   OH255653   2.352   2.526   1.947  0.5203  0.2442  0.3126
11413TIP3    H155654   2.425   2.589   1.943 -0.6293  1.6962  1.5515
11413TIP3    H255655   2.300   2.544   1.868  1.0167 -0.2062 -0.1235
11414TIP3   OH255656   3.486   2.570   3.210  0.2563  0.4639 -0.1364
11414TIP3    H155657   3.450   2.654   3.241  0.0075 -0.0664  1.0354
11414TIP3    H255658   3.415   2.507   3.222  0.3130  0.1509 -1.3859
11415TIP3   OH255659   2.568   3.887  15.023 -0.1089 -0.7179  0.2081
11415TIP3    H155660   2.528   3.805  15.054  2.3188 -1.5077  1.3840
11415TIP3    H255661   2.564   3.881  14.927 -1.8788 -1.2063  0.2918
11416TIP3   OH255662   2.001   2.356   1.684  0.1793 -0.3665 -0.0083
11416TIP3    H155663   1.930   2.352   1.748  1.1386 -0.5591  1.0502
11416TIP3    H255664   2.011   2.449   1.664 -0.0301 -0.2971  0.2099
11417TIP3   OH255665   3.375   1.473  15.553 -0.0931  0.1275 -0.0197
11417TIP3    H155666   3.463   1.464  15.591 -1.4009  1.2793  3.5077
11417TIP3    H255667   3.368   1.567  15.533 -0.9194  0.2467  0.8027
11418TIP3   OH255668   1.284   4.048   3.976  0.7842 -0.0763  0.1466
11418TIP3    H155669   1.339   4.084   3.906  1.3122 -0.3232  0.4313
11418TIP3    H255670   1.306   3.955   3.978  0.9626 -0.0174  0.8251
11419TIP3   OH255671   3.225   2.504   3.356  0.0839 -0.4210  0.1012
11419TIP3    H155672   3.210   2.553   3.275 -0.7844  1.7258  1.5034
11419TIP3    H255673   3.191   2.561   3.425 -0.5308 -2.8215  1.8638
11420TIP3   OH255674   4.135   2.852  15.004  0.3106  0.0658  0.1638
11420TIP3    H155675   4.131   2.862  14.909  1.9409 -0.8661 -0.0156
11420TIP3    H255676   4.166   2.763  15.018 -0.1288  0.1236  1.5729
11421TIP3   OH255677   0.107   0.667   1.446  0.4463 -0.3234  0.0382
11421TIP3    H155678   0.175   0.730   1.468 -0.5715  0.7353  0.2287
11421TIP3    H255679   0.027   0.703   1.485 -0.0410 -2.0956  0.7802
11422TIP3   OH255680   1.431   3.681   1.364  0.1285  0.5125  0.9201
11422TIP3    H155681   1.498   3.623   1.327  0.5744  2.0693 -0.8395
11422TIP3    H255682   1.469   3.769   1.353 -2.1222  1.4004  0.0518
11423TIP3   OH255683   2.780   4.480   2.851  0.0096  0.0947  0.0330
11423TIP3    H155684   2.705   4.526   2.814 -0.6624 -0.9933  0.0259
11423TIP3    H255685   2.741   4.410   2.905  1.0192 -1.3106 -1.0351
11424TIP3   OH255686   2.452   1.506   0.119 -0.4854 -0.9146 -0.0190
11424TIP3    H155687   2.446   1.414   0.146 -1.7921 -0.7936  0.1174
11424TIP3    H255688   2.407   1.509   0.034 -0.6385 -0.3645  0.0811
11425TIP3   OH255689   1.727   3.850   0.822  0.1098 -0.0159  0.2840
11425TIP3    H155690   1.802   3.902   0.793  0.0177 -0.4122 -0.6750
11425TIP3    H255691   1.658   3.869   0.759  0.4464 -2.2012 -0.8073
11426TIP3   OH255692   2.578   3.085   0.699  0.0157  0.2430 -0.2512
11426TIP3    H155693   2.507   3.063   0.637 -0.7854  1.3888  0.2347
11426TIP3    H255694   2.537   3.145   0.762  0.9230 -0.6289  1.1880
11427TIP3   OH255695   2.482   3.832   2.550  0.4101  0.1029  0.3241
11427TIP3    H155696   2.557   3.799   2.600  0.7788 -0.1461 -0.3980
11427TIP3    H255697   2.459   3.914   2.594  1.4804  0.4833  0.1807
11428TIP3   OH255698   1.897   2.121   3.301 -0.4296 -0.5492 -0.2909
11428TIP3    H155699   1.856   2.035   3.300 -1.5581 -0.0620  1.1004
11428TIP3    H255700   1.919   2.139   3.210 -0.3663 -2.2152 -0.6187
11429TIP3   OH255701   2.933   1.825   0.995  0.2975 -0.0340 -0.0576
11429TIP3    H155702   2.920   1.761   0.926 -1.5746  0.7623 -0.4645
11429TIP3    H255703   2.845   1.846   1.026  0.9938  1.0023  1.2923
11430TIP3   OH255704   2.926   4.702   2.585 -0.5563 -0.1729  0.6100
11430TIP3    H155705   2.935   4.792   2.555  1.5459 -1.2072 -2.1083
11430TIP3    H255706   2.841   4.674   2.551 -2.0047  1.2432  2.9262
11431TIP3   OH255707   5.778   4.662   1.178 -0.3776  0.2317  0.1990
11431TIP3    H155708   5.753   4.630   1.264 -1.1194  0.1301 -0.0506
11431TIP3    H255709   5.817   4.587   1.135 -1.4011 -0.1366 -0.1007
11432TIP3   OH255710   4.124   4.585   4.271 -0.6484 -0.7479 -0.2554
11432TIP3    H155711   4.029   4.585   4.283 -0.6164  0.8523  0.1259
11432TIP3    H255712   4.159   4.543   4.349 -1.0236 -1.2585 -0.3564
11433TIP3   OH255713   3.351   1.486   0.050  0.8129  0.5578 -0.1221
11433TIP3    H155714   3.424   1.429   0.076 -1.1190 -2.1472 -0.3907
11433TIP3    H255715   3.318   1.521   0.133  0.2744 -0.9279  0.2972
11434TIP3   OH255716   3.578   4.127  15.434  0.7484  0.1198  0.3402
11434TIP3    H155717   3.553   4.076  15.512  1.5022 -0.2195  0.3644
11434TIP3    H255718   3.498   4.132  15.383 -0.4449  2.5446  2.3321
11435TIP3   OH255719   1.955   3.469   2.855  0.5140 -0.0836  0.4100
11435TIP3    H155720   1.990   3.380   2.866  1.5201  0.1075 -1.0244
11435TIP3    H255721   2.027   3.518   2.815 -0.8834  0.7203 -1.1942
11436TIP3   OH255722   2.307   4.004  14.844  0.2006  0.0968 -0.0314
11436TIP3    H155723   2.398   4.000  14.813  0.3769  0.7387  0.4029
11436TIP3    H255724   2.299   4.091  14.883  0.3875 -1.1957  2.9883
11437TIP3   OH255725   4.399   3.981   3.856  0.1008  0.6373  0.1097
11437TIP3    H155726   4.377   3.920   3.785  0.4036  2.1276 -1.3016
11437TIP3    H255727   4.468   4.036   3.819  1.3539  0.4562  2.1200
11438TIP3   OH255728   2.293   4.198  14.075 -0.0639  0.4978 -0.4465
11438TIP3    H155729   2.253   4.130  14.019 -1.5079  0.7835  0.2173
11438TIP3    H255730   2.363   4.152  14.121 -1.2651 -0.6571  0.2803
11439TIP3   OH255731   3.973   3.961   1.229  0.3418  0.4004 -0.3386
11439TIP3    H155732   3.994   3.885   1.174  0.7362 -0.1780  0.5995
11439TIP3    H255733   3.956   3.924   1.315 -0.0043  1.3340  0.0012
11440TIP3   OH255734   1.363   2.839   3.438  0.5125  0.1353  0.1042
11440TIP3    H155735   1.436   2.868   3.493  2.2481  0.9986 -2.5307
11440TIP3    H255736   1.328   2.920   3.401 -0.3571 -0.4559 -0.3731
11441TIP3   OH255737   2.685   2.067   2.846  0.1577  0.9459 -0.6314
11441TIP3    H155738   2.661   2.144   2.898 -0.5893  1.1622 -1.2758
11441TIP3    H255739   2.755   2.098   2.789  1.6478  0.4518  0.8985
11442TIP3   OH255740   2.185   3.720   1.996 -0.1804 -1.1451 -0.7291
11442TIP3    H155741   2.120   3.651   2.010  0.0461 -1.6206 -1.9879
11442TIP3    H255742   2.159   3.762   1.914  0.2718 -0.3756 -0.4914
11443TIP3   OH255743   2.785   1.402   1.816  0.2050  0.1182 -0.2855
11443TIP3    H155744   2.745   1.328   1.772  1.2587 -0.0930 -0.8961
11443TIP3    H255745   2.780   1.381   1.909 -0.9639  0.0307 -0.3655
11444TIP3   OH255746   1.608   1.186   3.135 -0.0209  0.4721 -0.4190
11444TIP3    H155747   1.626   1.164   3.044  0.3751  0.3084 -0.2996
11444TIP3    H255748   1.518   1.157   3.150 -0.5056  1.5685 -1.1039
11445TIP3   OH255749   1.800   2.832  15.286 -0.7595 -0.4006  0.5133
11445TIP3    H155750   1.716   2.814  15.328 -1.2000  0.4610  0.0169
11445TIP3    H255751   1.821   2.922  15.313 -0.5413 -0.2150 -0.2675
11446TIP3   OH255752   6.926   2.275   0.098 -0.3231  0.4563 -0.0977
11446TIP3    H155753   6.911   2.346   0.160  0.0011  0.3576  0.0975
11446TIP3    H255754   6.841   2.233   0.087 -0.2135 -0.0213  0.8871
11447TIP3   OH255755   3.533   0.925   2.158  0.0284  0.2135  0.0772
11447TIP3    H155756   3.541   0.954   2.067  0.6021  0.7396  0.2902
11447TIP3    H255757   3.461   0.862   2.157 -1.7094  2.1455 -0.2679
11448TIP3   OH255758   3.572   1.599   0.419  0.2715  0.0208  0.2001
11448TIP3    H155759   3.512   1.596   0.493 -0.0598 -0.9431 -0.0909
11448TIP3    H255760   3.608   1.687   0.420 -2.8905  1.4222 -0.9596
11449TIP3   OH255761   2.932   4.329   1.925 -0.0214  0.5610  0.2616
11449TIP3    H155762   2.915   4.240   1.893 -2.2630  1.1728 -0.3699
11449TIP3    H255763   2.961   4.378   1.847 -0.2688  0.7499  0.2875
11450TIP3   OH255764   0.659   3.425  15.949 -0.1424  0.0743  0.0689
11450TIP3    H155765   0.731   3.417  16.011 -1.8899  0.7521  2.2446
11450TIP3    H255766   0.667   3.349  15.892  1.1782 -0.8497  1.4697
11451TIP3   OH255767   0.709   2.134  14.964  0.5444 -0.6248  0.2330
11451TIP3    H155768   0.708   2.136  15.060 -0.9897  2.2820  0.2193
11451TIP3    H255769   0.801   2.144  14.940  0.8071 -0.2109  1.3887
11452TIP3   OH255770   1.224   1.163  15.225  0.2563 -0.2991  0.0725
11452TIP3    H155771   1.136   1.164  15.264  0.2053 -0.9636 -0.0334
11452TIP3    H255772   1.209   1.145  15.133  0.3980  1.0398 -0.2232
11453TIP3   OH255773   3.417   1.698  14.563  0.1647  0.0749  0.3411
11453TIP3    H155774   3.322   1.708  14.558  0.4279  3.1552  0.5402
11453TIP3    H255775   3.435   1.686  14.657 -0.0534 -0.7139  0.2797
11454TIP3   OH255776   2.495   6.202   1.960  0.0051  0.7784 -0.5630
11454TIP3    H155777   2.412   6.170   1.995  0.7877 -0.2010  0.4171
11454TIP3    H255778   2.512   6.146   1.884  1.3422 -1.1498  1.1123
11455TIP3   OH255779   2.263   3.029   1.496 -0.2387  0.2114  0.4815
11455TIP3    H155780   2.186   3.074   1.531  0.4195 -0.6052  3.1086
11455TIP3    H255781   2.325   3.027   1.569  1.0636 -1.9187 -0.6130
11456TIP3   OH255782   3.072   3.607   0.580 -0.5761 -0.4172  0.0804
11456TIP3    H155783   3.052   3.611   0.487 -0.0905  0.1544 -0.0041
11456TIP3    H255784   3.028   3.683   0.618 -0.2763 -0.3087  0.2188
11457TIP3   OH255785   5.175   1.959   3.563 -0.2799 -0.0787  0.2375
11457TIP3    H155786   5.238   1.902   3.608 -0.1108 -0.5363 -0.5748
11457TIP3    H255787   5.121   1.899   3.511 -1.1663  0.3447  0.6478
11458TIP3   OH255788   4.479   3.342   0.260  0.6538  0.2139 -0.4002
11458TIP3    H155789   4.488   3.349   0.355 -1.4953 -1.9360  0.0124
11458TIP3    H255790   4.440   3.424   0.232 -1.6793 -0.3907  1.0181
11459TIP3   OH255791   3.716   3.546   0.383 -0.5430  1.1628 -0.4091
11459TIP3    H155792   3.756   3.608   0.443  0.6819 -0.6029  0.6504
11459TIP3    H255793   3.739   3.579   0.296  3.8612 -0.0616  0.1297
11460TIP3   OH255794   5.332   4.585   1.899 -0.0121  0.2746 -0.2857
11460TIP3    H155795   5.241   4.556   1.905  0.6741 -2.1121 -1.0920
11460TIP3    H255796   5.343   4.610   1.807 -0.4043  2.6018  0.2517
11461TIP3   OH255797   1.368   6.059   3.910  0.2118 -0.1537 -0.2973
11461TIP3    H155798   1.404   6.039   3.996 -1.1329  0.7696  0.4802
11461TIP3    H255799   1.364   6.155   3.907 -2.4522 -0.2260 -0.2505
11462TIP3   OH255800   4.660   1.176   3.443 -0.0037  0.0409  0.5938
11462TIP3    H155801   4.743   1.135   3.417 -0.9559 -1.3267 -0.4459
11462TIP3    H255802   4.601   1.102   3.456 -0.9987  0.9920  1.5348
11463TIP3   OH255803   3.373   2.391   2.714  0.0701 -0.0344 -0.0389
11463TIP3    H155804   3.407   2.302   2.722 -0.2353 -0.3382 -2.0168
11463TIP3    H255805   3.410   2.437   2.790 -2.4505 -2.6506  2.9417
11464TIP3   OH255806   3.267   5.790   0.874 -0.1896  0.3914 -0.4544
11464TIP3    H155807   3.273   5.827   0.786  0.4453 -0.5715 -0.8177
11464TIP3    H255808   3.212   5.711   0.863  1.6547 -0.9317 -0.3837
11465TIP3   OH255809   2.473   4.724   2.169  0.3213  0.0860 -0.6266
11465TIP3    H155810   2.386   4.739   2.207 -0.4262 -2.7197 -1.1169
11465TIP3    H255811   2.483   4.794   2.104 -0.2635  2.2446  1.5242
11466TIP3   OH255812   3.441   6.062   0.583 -0.0156 -0.5837 -0.0710
11466TIP3    H155813   3.430   5.972   0.552  1.6286 -0.9012  0.2138
11466TIP3    H255814   3.353   6.088   0.612 -0.8808 -1.4580 -1.8221
11467TIP3   OH255815   4.991   3.193   1.796  0.5002 -0.3710  0.0919
11467TIP3    H155816   4.944   3.155   1.722  3.0670 -0.1165 -1.7131
11467TIP3    H255817   5.063   3.132   1.812  1.6184  1.0471  0.5203
11468TIP3   OH255818   5.155   0.703   0.892  0.0010 -0.2485  0.5409
11468TIP3    H155819   5.092   0.666   0.831  0.0478 -0.0241  0.3547
11468TIP3    H255820   5.171   0.792   0.860 -0.2479 -0.0034  1.0842
11469TIP3   OH255821   3.142   3.067   2.674  0.1200  0.2448 -0.3208
11469TIP3    H155822   3.235   3.087   2.663 -0.3052  1.3763 -2.0812
11469TIP3    H255823   3.128   2.988   2.623  0.2274 -0.2463  0.4062
11470TIP3   OH255824   4.668   1.963   1.209 -0.5053 -0.3064 -0.2026
11470TIP3    H155825   4.716   1.959   1.126  0.1085  1.1346  0.0713
11470TIP3    H255826   4.596   1.901   1.198  1.7098 -2.9477 -0.4188
11471TIP3   OH255827   5.098   2.409  15.043 -0.6097  0.2093  0.3410
11471TIP3    H155828   5.148   2.379  15.119 -1.3206 -0.4634  0.5511
11471TIP3    H255829   5.164   2.422  14.975 -0.1985 -1.1620  0.4543
11472TIP3   OH255830   3.908   3.404  15.407 -0.0158  0.2189  0.1851
11472TIP3    H155831   3.878   3.326  15.454 -1.5015  0.5126 -0.2669
11472TIP3    H255832   3.829   3.455  15.392  0.7242  1.0402 -0.9635
11473TIP3   OH255833   4.383   1.779  14.098 -0.0641 -0.0173  0.2121
11473TIP3    H155834   4.369   1.863  14.141  0.1115 -0.1899  0.6071
11473TIP3    H255835   4.422   1.723  14.165  1.1320 -0.0004 -0.4425
11474TIP3   OH255836   2.865   1.324   3.970  0.0803  0.0928 -0.0038
11474TIP3    H155837   2.932   1.291   4.029  1.6962  1.9303 -0.7519
11474TIP3    H255838   2.785   1.325   4.022  0.8612 -1.0994  1.2370
11475TIP3   OH255839   3.260   0.861   1.619 -0.1592 -0.4552  0.0024
11475TIP3    H155840   3.212   0.907   1.688 -0.5723  0.0844 -0.6332
11475TIP3    H255841   3.254   0.769   1.642  0.0628 -0.2384  0.9150
11476TIP3   OH255842   4.271   3.417   1.730  0.1768 -0.0649  0.3677
11476TIP3    H155843   4.315   3.359   1.668  0.0292 -0.4173  0.5911
11476TIP3    H255844   4.308   3.392   1.815  2.1356  2.0181  0.1692
11477TIP3   OH255845   3.702   1.803  15.561 -0.1063  0.3196  0.0021
11477TIP3    H155846   3.758   1.853  15.501  3.5390  0.2330  3.1475
11477TIP3    H255847   3.718   1.712  15.538 -2.6167  0.3621 -2.1483
11478TIP3   OH255848   7.001   3.095   3.438 -0.0744  0.7075  0.1982
11478TIP3    H155849   6.953   3.094   3.355 -1.4953  0.1820  1.0063
11478TIP3    H255850   6.936   3.069   3.503  1.3545 -0.1224  1.3092
11479TIP3   OH255851   3.216   4.708   0.215  0.1946  0.5391 -0.3537
11479TIP3    H155852   3.250   4.760   0.142  2.6525  0.8455  0.9501
11479TIP3    H255853   3.286   4.710   0.280 -0.5017 -2.7034  0.5692
11480TIP3   OH255854   4.382   4.781  15.334  0.3192 -0.4319 -0.3257
11480TIP3    H155855   4.291   4.780  15.364  0.6275 -0.6874  0.6362
11480TIP3    H255856   4.413   4.692  15.350  0.6179 -0.4539 -1.0273
11481TIP3   OH255857   3.648   3.420   1.592  0.1539 -0.0651 -0.7159
11481TIP3    H155858   3.617   3.382   1.675 -2.8982  1.6339 -0.9982
11481TIP3    H255859   3.610   3.364   1.524 -0.5404  0.7529 -1.0173
11482TIP3   OH255860   3.745   2.587   1.604  0.0528 -0.1281 -0.3651
11482TIP3    H155861   3.720   2.639   1.680 -0.4521 -0.0012 -0.6120
11482TIP3    H255862   3.670   2.594   1.545  1.3399  1.6985 -1.8728
11483TIP3   OH255863   5.978   3.199   0.001  0.6519  0.1864  0.2926
11483TIP3    H155864   5.892   3.196  -0.040  1.0618  0.7690 -0.6252
11483TIP3    H255865   6.037   3.159  -0.063  0.8904 -1.2911  1.3937
11484TIP3   OH255866   5.148   2.823   2.267 -0.3490 -0.2225  0.0453
11484TIP3    H155867   5.216   2.780   2.318 -0.1804 -0.4704 -0.3837
11484TIP3    H255868   5.143   2.772   2.186  0.3083  0.9461 -0.7437
11485TIP3   OH255869   6.224   4.079   0.601  0.5412 -0.0646 -0.3221
11485TIP3    H155870   6.144   4.096   0.552  0.7411  0.5322 -0.4400
11485TIP3    H255871   6.218   4.135   0.678  1.1381  0.4587 -0.6499
11486TIP3   OH255872   3.324   2.845   0.356 -0.2092  0.0427  0.2098
11486TIP3    H155873   3.240   2.839   0.401  0.0766  2.1564  1.0645
11486TIP3    H255874   3.389   2.822   0.422 -0.0766 -1.5842 -0.4478
11487TIP3   OH255875   5.602   2.956   2.139 -0.4125 -0.3973 -0.9250
11487TIP3    H155876   5.545   2.881   2.156 -1.6312  0.2342 -2.2050
11487TIP3    H255877   5.683   2.917   2.107 -0.4499 -1.2510 -0.0055
11488TIP3   OH255878   5.026   3.846  15.660 -0.2242 -0.5212 -0.3736
11488TIP3    H155879   5.068   3.765  15.631 -0.0386 -0.7131  0.4119
11488TIP3    H255880   4.933   3.833  15.642  0.0195 -0.1871 -1.9148
11489TIP3   OH255881   2.938   1.249  15.781 -0.0093  0.1764 -0.2200
11489TIP3    H155882   2.909   1.247  15.873 -0.9845  2.3438 -0.4492
11489TIP3    H255883   2.968   1.339  15.768  2.1417 -0.6934 -1.4424
11490TIP3   OH255884   5.094   2.587   1.717 -0.0617  0.6629  0.0514
11490TIP3    H155885   5.028   2.540   1.666 -0.1255  1.1225 -0.2939
11490TIP3    H255886   5.171   2.530   1.715  0.0304  0.8146 -0.8058
11491TIP3   OH255887   3.570   2.530   2.889  0.0105  0.0557  0.2355
11491TIP3    H155888   3.657   2.570   2.891  0.6020 -1.1859 -0.3493
11491TIP3    H255889   3.568   2.474   2.967 -0.3886  0.3524  0.4358
11492TIP3   OH255890   4.647   3.960   0.667 -0.3939 -0.5102 -0.1045
11492TIP3    H155891   4.560   3.944   0.630 -0.7590  1.6757 -0.2076
11492TIP3    H255892   4.631   4.006   0.749  0.7288  1.8314 -1.1505
11493TIP3   OH255893   0.214   3.692   0.704  0.0239 -0.5045 -0.3727
11493TIP3    H155894   0.264   3.671   0.625  0.6565 -1.7896  0.3664
11493TIP3    H255895   0.129   3.649   0.690  0.1464 -0.7577 -0.3414
11494TIP3   OH255896   3.281   3.558   2.941  0.6818 -0.0491  0.1961
11494TIP3    H155897   3.276   3.529   3.032  0.7491 -0.1493  0.1682
11494TIP3    H255898   3.329   3.641   2.945  0.3447  0.1413  0.2932
11495TIP3   OH255899   3.679   4.342   3.619  0.1003  0.3976 -0.6774
11495TIP3    H155900   3.607   4.402   3.637  0.2410  1.0596 -2.2419
11495TIP3    H255901   3.740   4.393   3.566  0.4998 -0.9499 -1.5514
11496TIP3   OH255902   2.152   4.260   3.297 -0.8298 -0.1438  0.2571
11496TIP3    H155903   2.169   4.185   3.240  0.5167 -0.1242  0.6294
11496TIP3    H255904   2.238   4.299   3.312 -1.1624 -0.1739  2.3589
11497TIP3   OH255905   3.522   3.282   1.792  0.2183  0.0666  0.1390
11497TIP3    H155906   3.526   3.312   1.883 -0.1136 -2.5945  1.0800
11497TIP3    H255907   3.428   3.280   1.772  0.2877  0.5819 -0.2533
11498TIP3   OH255908   6.086   4.021   1.187 -0.5432  0.4602 -0.5364
11498TIP3    H155909   6.123   4.108   1.172 -1.1553  0.5906 -1.3272
11498TIP3    H255910   6.031   4.031   1.265 -0.8462  0.8480 -0.7996
11499TIP3   OH255911   5.980   2.757   2.397  0.0967  0.4043  0.4716
11499TIP3    H155912   5.894   2.717   2.384  0.2950  0.1993 -0.2317
11499TIP3    H255913   6.042   2.694   2.360  0.5867  0.3466  1.3725
11500TIP3   OH255914   4.404   2.619   4.215 -0.3857 -0.1016  0.0050
11500TIP3    H155915   4.493   2.585   4.224 -1.0909 -1.5140  1.8468
11500TIP3    H255916   4.372   2.580   4.133  0.1704 -0.7943  0.1078
11501TIP3   OH255917   5.283   2.946   3.634 -0.1560 -0.6282 -0.2002
11501TIP3    H155918   5.255   2.865   3.592 -0.9296 -0.6979  0.4373
11501TIP3    H255919   5.295   2.923   3.726  2.3307 -0.6693 -0.5065
11502TIP3   OH255920   3.797   5.258   1.814  0.4786 -0.5948  0.0215
11502TIP3    H155921   3.850   5.182   1.838  1.4281 -0.3012 -1.1189
11502TIP3    H255922   3.731   5.223   1.754 -0.8146 -1.0124  1.6675
11503TIP3   OH255923   4.985   3.173   0.459 -0.2933 -0.1005  0.6871
11503TIP3    H155924   5.000   3.083   0.432 -1.4680 -0.0865 -0.0126
11503TIP3    H255925   4.912   3.168   0.520 -0.9036  0.4714  0.0132
11504TIP3   OH255926   5.676   4.524  14.636 -0.3358  0.3459 -0.1357
11504TIP3    H155927   5.706   4.602  14.590  1.4140 -0.5764 -0.6237
11504TIP3    H255928   5.710   4.535  14.725  0.3828 -0.1080 -0.3500
11505TIP3   OH255929   2.773   3.482   1.281 -1.2403 -0.2094  0.9565
11505TIP3    H155930   2.687   3.465   1.243 -1.2441 -0.6145  1.1462
11505TIP3    H255931   2.832   3.488   1.206 -1.7496  1.9221  0.7178
11506TIP3   OH255932   3.052   2.110   0.511 -0.4138  0.2453 -0.1136
11506TIP3    H155933   3.001   2.104   0.591 -0.4276 -0.0533 -0.1420
11506TIP3    H255934   3.088   2.199   0.511  2.3615 -0.8105  1.9317
11507TIP3   OH255935   5.658   4.434   2.908 -0.3979 -0.0485 -0.2910
11507TIP3    H155936   5.600   4.492   2.858  0.6676  1.3354  0.0419
11507TIP3    H255937   5.744   4.476   2.903  0.2843 -1.3301  0.4098
11508TIP3   OH255938   4.183   4.308   5.133  0.2449  0.2418  0.0408
11508TIP3    H155939   4.101   4.354   5.149  0.2415  0.0323  0.6198
11508TIP3    H255940   4.237   4.370   5.084  0.0407  0.6650  0.3564
11509TIP3   OH255941   0.020   4.104   1.749 -0.5087 -0.3161 -0.6808
11509TIP3    H155942  -0.055   4.163   1.746  1.6895  2.7719  2.0028
11509TIP3    H255943   0.019   4.069   1.839  0.3465 -1.5634 -1.1411
11510TIP3   OH255944   5.584   6.060  15.486 -0.3229 -0.5912  0.0685
11510TIP3    H155945   5.605   6.130  15.423  0.8658 -0.6386  0.4161
11510TIP3    H255946   5.522   6.101  15.546 -0.5791 -0.2024 -0.4489
11511TIP3   OH255947   6.702   4.565  15.977  0.3708 -0.0387  0.2183
11511TIP3    H155948   6.780   4.510  15.985  0.9602  0.9154  1.1420
11511TIP3    H255949   6.732   4.641  15.927 -0.2039 -0.1093 -0.2358
11512TIP3   OH255950   6.225   3.637   0.521 -0.4793  0.4359 -0.2104
11512TIP3    H155951   6.238   3.554   0.474 -0.7422  0.8413 -1.0045
11512TIP3    H255952   6.136   3.631   0.555  0.0012 -0.2153  0.9680
11513TIP3   OH255953   4.591   2.402   2.160 -0.0205  0.3216 -0.2852
11513TIP3    H155954   4.577   2.421   2.252 -1.5506  0.1262 -0.4613
11513TIP3    H255955   4.503   2.386   2.125  0.5425  0.3671 -1.7640
11514TIP3   OH255956   5.624   3.104   1.371 -0.1735  0.1286 -0.4453
11514TIP3    H155957   5.649   3.124   1.280 -1.7937  0.5551 -0.8184
11514TIP3    H255958   5.661   3.017   1.388  0.9281  0.4428 -1.2034
11515TIP3   OH255959   3.024   0.723   0.204 -0.0993 -0.3381  0.4991
11515TIP3    H155960   3.045   0.706   0.296 -1.7405  0.3020  0.9965
11515TIP3    H255961   3.022   0.818   0.197 -1.6205 -0.3890  0.1855
11516TIP3   OH255962   1.344   1.543  15.260  0.0121 -0.0125  0.0557
11516TIP3    H155963   1.328   1.625  15.305  0.9516  0.0555  0.2715
11516TIP3    H255964   1.298   1.477  15.312  0.9019  0.0989  1.0050
11517TIP3   OH255965   5.083   3.827   2.434 -0.0132 -0.1898 -0.1786
11517TIP3    H155966   5.113   3.862   2.350  0.1452 -0.4700 -0.2378
11517TIP3    H255967   5.163   3.807   2.482 -0.0945  1.2795  0.5900
11518TIP3   OH255968   5.233   1.418  13.873 -0.4957  0.4741 -0.6729
11518TIP3    H155969   5.203   1.435  13.783 -1.7232  1.9903 -0.0028
11518TIP3    H255970   5.239   1.323  13.879 -0.9294  0.3352 -2.1901
11519TIP3   OH255971   6.182   2.868   0.256 -0.1717 -0.1243 -0.3932
11519TIP3    H155972   6.089   2.850   0.262 -0.5548  1.4967 -1.0534
11519TIP3    H255973   6.202   2.920   0.334 -0.1592  0.8481 -1.0366
11520TIP3   OH255974   5.789   2.469   0.676  0.6245 -0.0644  0.1443
11520TIP3    H155975   5.745   2.387   0.656  1.4237 -1.1944  2.7638
11520TIP3    H255976   5.721   2.526   0.711  0.0478  0.4581 -1.7793
11521TIP3   OH255977   7.200   1.643  15.955  0.3989  0.2002  0.2711
11521TIP3    H155978   7.193   1.690  15.872  0.9827 -1.0855 -0.5137
11521TIP3    H255979   7.143   1.567  15.944 -0.1130  0.4181  1.3330
11522TIP3   OH255980   5.886   3.288   0.370 -0.1397 -0.2773 -0.1725
11522TIP3    H155981   5.908   3.195   0.379 -3.2823 -1.6257 -4.7156
11522TIP3    H255982   5.933   3.317   0.292 -0.2883  1.5929  0.4141
11523TIP3   OH255983   4.450   2.697   2.646  0.2092  0.0398 -0.0283
11523TIP3    H155984   4.456   2.602   2.636 -0.7978  0.0725 -1.1431
11523TIP3    H255985   4.506   2.718   2.720 -0.2427 -1.5297  0.7651
11524TIP3   OH255986   5.657   3.526  14.779 -0.0259  0.4117 -0.4419
11524TIP3    H155987   5.568   3.512  14.747 -0.2048  0.0688  0.1781
11524TIP3    H255988   5.712   3.475  14.720 -0.2586  0.4843 -0.7240
11525TIP3   OH255989   4.384   3.905   0.079 -0.5592 -0.4237  0.2474
11525TIP3    H155990   4.407   3.854   0.157 -1.1012 -1.5062 -0.2775
11525TIP3    H255991   4.294   3.932   0.094 -0.5113 -0.2445  0.2056
11526TIP3   OH255992   3.146   2.559  15.537 -0.0186 -0.4706 -0.5539
11526TIP3    H155993   3.145   2.579  15.630 -2.1983 -2.0362 -0.2144
11526TIP3    H255994   3.210   2.488  15.528 -1.9166 -2.3608  0.2504
11527TIP3   OH255995   3.282   2.025   1.339 -0.6705  0.3947 -0.5025
11527TIP3    H155996   3.364   2.029   1.389  0.1344 -1.4386 -1.6365
11527TIP3    H255997   3.237   1.948   1.374 -1.0624  0.3210 -1.1661
11528TIP3   OH255998   2.079   2.285  15.769  0.3530 -0.1347  0.1022
11528TIP3    H155999   2.021   2.232  15.714  0.8321  0.4279 -0.9618
11528TIP3    H256000   2.167   2.260  15.741  0.5892  1.5335 -0.7358
11529TIP3   OH256001   4.808   3.336  15.873  0.0994  0.8130  0.6700
11529TIP3    H156002   4.789   3.290  15.955  0.4550  0.1745  0.3967
11529TIP3    H256003   4.899   3.313  15.854 -1.1284 -2.2912 -1.9670
11530TIP3   OH256004   3.850   2.371   0.896  0.7924  0.0902  0.1090
11530TIP3    H156005   3.800   2.323   0.962  1.0784  0.5934  0.6878
11530TIP3    H256006   3.819   2.461   0.903 -0.7606 -0.2595 -1.9323
11531TIP3   OH256007   5.623   3.335   1.678 -0.1877  0.1152  0.2503
11531TIP3    H156008   5.608   3.414   1.730  0.8808  1.4228 -1.3904
11531TIP3    H256009   5.718   3.325   1.675 -0.3058 -1.3355  0.5488
11532TIP3   OH256010   6.362   1.708   0.361 -0.1380  0.0006 -0.2495
11532TIP3    H156011   6.435   1.707   0.422 -0.1626 -0.5263 -0.2249
11532TIP3    H256012   6.284   1.714   0.417 -0.2608 -2.3432 -0.1161
11533TIP3   OH256013   5.441   3.283   1.474 -0.2061 -0.0326  0.1495
11533TIP3    H156014   5.494   3.309   1.550  0.5750  2.5534 -1.2139
11533TIP3    H256015   5.500   3.232   1.420  0.1884  0.7865 -0.2035
11534TIP3   OH256016   5.469   2.780  15.726  0.3362 -0.1970  0.0059
11534TIP3    H156017   5.427   2.696  15.741  0.2898 -0.1356  0.2144
11534TIP3    H256018   5.451   2.831  15.804 -0.6148  0.4165 -0.6145
11535TIP3   OH256019   0.726   3.507  14.590 -0.1428 -0.3252 -0.4118
11535TIP3    H156020   0.722   3.417  14.623 -0.7063 -0.8731 -1.9199
11535TIP3    H256021   0.635   3.538  14.596  0.1818  0.4095  0.8071
11536TIP3   OH256022   0.729   0.948   0.722  0.3866  1.0863  0.3200
11536TIP3    H156023   0.733   0.947   0.627 -0.4311  0.4538  0.2891
11536TIP3    H256024   0.657   0.890   0.744  2.2335 -0.8713  1.4161
11537TIP3   OH256025   6.658   3.717  15.685  0.3329  0.5212 -0.1004
11537TIP3    H156026   6.572   3.760  15.688 -0.8418 -1.8438  2.1704
11537TIP3    H256027   6.649   3.651  15.617 -0.6763 -1.6575  2.0642
11538TIP3   OH256028   2.344   0.754   3.723 -0.0541 -0.8320 -0.3368
11538TIP3    H156029   2.392   0.808   3.785 -4.5109  2.5484  0.4938
11538TIP3    H256030   2.312   0.680   3.775  0.8863 -0.9934  0.0207
11539TIP3   OH256031   4.843   2.384   0.486 -0.4135  0.0635 -0.2212
11539TIP3    H156032   4.902   2.315   0.457  0.7873  0.8229  0.4004
11539TIP3    H256033   4.758   2.341   0.492  0.3467 -1.3921  0.2879
11540TIP3   OH256034   4.242   3.357   2.316  0.2081 -0.1616 -0.4444
11540TIP3    H156035   4.218   3.397   2.400 -0.9365 -0.6002 -0.5554
11540TIP3    H256036   4.315   3.299   2.337 -0.2294 -0.4544  0.2966
11541TIP3   OH256037   5.363   2.908   1.052  0.1472 -0.4921 -0.0560
11541TIP3    H156038   5.416   2.927   1.130  0.7538 -2.2386 -0.0020
11541TIP3    H256039   5.296   2.975   1.051  0.4347 -0.1593  1.7168
11542TIP3   OH256040   5.975   1.944   1.025 -0.3398  0.3413 -0.6876
11542TIP3    H156041   5.946   1.968   1.113  0.1442  0.4914 -0.5633
11542TIP3    H256042   5.993   2.028   0.982  1.3404  0.2192 -0.2575
11543TIP3   OH256043   3.866   4.173   2.475  0.0503  0.4117  0.2814
11543TIP3    H156044   3.959   4.193   2.467  0.2315 -0.2922  0.5272
11543TIP3    H256045   3.843   4.203   2.563 -0.3181  1.9481 -0.3255
11544TIP3   OH256046   7.064   3.101   1.200 -0.1298 -0.7261  0.0716
11544TIP3    H156047   7.108   3.101   1.284 -0.5999 -0.5567  0.3211
11544TIP3    H256048   7.062   3.193   1.172 -1.6319 -0.5258  0.7658
11545TIP3   OH256049   4.223   2.947   0.906  0.3008  0.4741  0.0346
11545TIP3    H156050   4.142   2.981   0.869  0.3681  0.6398  0.0410
11545TIP3    H256051   4.289   2.961   0.837  0.5761  1.4228  0.4912
11546TIP3   OH256052   2.700   3.961   0.980 -0.5782  0.1571 -0.0024
11546TIP3    H156053   2.605   3.957   0.992 -0.5073 -1.0587  0.2508
11546TIP3    H256054   2.726   3.869   0.970  0.5227  0.5164 -0.4420
11547TIP3   OH256055   3.488   4.271   3.017  0.7819  0.0340 -0.0093
11547TIP3    H156056   3.433   4.336   2.973 -0.1077 -0.5300  0.2492
11547TIP3    H256057   3.431   4.233   3.083  1.3232 -0.9407 -0.0958
11548TIP3   OH256058   5.330   1.599   4.356  0.2767 -0.0087  0.0327
11548TIP3    H156059   5.276   1.524   4.381 -0.8960  1.2810  1.4226
11548TIP3    H256060   5.282   1.640   4.284  0.0351  0.4142  0.4341
11549TIP3   OH256061   5.476   3.542   1.869 -0.0372 -0.4478 -0.3310
11549TIP3    H156062   5.535   3.610   1.901 -0.9815  1.0690 -1.7181
11549TIP3    H256063   5.399   3.547   1.925  0.9039 -2.0725  1.1433
11550TIP3   OH256064   5.553   2.103   1.532  0.3822  0.3897  0.3585
11550TIP3    H156065   5.522   2.020   1.496 -2.2343  1.3918  0.1984
11550TIP3    H256066   5.498   2.117   1.609  1.2707  1.6487  0.7689
11551TIP3   OH256067   6.486   2.872   2.138 -0.1839  0.2879  0.3551
11551TIP3    H156068   6.517   2.896   2.051 -0.6509  1.8356  0.6120
11551TIP3    H256069   6.392   2.890   2.137 -0.2537 -0.0092  1.0762
11552TIP3   OH256070   4.864   1.841  13.218  0.0060 -0.0352  0.0828
11552TIP3    H156071   4.959   1.846  13.206  0.1041  0.6006  1.0908
11552TIP3    H256072   4.852   1.809  13.308 -0.7313  1.4962  0.5441
11553TIP3   OH256073   5.029   4.334   0.536  0.6016  1.0206 -0.2524
11553TIP3    H156074   5.013   4.421   0.573  1.5093  0.6603  1.0198
11553TIP3    H256075   4.942   4.296   0.526  0.2414  1.7967 -0.0942
11554TIP3   OH256076   3.049   3.996   1.691  0.0912  0.2541 -0.0114
11554TIP3    H156077   3.123   4.053   1.712  0.5740 -0.7355  0.9885
11554TIP3    H256078   3.086   3.928   1.635 -0.0804 -0.1905  0.4108
11555TIP3   OH256079   3.485   1.463   2.374 -0.3932 -0.1720 -0.1323
11555TIP3    H156080   3.448   1.540   2.331 -0.2588  1.0713  1.9135
11555TIP3    H256081   3.577   1.486   2.390 -0.3005 -0.8427  0.3355
11556TIP3   OH256082   4.913   2.501  14.667 -0.6550 -0.2738  0.1354
11556TIP3    H156083   4.923   2.433  14.600  0.6932  1.4233 -1.4042
11556TIP3    H256084   4.847   2.560  14.632 -0.9583 -0.1201  0.9480
11557TIP3   OH256085   3.782   4.813   4.807 -0.3087  0.1225 -0.2030
11557TIP3    H156086   3.780   4.844   4.898 -0.6632 -0.7114  0.0726
11557TIP3    H256087   3.694   4.830   4.774 -1.1657 -2.5568  0.6137
11558TIP3   OH256088   4.914   4.195   0.047  0.9007 -0.0919 -0.4606
11558TIP3    H156089   4.958   4.192   0.131  1.1421  0.3134 -0.5718
11558TIP3    H256090   4.934   4.111   0.006  0.7376 -0.3095 -0.0920
11559TIP3   OH256091   4.953   2.888  15.638 -0.0951 -0.7215 -0.4095
11559TIP3    H156092   4.857   2.889  15.641 -0.0786  1.4094 -0.0212
11559TIP3    H256093   4.974   2.841  15.558 -1.4764 -0.6242 -0.8369
11560TIP3   OH256094   7.190   2.238  15.486 -0.3539 -0.0548 -0.6384
11560TIP3    H156095   7.207   2.256  15.579 -0.2926 -0.1362 -0.6333
11560TIP3    H256096   7.143   2.315  15.455  2.3160  1.3517 -1.3131
11561TIP3   OH256097   5.764   1.844  14.775  0.3597  0.1265 -0.3598
11561TIP3    H156098   5.740   1.760  14.735  2.9459 -0.6069 -0.4333
11561TIP3    H256099   5.828   1.821  14.842  1.0870  2.0585 -0.3732
11562TIP3   OH256100   4.316   5.897  15.034  0.7633 -0.1760 -0.0070
11562TIP3    H156101   4.378   5.952  14.986 -0.4954  1.0796 -0.2547
11562TIP3    H256102   4.233   5.908  14.986  0.0543 -0.8237  1.0498
11563TIP3   OH256103   4.476   2.044   2.139  0.1197 -0.2646 -0.3360
11563TIP3    H156104   4.392   2.052   2.095 -0.1508 -0.4845  0.1436
11563TIP3    H256105   4.457   2.061   2.231  0.7804  0.7452 -0.3798
11564TIP3   OH256106   2.468   4.042   2.262 -0.0440  0.1536 -0.0435
11564TIP3    H156107   2.411   4.040   2.340  0.6710  0.5780  0.4947
11564TIP3    H256108   2.427   4.107   2.205 -1.4937 -1.3397 -0.7405
11565TIP3   OH256109   2.911   0.676   2.140 -0.1333  0.0557  0.8769
11565TIP3    H156110   2.983   0.690   2.080 -0.3137 -0.1208  0.6194
11565TIP3    H256111   2.911   0.753   2.197  0.6897 -0.2659  1.3214
11566TIP3   OH256112   3.975   4.717   1.340  0.1082 -0.3081 -0.1891
11566TIP3    H156113   4.063   4.682   1.355  0.0152  0.1774  1.6534
11566TIP3    H256114   3.920   4.673   1.405 -0.2070  2.3572  1.4684
11567TIP3   OH256115   2.815   3.621  15.687  0.0515 -0.0038  0.3502
11567TIP3    H156116   2.807   3.616  15.782 -0.0285  1.0772  0.4035
11567TIP3    H256117   2.859   3.539  15.662 -3.0238 -1.9189  0.9538
11568TIP3   OH256118   5.966   2.014   1.583 -0.1447 -0.0009  0.6134
11568TIP3    H156119   5.881   2.017   1.626 -0.5707 -0.6373 -0.1581
11568TIP3    H256120   5.990   2.106   1.572 -1.6601  0.2491 -0.9348
11569TIP3   OH256121   4.398   2.867   0.393 -0.0617  0.1249  0.1745
11569TIP3    H156122   4.336   2.854   0.465 -0.3706 -0.7263 -0.2348
11569TIP3    H256123   4.343   2.881   0.316  0.2510 -0.4061 -0.1508
11570TIP3   OH256124   2.988   3.878  15.626 -0.2618 -0.4023 -0.0961
11570TIP3    H156125   3.014   3.831  15.706  1.1477  0.7823  0.1523
11570TIP3    H256126   3.068   3.883  15.574 -1.0729 -0.7758 -1.4020
11571TIP3   OH256127   4.428   3.595   0.477 -0.3475  0.6322 -0.2373
11571TIP3    H156128   4.412   3.519   0.532 -2.7416 -0.2422 -2.0773
11571TIP3    H256129   4.422   3.670   0.537  0.3753 -0.4933  1.2670
11572TIP3   OH256130   2.477   2.661   1.489 -0.5064 -0.3682 -0.9872
11572TIP3    H156131   2.392   2.625   1.515  0.0992 -1.3498 -0.3458
11572TIP3    H256132   2.481   2.644   1.394 -1.3840  0.4442 -1.1792
11573TIP3   OH256133   4.260   3.533   0.207 -0.1004 -0.3225 -0.7832
11573TIP3    H156134   4.168   3.535   0.181 -0.0414 -0.9712 -1.0467
11573TIP3    H256135   4.258   3.528   0.302 -0.3384 -0.3804 -0.7897
11574TIP3   OH256136   3.122   2.464   0.574 -0.1015  0.5674  0.0282
11574TIP3    H156137   3.139   2.485   0.666 -0.3766  1.3176 -0.0944
11574TIP3    H256138   3.129   2.548   0.528  2.0440 -0.0973 -0.9384
11575TIP3   OH256139   5.533   3.226  15.294  0.1377 -0.1365 -0.2904
11575TIP3    H156140   5.561   3.201  15.381 -0.1439  1.0685  0.1680
11575TIP3    H256141   5.526   3.322  15.298 -0.5357 -0.1242 -1.4267
11576TIP3   OH256142   5.866   1.987   2.673 -0.3455 -0.0543  0.2674
11576TIP3    H156143   5.813   2.050   2.722 -0.6300  0.4068 -0.6235
11576TIP3    H256144   5.949   2.033   2.656  0.5300 -0.9302  2.0400
11577TIP3   OH256145   3.015   2.847   1.080 -0.3057 -0.2573 -0.6622
11577TIP3    H156146   3.076   2.781   1.112  1.0111  1.5083  0.5541
11577TIP3    H256147   2.953   2.859   1.151 -1.1943 -0.9567 -1.3098
11578TIP3   OH256148   3.152   4.546   3.847 -0.5915  0.1979  0.6458
11578TIP3    H156149   3.100   4.557   3.768 -0.2429  1.8824  0.6278
11578TIP3    H256150   3.092   4.507   3.910 -2.2193  2.9821  0.9128
11579TIP3   OH256151   4.376   0.937  15.619  0.0991  0.1193  0.2876
11579TIP3    H156152   4.445   0.974  15.564 -0.4491  0.8148  0.0453
11579TIP3    H256153   4.364   1.002  15.689  0.4400 -0.5169  0.9433
11580TIP3   OH256154   4.852   4.224   0.928 -0.3084  0.2445  0.0794
11580TIP3    H156155   4.828   4.304   0.975  0.2014  0.6617 -0.3669
11580TIP3    H256156   4.946   4.214   0.943 -0.4479 -0.5134  0.4932
11581TIP3   OH256157   4.670   1.691  15.744  0.2190  0.2905  0.3837
11581TIP3    H156158   4.633   1.777  15.765  0.3071  0.3922  0.1293
11581TIP3    H256159   4.741   1.710  15.682  1.6559  0.2288  1.9856
11582TIP3   OH256160   3.165   1.220   0.083 -0.1384 -0.4140 -0.2410
11582TIP3    H156161   3.254   1.194   0.060  0.4537 -0.0093  1.5556
11582TIP3    H256162   3.161   1.313   0.062 -0.0188 -0.3487  0.0238
11583TIP3   OH256163   3.958   3.847   3.433 -0.7580 -0.4563  0.0107
11583TIP3    H156164   3.868   3.835   3.464 -0.5839 -1.6793  0.0306
11583TIP3    H256165   4.007   3.775   3.472  0.4721  0.8587  0.9440
11584TIP3   OH256166   2.840   2.397   3.690  0.6303 -0.4205  0.5595
11584TIP3    H156167   2.804   2.415   3.603 -0.9591  1.8378  1.6486
11584TIP3    H256168   2.770   2.351   3.736  0.7176  0.2010  1.3117
11585TIP3   OH256169   4.922   4.588   0.032 -0.2256 -0.1402  0.3615
11585TIP3    H156170   4.845   4.530   0.041  0.1409 -0.7678 -0.4591
11585TIP3    H256171   4.885   4.676   0.028 -0.8219 -0.3450  1.1963
11586TIP3   OH256172   6.516   4.181   2.374 -0.3874  0.5693  0.2147
11586TIP3    H156173   6.449   4.153   2.437  0.2586 -0.3043  0.5124
11586TIP3    H256174   6.516   4.113   2.307  1.4315 -0.3716  1.1251
11587TIP3   OH256175   5.739   2.514  14.556  0.2969  1.0895  0.5307
11587TIP3    H156176   5.791   2.476  14.627 -0.2949 -0.0145  0.3941
11587TIP3    H256177   5.749   2.452  14.484 -0.3878  1.3907  0.1724
11588TIP3   OH256178   3.617   2.805  15.921 -0.0657 -0.2512  0.4578
11588TIP3    H156179   3.553   2.767  15.981 -0.8813 -2.9077 -2.0080
11588TIP3    H256180   3.583   2.785  15.834  2.3263  1.4215 -0.9198
11589TIP3   OH256181   5.735   3.400  14.520 -0.0106 -0.0608  0.2358
11589TIP3    H156182   5.728   3.472  14.458 -0.6869 -1.2489 -1.1108
11589TIP3    H256183   5.646   3.365  14.526  0.3051 -0.7669  0.8656
11590TIP3   OH256184   6.269   2.049   2.426  0.0083 -0.4739  0.4789
11590TIP3    H156185   6.249   2.108   2.353 -0.4357  1.1617  1.8724
11590TIP3    H256186   6.214   1.972   2.411  1.7674 -1.2367 -2.2229
11591TIP3   OH256187   5.107   1.790   1.153  0.1498  0.0802  0.7132
11591TIP3    H156188   5.048   1.714   1.146 -0.9087  0.9628 -0.1594
11591TIP3    H256189   5.192   1.753   1.173 -0.6021 -1.2720  1.4842
11592TIP3   OH256190   2.534   4.285  15.722 -0.6309  0.3141  0.2622
11592TIP3    H156191   2.516   4.207  15.670 -1.4321  0.0090  0.9712
11592TIP3    H256192   2.466   4.347  15.696  0.2192  0.9120 -0.5597
11593TIP3   OH256193   5.250   3.327  14.530 -0.3782  0.4307 -0.6710
11593TIP3    H156194   5.342   3.316  14.506 -0.5043 -1.5936 -0.3065
11593TIP3    H256195   5.236   3.267  14.603 -1.9280  0.9151 -0.5348
11594TIP3   OH256196   0.061   2.974   2.504  0.4926 -0.3034  0.2806
11594TIP3    H156197   0.125   3.036   2.539  0.5808  0.2234 -0.7999
11594TIP3    H256198  -0.021   2.997   2.547  1.1266 -1.3031  2.0472
11595TIP3   OH256199   5.333   2.497   0.558 -0.4914  0.2015  0.0537
11595TIP3    H156200   5.262   2.442   0.589 -0.2769 -0.5404 -0.7835
11595TIP3    H256201   5.376   2.447   0.489 -0.6912  1.6585 -1.1727
11596TIP3   OH256202   3.774   3.868   3.928 -0.0382  0.0058 -0.0438
11596TIP3    H156203   3.682   3.851   3.906  0.2641  1.2743 -2.5278
11596TIP3    H256204   3.770   3.924   4.005 -1.2944 -1.4280  0.9625
11597TIP3   OH256205   5.037   2.312  12.388  0.0511 -0.0305  0.5582
11597TIP3    H156206   4.954   2.339  12.350 -0.5375 -0.6320  1.3887
11597TIP3    H256207   5.096   2.386  12.374 -1.0317  0.9787  1.2570
11598TIP3   OH256208   2.836   4.063  15.807 -0.1013 -0.2407  0.0668
11598TIP3    H156209   2.781   4.095  15.878 -0.5983 -0.5708 -0.1675
11598TIP3    H256210   2.782   3.998  15.762  1.0682 -1.7544  0.8202
11599TIP3   OH256211   3.837   2.815   1.358  0.1790 -0.0385  0.8901
11599TIP3    H156212   3.859   2.723   1.370  0.9928  0.3385  2.4261
11599TIP3    H256213   3.895   2.845   1.288  0.3199 -0.5429  0.7903
11600TIP3   OH256214   2.591   2.783   2.270 -0.2754  0.0834 -0.5190
11600TIP3    H156215   2.674   2.811   2.308 -0.1514 -0.6720 -0.2212
11600TIP3    H256216   2.527   2.846   2.303  0.2821  1.0180 -1.2348
11601TIP3   OH256217   6.077   2.165   3.968  0.5217 -0.1715  0.5910
11601TIP3    H156218   6.137   2.091   3.971  3.2488  2.0085  1.6952
11601TIP3    H256219   5.998   2.130   3.926  2.5872 -3.0689 -1.0578
11602TIP3   OH256220   5.824   4.503   0.588 -0.0680 -0.2693  0.0411
11602TIP3    H156221   5.826   4.425   0.643  0.9680  0.0937  0.5465
11602TIP3    H256222   5.876   4.567   0.637 -1.2472  0.8697 -0.1628
11603TIP3   OH256223   2.669   1.934   3.885 -0.0535  0.6755  0.5469
11603TIP3    H156224   2.586   1.943   3.838 -0.4384 -3.7005  0.2122
11603TIP3    H256225   2.736   1.954   3.821 -0.6998 -1.7216 -0.9304
11604TIP3   OH256226   4.726   3.476   1.786  0.3955  0.2996 -0.4996
11604TIP3    H156227   4.745   3.471   1.692  1.1606  0.7462 -0.3741
11604TIP3    H256228   4.789   3.418   1.827  0.8788  1.0515 -0.1600
11605TIP3   OH256229   2.082   1.400   3.224 -0.1834  0.2453 -0.1872
11605TIP3    H156230   2.049   1.444   3.303 -3.6884  0.4354 -1.6722
11605TIP3    H256231   2.110   1.314   3.254 -0.5747  0.6650  1.4213
11606TIP3   OH256232   3.305   3.103   3.164 -0.2154 -0.6031  0.6359
11606TIP3    H156233   3.305   3.130   3.255 -0.8622 -0.0453  0.4751
11606TIP3    H256234   3.245   3.164   3.120  0.5149 -0.5150 -0.2605
11607TIP3   OH256235   3.963   1.721   2.506 -0.2329 -0.2962 -0.4853
11607TIP3    H156236   3.979   1.645   2.451 -0.2290 -1.4490  1.0978
11607TIP3    H256237   3.907   1.690   2.576  0.2831  0.9995  0.5380
11608TIP3   OH256238   4.327   3.105   2.976 -0.7430 -0.4224 -0.3771
11608TIP3    H156239   4.410   3.080   2.937 -1.4231 -1.7701 -1.0087
11608TIP3    H256240   4.265   3.104   2.903 -1.8523 -2.0872  0.5641
11609TIP3   OH256241   3.353   2.152   2.154  0.1285 -0.4406  0.7210
11609TIP3    H156242   3.376   2.069   2.112 -1.7308 -1.3120  1.3865
11609TIP3    H256243   3.259   2.145   2.170 -0.5700  2.8217 -1.5485
11610TIP3   OH256244   4.753   2.143   1.962 -0.9289  0.4060  0.2385
11610TIP3    H156245   4.677   2.086   1.977 -0.5674 -0.4544 -1.0835
11610TIP3    H256246   4.719   2.232   1.973 -2.4677  0.0960 -1.7479
11611TIP3   OH256247   3.743   4.118   0.558 -0.5379 -0.1544  1.0964
11611TIP3    H156248   3.686   4.043   0.571 -1.2903 -0.5137 -3.2782
11611TIP3    H256249   3.687   4.194   0.573 -1.0333 -0.5114  1.0569
11612TIP3   OH256250   3.755   2.260   2.911 -0.4338  0.1981  0.9392
11612TIP3    H156251   3.754   2.327   2.980 -1.2869  0.6076  0.5307
11612TIP3    H256252   3.817   2.294   2.846  1.7619 -1.0229  2.2996
11613TIP3   OH256253   6.737   3.604   2.181 -0.3332 -0.4351  0.3197
11613TIP3    H156254   6.787   3.641   2.254 -0.4688  0.3249  0.0321
11613TIP3    H256255   6.706   3.681   2.132 -0.8603 -0.9272 -0.1179
11614TIP3   OH256256   3.483   3.691   0.431  0.0141  0.0309 -0.2436
11614TIP3    H156257   3.445   3.714   0.346 -0.0245  1.7259  0.2065
11614TIP3    H256258   3.560   3.639   0.409 -1.5143 -1.8818 -1.2185
11615TIP3   OH256259   5.126   2.940   1.300 -0.6704  0.7249 -0.2823
11615TIP3    H156260   5.146   2.906   1.388 -0.4762 -2.9498 -1.6478
11615TIP3    H256261   5.176   3.021   1.294 -0.5973  0.9992  2.9417
11616TIP3   OH256262   4.864   2.564   2.616  0.1169  0.0139  0.4669
11616TIP3    H156263   4.844   2.518   2.534  0.6084 -1.2732  1.0538
11616TIP3    H256264   4.890   2.652   2.588 -1.0477  0.0174 -0.6645
11617TIP3   OH256265   0.410   2.886   1.556  0.0490  0.1109 -0.4324
11617TIP3    H156266   0.389   2.886   1.649  1.0763  0.2539 -0.1965
11617TIP3    H256267   0.352   2.952   1.518 -0.6546 -0.2344  0.0402
11618TIP3   OH256268   5.047   1.380  14.826 -0.2749 -0.1759 -0.5648
11618TIP3    H156269   4.965   1.345  14.791 -0.2958 -0.8990  0.2085
11618TIP3    H256270   5.046   1.472  14.800 -1.6479 -0.0210  0.0107
11619TIP3   OH256271   3.616   4.010   0.280  0.1213 -0.6226 -0.1430
11619TIP3    H156272   3.633   4.103   0.266 -2.2916  0.0988  1.3535
11619TIP3    H256273   3.574   3.981   0.199  0.9722 -0.4401 -0.6518
11620TIP3   OH256274   3.608   3.743   2.231  0.1406 -0.1026  0.0787
11620TIP3    H156275   3.634   3.798   2.305 -2.2421 -0.4765  1.2476
11620TIP3    H256276   3.670   3.670   2.232 -0.2919 -0.4696  2.1619
11621TIP3   OH256277   4.072   4.488   2.701 -0.0163 -0.1004  0.2670
11621TIP3    H156278   4.138   4.436   2.746  0.9279  0.4190 -0.5073
11621TIP3    H256279   4.115   4.572   2.683 -0.5510 -0.1047 -1.1110
11622TIP3   OH256280   4.593   4.969   0.836  0.2340  0.2133 -0.3296
11622TIP3    H156281   4.569   4.900   0.897 -1.7476  0.2720 -1.0150
11622TIP3    H256282   4.526   5.036   0.846  1.4620  1.5159 -0.5372
11623TIP3   OH256283   6.852   1.416   1.015  0.0659  0.6286  0.4145
11623TIP3    H156284   6.915   1.344   1.024 -0.4240  0.2582  0.8659
11623TIP3    H256285   6.841   1.450   1.104  0.0518  1.0540  0.2511
11624TIP3   OH256286   5.734   3.058   0.193 -0.1618 -0.4543 -0.6338
11624TIP3    H156287   5.685   3.022   0.120  2.2704 -1.1151 -1.9919
11624TIP3    H256288   5.711   3.151   0.194 -1.9717 -0.8806 -0.7730
11625TIP3   OH256289   1.726   3.139   2.817 -0.3313  0.1287  0.6266
11625TIP3    H156290   1.651   3.122   2.759 -0.7521 -0.6831  1.3890
11625TIP3    H256291   1.793   3.077   2.787  0.4807  1.6889 -0.8405
11626TIP3   OH256292   4.617   4.311   1.181 -0.1799 -0.6140 -0.6665
11626TIP3    H156293   4.657   4.360   1.109  0.0695 -2.3428 -1.7667
11626TIP3    H256294   4.687   4.299   1.244 -0.9986  2.9517  1.0400
11627TIP3   OH256295   0.181   0.513   2.088 -0.4668 -0.1533  0.4867
11627TIP3    H156296   0.192   0.456   2.011  2.9414  1.1320 -0.0482
11627TIP3    H256297   0.166   0.600   2.052 -1.5126  0.0261  1.3162
11628TIP3   OH256298   5.212   3.693  15.318  0.4845  0.2469  0.0876
11628TIP3    H156299   5.179   3.604  15.307  1.5699  0.0458 -1.7155
11628TIP3    H256300   5.179   3.720  15.404 -0.8033 -1.4656  0.1652
11629TIP3   OH256301   5.532   3.394   2.214 -1.2130  0.6463  0.1768
11629TIP3    H156302   5.481   3.405   2.134  0.8665 -0.5689 -1.3559
11629TIP3    H256303   5.532   3.299   2.230  0.4593  0.6370  0.2109
11630TIP3   OH256304   4.685   2.403   0.167  0.6340 -0.0196  0.2420
11630TIP3    H156305   4.712   2.470   0.231 -0.0284  0.7264 -0.2484
11630TIP3    H256306   4.717   2.321   0.204  2.6282  0.7197  0.1952
11631TIP3   OH256307   3.523   2.762   2.510  0.7215  0.7418  0.1089
11631TIP3    H156308   3.591   2.812   2.555  0.2914  0.1122  1.5101
11631TIP3    H256309   3.441   2.802   2.538  0.3828 -0.5455  1.0426
11632TIP3   OH256310   4.863   2.536   2.155 -0.3981 -0.4371 -0.2268
11632TIP3    H156311   4.873   2.508   2.246  1.5486 -1.4808 -0.7334
11632TIP3    H256312   4.771   2.521   2.135 -0.8657 -0.0660  1.6088
11633TIP3   OH256313   5.508   1.748   2.941 -0.1184 -0.4501 -0.0634
11633TIP3    H156314   5.495   1.839   2.969 -0.7642 -0.3746 -0.6037
11633TIP3    H256315   5.602   1.733   2.952 -0.0278  0.2447  0.1383
11634TIP3   OH256316   2.839   2.330   0.980 -0.0153  0.0193 -0.2845
11634TIP3    H156317   2.845   2.273   0.904 -0.8853 -0.4795  0.0096
11634TIP3    H256318   2.930   2.346   1.006  0.2375 -1.4379 -0.2209
11635TIP3   OH256319   1.095   2.489   2.696 -0.4149  0.4348 -0.3236
11635TIP3    H156320   1.002   2.465   2.702 -0.3887  0.6476  1.2909
11635TIP3    H256321   1.094   2.583   2.677 -0.5452  0.6858  0.8823
11636TIP3   OH256322   5.745   3.686   2.401 -0.0555 -0.1756 -0.5033
11636TIP3    H156323   5.824   3.650   2.360 -0.5227  0.8131 -2.3249
11636TIP3    H256324   5.676   3.625   2.377 -0.6511  1.3188 -2.6959
11637TIP3   OH256325   3.990   1.735   1.164 -0.0655  0.1612  0.0926
11637TIP3    H156326   4.063   1.703   1.111  0.3792 -0.8102  1.2926
11637TIP3    H256327   3.935   1.658   1.179  0.1030  0.3056  1.5164
11638TIP3   OH256328   3.891   3.256   2.452  0.3417  0.6443  0.1413
11638TIP3    H156329   3.848   3.172   2.441 -0.7713  1.3195 -0.8231
11638TIP3    H256330   3.944   3.267   2.373 -0.8767  1.6098 -0.5612
11639TIP3   OH256331   2.306   3.807   2.936  0.3997 -0.0246  0.2484
11639TIP3    H156332   2.222   3.767   2.957 -0.7932  1.2423 -1.9508
11639TIP3    H256333   2.321   3.870   3.007 -0.2156 -0.6629  0.9546
11640TIP3   OH256334   2.716   6.688   3.068  0.2710 -0.4255 -0.2855
11640TIP3    H156335   2.804   6.675   3.034 -0.1879 -0.5436 -1.4507
11640TIP3    H256336   2.681   6.599   3.078  0.8925 -0.4643  1.8665
11641TIP3   OH256337   5.410   1.122   0.890  0.1156  0.4618  0.3940
11641TIP3    H156338   5.490   1.075   0.867  0.0080  1.0045 -1.0909
11641TIP3    H256339   5.415   1.132   0.985  0.0433 -2.7468  0.8058
11642TIP3   OH256340   4.573   3.569   2.005 -0.0036  0.0579  0.2579
11642TIP3    H156341   4.615   3.636   2.059  1.3875 -1.3273  0.9512
11642TIP3    H256342   4.641   3.543   1.942 -0.6117 -0.4950 -0.1764
11643TIP3   OH256343   3.665   3.144   2.879 -0.0689 -0.1784 -0.1303
11643TIP3    H156344   3.738   3.176   2.826 -0.8910 -0.3482 -1.3937
11643TIP3    H256345   3.620   3.224   2.907  0.1298 -0.1008 -0.0268
11644TIP3   OH256346   5.767   1.888   1.366 -0.1210  0.0156  0.5748
11644TIP3    H156347   5.815   1.939   1.301 -1.5171  0.4182 -0.1639
11644TIP3    H256348   5.750   1.949   1.437 -2.0524  0.7166 -0.4383
11645TIP3   OH256349   3.718   1.608  15.878  0.0441  0.0323 -0.0478
11645TIP3    H156350   3.730   1.582  15.969  2.2647  2.0217  0.2841
11645TIP3    H256351   3.659   1.684  15.882 -1.2741 -0.9377 -0.4619
11646TIP3   OH256352   4.884   3.446  15.120  0.3279 -0.3607 -0.0118
11646TIP3    H156353   4.926   3.447  15.206  0.0169 -0.0598  0.1381
11646TIP3    H256354   4.812   3.383  15.129 -0.4787  0.5901  0.3241
11647TIP3   OH256355   4.743   2.899   1.347  0.1487 -0.0008 -0.8702
11647TIP3    H156356   4.787   2.959   1.286  1.6605 -1.2482 -1.0590
11647TIP3    H256357   4.741   2.816   1.300  3.3352 -1.5725  1.5745
11648TIP3   OH256358   5.000   4.353   3.214  0.1916  0.4044 -0.3711
11648TIP3    H156359   4.953   4.437   3.212 -1.4629 -0.4492  0.9687
11648TIP3    H256360   4.963   4.307   3.290  1.1666 -1.4940 -1.0140
11649TIP3   OH256361   4.788   3.509   1.513 -0.0818  0.2326  0.0968
11649TIP3    H156362   4.694   3.522   1.523 -0.3711 -2.2742  0.8411
11649TIP3    H256363   4.807   3.542   1.425 -1.9383 -0.6329 -0.6592
11650TIP3   OH256364   3.803   4.413   2.019  0.8515  0.0352 -0.0574
11650TIP3    H156365   3.829   4.465   2.095  1.1006 -1.5382  0.9552
11650TIP3    H256366   3.757   4.338   2.056 -0.8481  0.2932 -1.5844
11651TIP3   OH256367   1.982   3.739  13.795  0.6071  0.0798  0.5250
11651TIP3    H156368   2.039   3.707  13.724  1.3815 -1.8787  1.9909
11651TIP3    H256369   2.033   3.724  13.875 -0.6705  1.3433  1.5840
11652TIP3   OH256370   4.996   2.510   1.412 -0.5146 -0.2670 -0.1834
11652TIP3    H156371   4.986   2.434   1.355 -1.2081  0.5800 -1.2180
11652TIP3    H256372   5.043   2.574   1.358 -2.7063  1.1845 -0.4391
11653TIP3   OH256373   5.726   3.613  15.114  0.1816 -0.0969  0.0232
11653TIP3    H156374   5.631   3.605  15.111  0.1187  0.1026  1.0751
11653TIP3    H256375   5.749   3.659  15.034 -0.3309 -2.6069 -1.6193
11654TIP3   OH256376   4.179   3.607   2.206  0.7491  0.8862  0.7053
11654TIP3    H156377   4.249   3.672   2.214  2.0840 -0.5775  1.0192
11654TIP3    H256378   4.216   3.527   2.242  0.3215 -0.9672 -2.7365
11655TIP3   OH256379   4.165   3.927  13.530 -0.1484 -0.2704  0.0505
11655TIP3    H156380   4.208   3.984  13.467  0.5813 -0.0485  0.7390
11655TIP3    H256381   4.141   3.849  13.480 -0.0173  0.1114 -0.6052
11656TIP3   OH256382   4.591   3.859   1.112  0.3213  0.2346 -0.3193
11656TIP3    H156383   4.591   3.766   1.136 -2.2160  0.2012 -0.2951
11656TIP3    H256384   4.683   3.878   1.090  1.0863 -1.9682  0.7882
11657TIP3   OH256385   3.684   6.938  14.227  1.0516 -0.3500 -0.4263
11657TIP3    H156386   3.636   6.950  14.309  1.9047  0.1426  0.0183
11657TIP3    H256387   3.715   7.026  14.204  1.1965 -0.5530 -1.0401
11658TIP3   OH256388   3.218   1.981  13.267 -0.1921  0.0826  0.0808
11658TIP3    H156389   3.213   1.988  13.172  0.6108 -2.0272 -0.1309
11658TIP3    H256390   3.234   2.071  13.297 -3.9657  1.3755 -1.4973
11659TIP3   OH256391   4.528   2.970   1.585 -0.4977  0.5000  0.0401
11659TIP3    H156392   4.612   2.924   1.575 -1.3918 -0.9183 -1.1199
11659TIP3    H256393   4.485   2.924   1.657 -1.1363 -0.0766 -0.7127
11660TIP3   OH256394   4.993   2.301   1.225 -0.0929 -0.3977  0.5680
11660TIP3    H156395   5.004   2.207   1.215  2.7243  0.0029 -0.5408
11660TIP3    H256396   4.923   2.324   1.164 -1.9069 -1.9743  2.0165
11661TIP3   OH256397   3.993   0.470   1.115 -0.6710  0.0082  0.6783
11661TIP3    H156398   4.078   0.471   1.160  0.2561  1.0354 -1.0539
11661TIP3    H256399   3.963   0.561   1.121 -0.6666  0.0894 -0.5375
11662TIP3   OH256400   4.258   3.211  15.005 -0.1453  0.1633 -0.6650
11662TIP3    H156401   4.165   3.193  15.018  0.2065 -1.5488 -0.3037
11662TIP3    H256402   4.269   3.214  14.910 -0.1961 -1.9792 -0.7759
11663TIP3   OH256403   2.768   1.414   2.831 -0.1394  0.7519 -0.6504
11663TIP3    H156404   2.840   1.374   2.782  0.6645  0.1916  0.9412
11663TIP3    H256405   2.755   1.500   2.791 -0.7391 -0.4019 -3.0168
11664TIP3   OH256406   3.395   1.862  14.885  0.3436  0.2414 -0.4348
11664TIP3    H156407   3.359   1.942  14.923 -1.0993 -0.4260 -0.3703
11664TIP3    H256408   3.414   1.806  14.960  1.5111  0.5696 -0.4685
11665TIP3   OH256409   2.267   2.514   1.521  0.1775  0.0293 -0.3324
11665TIP3    H156410   2.297   2.465   1.597  3.6815  1.7843 -0.4609
11665TIP3    H256411   2.194   2.566   1.553  1.8697  1.0526  1.9992
11666TIP3   OH256412   7.242   4.665   1.813 -0.3216  0.0323  0.0793
11666TIP3    H156413   7.238   4.746   1.863 -2.9752  0.1493 -0.2854
11666TIP3    H256414   7.265   4.692   1.724 -1.9714  0.4678 -0.2195
11667TIP3   OH256415   4.819   1.650   2.603 -0.0190  0.0121 -0.1061
11667TIP3    H156416   4.733   1.688   2.622  0.2735  0.6104  0.0299
11667TIP3    H256417   4.825   1.575   2.663 -0.0676  0.5152  0.5404
11668TIP3   OH256418   1.783   1.586   2.677 -0.4405  0.0705  0.3019
11668TIP3    H156419   1.709   1.646   2.677 -1.2267 -0.8127  2.8318
11668TIP3    H256420   1.744   1.499   2.675  0.6035 -0.3965 -0.4809
11669TIP3   OH256421   2.397   3.482  14.729 -0.0946 -0.7292  0.1376
11669TIP3    H156422   2.312   3.525  14.727 -0.8098 -2.1150 -1.2283
11669TIP3    H256423   2.384   3.406  14.786  0.3469 -0.6831  0.2981
11670TIP3   OH256424   5.891   2.113   4.697  0.5582  0.2056 -0.8172
11670TIP3    H156425   5.968   2.089   4.646  0.8847 -0.2894 -0.0967
11670TIP3    H256426   5.862   2.031   4.737 -0.1925  0.4332 -0.8728
11671TIP3   OH256427   3.894   3.331   3.942  0.0852 -0.3641 -0.0534
11671TIP3    H156428   3.955   3.399   3.970  0.1776 -0.5175  0.1225
11671TIP3    H256429   3.884   3.275   4.019  0.0220 -0.5560 -0.2002
11672TIP3   OH256430   1.561   4.395  15.646  0.1238 -0.4484 -0.1219
11672TIP3    H156431   1.491   4.345  15.689 -0.2028 -1.0329 -1.2866
11672TIP3    H256432   1.568   4.476  15.696 -1.4941 -0.3277 -0.0613
11673TIP3   OH256433   6.712   3.758  13.359  0.7709 -0.6941  0.3237
11673TIP3    H156434   6.690   3.676  13.403  0.3494 -0.9555 -0.3568
11673TIP3    H256435   6.628   3.801  13.344  0.9431 -0.4040  0.1761
11674TIP3   OH256436   0.043   2.728   2.717  0.1329 -0.4016 -0.2621
11674TIP3    H156437   0.040   2.783   2.638  1.6652  1.4293  0.9223
11674TIP3    H256438   0.058   2.640   2.684 -0.7891  0.1071 -2.1144
11675TIP3   OH256439   6.859   3.014   0.940 -0.1309  0.2798  0.0292
11675TIP3    H156440   6.809   3.027   1.021  0.7012  2.0843  0.2639
11675TIP3    H256441   6.838   3.089   0.885  1.2231  0.3280 -0.4448
11676TIP3   OH256442   4.745   4.629   1.305 -0.2186 -0.5990 -0.1719
11676TIP3    H156443   4.693   4.709   1.302  0.0725 -0.3821  0.4722
11676TIP3    H256444   4.809   4.638   1.234 -1.4141 -1.1168 -1.3256
11677TIP3   OH256445   3.620   1.066  15.736 -0.0569 -0.1764  0.1667
11677TIP3    H156446   3.552   1.094  15.674  0.7240 -0.6700 -0.9327
11677TIP3    H256447   3.594   0.977  15.761  0.3680 -0.5008 -0.5304
11678TIP3   OH256448   7.171   2.640   0.286  0.3540 -0.3577 -0.0198
11678TIP3    H156449   7.264   2.621   0.293  0.5610  0.4701 -0.4706
11678TIP3    H256450   7.128   2.566   0.329  1.1244 -2.1797 -2.2568
11679TIP3   OH256451   0.144   2.199  15.970 -0.6891 -0.0765 -0.2163
11679TIP3    H156452   0.168   2.176  16.060 -1.6539 -0.0800  0.0445
11679TIP3    H256453   0.058   2.241  15.978 -0.3146  0.8658 -1.0245
11680TIP3   OH256454   6.878   2.552   0.906  0.0678 -0.0568  0.4450
11680TIP3    H156455   6.797   2.577   0.863  0.5186 -0.6719 -0.7832
11680TIP3    H256456   6.860   2.464   0.940  0.3930 -0.4202 -0.3102
11681TIP3   OH256457   5.240   2.514  15.466  0.2544 -0.3418  0.0485
11681TIP3    H156458   5.332   2.510  15.439  0.6795  1.1844  1.1867
11681TIP3    H256459   5.209   2.598  15.432 -0.5813 -0.6241  0.1058
11682TIP3   OH256460   7.054   4.951  15.979  0.0360 -0.0446  0.2054
11682TIP3    H156461   7.149   4.965  15.980  0.2610 -1.3422 -0.8497
11682TIP3    H256462   7.020   5.020  15.922  0.2444  0.9628  1.2965
11683TIP3   OH256463   7.180   1.179   0.844  0.4255 -0.3135 -0.6114
11683TIP3    H156464   7.263   1.190   0.797  0.3132  3.0635 -0.1392
11683TIP3    H256465   7.206   1.179   0.936 -0.1370  1.4656 -0.4397
11684TIP3   OH256466   3.644   1.185   0.909  0.3321  0.0934 -0.1208
11684TIP3    H156467   3.556   1.222   0.904  0.4550  0.1952 -1.7146
11684TIP3    H256468   3.691   1.243   0.968 -0.0741  1.2426 -0.9171
11685TIP3   OH256469   3.863   1.401   2.763  0.2592  0.0785 -0.6092
11685TIP3    H156470   3.836   1.347   2.838  4.0412  0.9739  1.5353
11685TIP3    H256471   3.836   1.490   2.788 -0.0705  0.1272 -1.1394
11686TIP3   OH256472   5.796   2.170  15.892  0.2048  0.1448 -0.3953
11686TIP3    H156473   5.788   2.171  15.987  0.4260 -0.8827 -0.3662
11686TIP3    H256474   5.831   2.257  15.870  0.3458  0.3069  0.4684
11687TIP3   OH256475   5.692   1.563   2.052  0.1258 -0.5581  0.1425
11687TIP3    H156476   5.655   1.545   2.139  0.3815 -1.0348  0.1537
11687TIP3    H256477   5.753   1.491   2.037  2.7234  1.3809  1.0690
11688TIP3   OH256478   5.566   0.979   0.373  0.4992  0.0304  0.2899
11688TIP3    H156479   5.594   0.926   0.448 -0.6229  1.1156  1.5207
11688TIP3    H256480   5.635   1.044   0.363 -0.3458  1.1961  1.7676
11689TIP3   OH256481   4.934   3.089   2.557 -0.1635  0.5079  0.4966
11689TIP3    H156482   4.980   3.020   2.605 -0.6061  1.2436  1.9852
11689TIP3    H256483   4.982   3.096   2.474  0.4115 -0.9865  0.6813
11690TIP3   OH256484   5.059   3.627   0.370  0.5032  0.3181 -0.3924
11690TIP3    H156485   5.059   3.588   0.282  0.3019 -0.9108  0.1581
11690TIP3    H256486   5.145   3.669   0.376  0.2420  1.0455 -1.4527
11691TIP3   OH256487   6.635   3.929   1.560 -0.5433 -0.1309  0.2992
11691TIP3    H156488   6.626   3.917   1.654 -0.4577 -0.6752  0.2404
11691TIP3    H256489   6.697   4.001   1.550 -1.2443  0.5264  0.6654
11692TIP3   OH256490   5.872   2.596  15.139 -0.0685 -0.7751  0.1661
11692TIP3    H156491   5.850   2.518  15.087  2.5631  0.0972 -2.3600
11692TIP3    H256492   5.882   2.666  15.075  0.0620  1.1289  2.1845
11693TIP3   OH256493   1.668   3.093   2.010 -0.5497 -0.3593 -0.1863
11693TIP3    H156494   1.579   3.086   1.977 -0.8885 -0.5478  0.7471
11693TIP3    H256495   1.661   3.149   2.088  0.6730  2.5151 -2.0309
11694TIP3   OH256496   4.482   3.105   1.260 -0.6958  0.0429  0.5588
11694TIP3    H156497   4.455   3.086   1.170  2.0371 -0.7619 -0.1284
11694TIP3    H256498   4.513   3.021   1.294 -1.4600  0.3903  2.1931
11695TIP3   OH256499   3.399   7.101  15.467 -0.2692 -0.3393 -0.0455
11695TIP3    H156500   3.465   7.170  15.467  1.0793 -1.6089 -0.4152
11695TIP3    H256501   3.316   7.147  15.458  0.3758  1.4554  2.7102
11696TIP3   OH256502   4.722   2.895   2.301  0.1417  0.0909  0.1199
11696TIP3    H156503   4.650   2.898   2.364  0.2220  0.6493  0.1809
11696TIP3    H256504   4.680   2.876   2.217 -0.0480  0.1659  0.1996
11697TIP3   OH256505   3.841   3.713   0.560  0.3932 -0.1298 -0.0682
11697TIP3    H156506   3.880   3.722   0.647  1.4405  0.2936 -0.5678
11697TIP3    H256507   3.779   3.786   0.554  1.3672  0.6924 -0.2131
11698TIP3   OH256508   7.199   0.857   1.857 -0.2838 -0.2136  0.1058
11698TIP3    H156509   7.152   0.898   1.929  1.7894 -0.2358  1.4951
11698TIP3    H256510   7.142   0.786   1.828 -1.7126  0.6147  0.8579
11699TIP3   OH256511   5.963   0.811  15.831 -0.0469  0.1758  0.3780
11699TIP3    H156512   6.032   0.831  15.894 -0.8828  2.9406  0.4719
11699TIP3    H256513   5.955   0.890  15.778  0.1991 -1.8636 -2.8274
11700TIP3   OH256514   5.594   2.989   0.409  0.1218  0.1433 -0.3669
11700TIP3    H156515   5.644   2.978   0.328 -0.0514  2.9690 -0.9136
11700TIP3    H256516   5.502   2.983   0.383  0.0827 -0.0621 -0.1878
11701TIP3   OH256517   5.558   3.597   2.989 -0.0192 -0.2514  0.3265
11701TIP3    H156518   5.590   3.643   3.067  0.7978 -0.5226  0.1582
11701TIP3    H256519   5.543   3.666   2.925  1.8959 -0.2581 -0.1688
11702TIP3   OH256520   7.239   2.227   1.509 -0.5988 -0.0636  0.0951
11702TIP3    H156521   7.233   2.292   1.439 -2.4675 -0.0102  0.2682
11702TIP3    H256522   7.296   2.266   1.574 -0.4577  0.7417 -0.5024
11703TIP3   OH256523   0.036   2.238   2.230  0.1282  0.1997  0.0737
11703TIP3    H156524   0.003   2.238   2.140  1.1161  0.8409 -0.3042
11703TIP3    H256525   0.129   2.260   2.220  0.1776  0.5237  1.2747
11704TIP3   OH256526   5.715   4.073   1.753 -0.0399 -0.6446 -0.6789
11704TIP3    H156527   5.748   4.104   1.838  0.7844  0.7138 -1.4763
11704TIP3    H256528   5.645   4.012   1.776  0.9611 -1.2064  1.0056
11705TIP3   OH256529   4.449   1.158   3.035 -0.8329  0.2484  0.2532
11705TIP3    H156530   4.382   1.164   2.967  1.2397  2.2218 -1.7210
11705TIP3    H256531   4.448   1.066   3.062 -2.5467 -0.3070 -1.5805
11706TIP3   OH256532   6.221   3.244   1.434 -0.2979 -0.1060 -0.4211
11706TIP3    H156533   6.133   3.235   1.398  0.2208 -0.8343 -1.5197
11706TIP3    H256534   6.246   3.155   1.458  0.6750 -0.0993 -1.3960
11707TIP3   OH256535   3.982   3.298   0.719 -0.2381  0.0519 -0.1707
11707TIP3    H156536   4.015   3.293   0.629  0.3449  3.6403 -0.2210
11707TIP3    H256537   4.055   3.334   0.770 -1.7753  1.5963  1.0010
11708TIP3   OH256538   4.668   1.981  13.801 -1.2748  0.3851  0.2337
11708TIP3    H156539   4.628   2.033  13.871 -1.3356  0.2370  0.3081
11708TIP3    H256540   4.594   1.934  13.761 -1.4694  1.6993 -0.9835
11709TIP3   OH256541   5.171   3.488   1.158 -0.0498  0.7492  0.3674
11709TIP3    H156542   5.108   3.419   1.138  0.9578 -0.1588  0.2382
11709TIP3    H256543   5.144   3.562   1.104 -3.2063  1.6555  3.0879
11710TIP3   OH256544   4.877   1.489  15.663  0.3314  0.4389 -0.5810
11710TIP3    H156545   4.787   1.459  15.672  0.6892  0.1526  2.9791
11710TIP3    H256546   4.870   1.580  15.634 -1.0087 -0.1944 -2.3125
11711TIP3   OH256547   6.258   2.602   0.461 -0.1932 -0.3584 -0.3444
11711TIP3    H156548   6.171   2.630   0.434 -0.3470 -1.6477 -1.2291
11711TIP3    H256549   6.270   2.517   0.419  1.9289  0.2856 -1.1069
11712TIP3   OH256550   5.205   4.034   1.331 -0.6309  0.5432  0.5174
11712TIP3    H156551   5.141   3.988   1.276 -0.2483 -1.3310  1.6238
11712TIP3    H256552   5.199   3.991   1.416  0.7132  1.6584  1.1867
11713TIP3   OH256553   5.314   2.421   2.794 -0.3996 -0.4056  0.6523
11713TIP3    H156554   5.296   2.512   2.815 -2.1482 -1.0208  1.9079
11713TIP3    H256555   5.403   2.406   2.828 -0.1980  0.7526  0.6512
11714TIP3   OH256556   6.546   2.668   0.201  0.2103  0.6419 -0.2993
11714TIP3    H156557   6.554   2.763   0.205  1.1112  0.5598 -0.0637
11714TIP3    H256558   6.452   2.652   0.191  0.0836  1.5602 -0.5772
11715TIP3   OH256559   1.478   2.605   1.994 -0.8272  0.4249  0.2360
11715TIP3    H156560   1.463   2.608   1.899 -1.8849  0.8293  0.4076
11715TIP3    H256561   1.526   2.686   2.013  0.1754 -0.0919 -0.0840
11716TIP3   OH256562   4.175   2.770   0.545 -0.4065  0.2766  0.5430
11716TIP3    H156563   4.099   2.751   0.599  0.6945  1.0971  2.4507
11716TIP3    H256564   4.203   2.685   0.512 -1.4636 -0.1677  0.7632
11717TIP3   OH256565   5.262   3.971  15.708 -0.2572 -0.0026 -0.1740
11717TIP3    H156566   5.186   3.916  15.687  0.1012 -0.0337 -1.4033
11717TIP3    H256567   5.332   3.908  15.724  0.1185  0.0835 -1.4450
11718TIP3   OH256568   5.917   3.633   0.298  0.2016  0.8381 -0.3663
11718TIP3    H156569   5.901   3.556   0.243  0.9455 -1.0679  2.0073
11718TIP3    H256570   5.893   3.605   0.386  0.7373  3.2718  0.5910
11719TIP3   OH256571   5.236   2.983  15.905  0.4288 -0.2174  0.4977
11719TIP3    H156572   5.160   2.932  15.931 -0.4387  0.4871 -0.6035
11719TIP3    H256573   5.207   3.032  15.828  1.5325  1.1724  0.9351
11720TIP3   OH256574   6.973   3.874   2.094 -0.1101  0.2177 -0.2269
11720TIP3    H156575   6.948   3.817   2.167  1.7911 -0.3578 -0.0042
11720TIP3    H256576   7.045   3.926   2.128  0.5784  0.1784 -1.6012
11721TIP3   OH256577   5.717   2.615   1.628 -0.1904 -0.0767 -0.0358
11721TIP3    H156578   5.786   2.575   1.680 -1.4499 -1.3038  0.7393
11721TIP3    H256579   5.679   2.542   1.578 -1.9655  0.2738  0.7586
11722TIP3   OH256580   7.122   4.790   0.923  0.0222  0.0792  0.1024
11722TIP3    H156581   7.204   4.759   0.884 -0.4602 -1.2722  0.1693
11722TIP3    H256582   7.105   4.873   0.878  0.9659 -0.0549 -0.5305
11723TIP3   OH256583   0.469   1.572  15.696  0.2312 -0.1681 -0.4314
11723TIP3    H156584   0.419   1.653  15.703  0.8813  0.4047 -2.0698
11723TIP3    H256585   0.532   1.576  15.769 -0.3752  0.3342  0.0649
11724TIP3   OH256586   4.141   2.481   2.662  0.5128 -0.0579 -0.0510
11724TIP3    H156587   4.187   2.511   2.740  1.1034  2.7762 -1.4008
11724TIP3    H256588   4.191   2.406   2.631  1.4310  0.0407  1.1748
11725TIP3   OH256589   1.397   1.148   0.666  0.1212  0.1408 -0.3435
11725TIP3    H156590   1.341   1.120   0.739  1.0784 -2.5000 -0.6084
11725TIP3    H256591   1.441   1.227   0.700 -0.9694  0.1253  1.1898
11726TIP3   OH256592   1.972   7.179   1.698  0.0045  0.3684  0.7391
11726TIP3    H156593   1.978   7.273   1.716  0.0967  0.7182 -1.0462
11726TIP3    H256594   2.062   7.149   1.698  0.0933  0.5954 -0.1919
11727TIP3   OH256595   7.051   1.663   1.257  0.3652 -0.3444  0.8700
11727TIP3    H156596   7.047   1.656   1.353  2.1531  0.5369  1.0302
11727TIP3    H256597   7.042   1.757   1.240 -1.2447 -0.6256  0.0747
11728TIP3   OH256598   5.846   3.422  15.599  0.8266  0.4060 -0.5413
11728TIP3    H156599   5.840   3.460  15.511  0.7535  0.5978 -0.4558
11728TIP3    H256600   5.769   3.456  15.644  0.7395  0.1203 -0.4756
11729TIP3   OH256601   7.133   1.435   0.864  0.0744  0.0435  0.1960
11729TIP3    H156602   7.219   1.473   0.879  0.4836  0.5037 -2.9327
11729TIP3    H256603   7.150   1.342   0.847 -0.3244 -0.3716  1.9588
11730TIP3   OH256604   5.816   0.159   0.850 -0.1197  0.4058  0.1154
11730TIP3    H156605   5.738   0.180   0.902 -0.9047 -3.3873  0.6705
11730TIP3    H256606   5.780   0.123   0.768  1.0328 -0.4741 -0.0138
11731TIP3   OH256607   5.449   4.364   0.030  0.1088 -0.6772 -0.3976
11731TIP3    H156608   5.485   4.280   0.059 -0.2652 -0.6159  0.2664
11731TIP3    H256609   5.389   4.341  -0.041  0.9975 -0.8376 -1.1056
11732TIP3   OH256610   0.255   7.240   0.714 -0.2796  0.5665  0.5323
11732TIP3    H156611   0.327   7.179   0.696  0.1288  0.7739  1.4551
11732TIP3    H256612   0.287   7.295   0.785 -1.2808  0.7921  0.8176
11733TIP3   OH256613   4.392   2.693  15.707 -0.0252  0.3122 -0.3082
11733TIP3    H156614   4.452   2.723  15.775  0.0171  1.6470 -0.9084
11733TIP3    H256615   4.369   2.604  15.732  0.3873  0.6103  1.1814
11734TIP3   OH256616   4.653   3.872   1.519  0.5805 -0.0063  0.3565
11734TIP3    H156617   4.713   3.941   1.491  1.3924 -0.9202 -0.1559
11734TIP3    H256618   4.699   3.827   1.589 -0.5104  0.8111  1.6227
11735TIP3   OH256619   5.253   3.609  14.265  0.1434  0.3909 -0.1532
11735TIP3    H156620   5.202   3.533  14.235  1.0107 -0.4074  0.3561
11735TIP3    H256621   5.214   3.632  14.349  0.6463 -0.2488  0.2597
11736TIP3   OH256622   6.789   0.834   1.674  0.8606 -0.6231 -0.9265
11736TIP3    H156623   6.849   0.768   1.708  0.1370 -1.7943 -1.8649
11736TIP3    H256624   6.773   0.808   1.583 -0.1648  0.3081 -1.0322
11737TIP3   OH256625   6.821   3.303   1.753  0.7206  0.1558  0.3410
11737TIP3    H156626   6.818   3.273   1.844 -0.2438  1.0934  0.6377
11737TIP3    H256627   6.760   3.245   1.707  3.5623 -2.3741 -0.3796
11738TIP3   OH256628   4.177   1.930   3.008 -0.0000 -0.6646  0.6559
11738TIP3    H156629   4.256   1.957   2.962 -1.0496  0.5660 -0.4698
11738TIP3    H256630   4.140   1.861   2.953 -2.2550  2.0898 -1.4495
11739TIP3   OH256631   5.376   1.194   0.350 -0.3067 -0.0508  0.8307
11739TIP3    H156632   5.432   1.118   0.336 -3.3646 -2.4754  1.1802
11739TIP3    H256633   5.414   1.239   0.425  2.8915  0.1432 -0.8046
11740TIP3   OH256634   5.803   0.585   0.594 -0.6769  0.2432 -0.0597
11740TIP3    H156635   5.874   0.633   0.553  0.1959 -0.8860  0.0975
11740TIP3    H256636   5.826   0.492   0.583 -1.9900 -0.1372  0.2121
11741TIP3   OH256637   5.821   2.103   1.203 -0.2779 -0.3706 -0.6021
11741TIP3    H156638   5.853   2.150   1.126 -1.1317 -0.9422 -1.3166
11741TIP3    H256639   5.804   2.172   1.268  3.5687 -0.1506  0.2728
11742TIP3   OH256640   1.025   4.772   2.322  0.7893 -0.3860  0.1754
11742TIP3    H156641   1.009   4.866   2.332 -2.3708 -0.7071 -1.1750
11742TIP3    H256642   0.963   4.730   2.382 -0.1137 -1.6578 -1.6030
11743TIP3   OH256643   0.092   1.622   2.834  0.0053 -0.2343  0.0219
11743TIP3    H156644   0.081   1.597   2.742 -1.3480 -0.2322  0.1727
11743TIP3    H256645   0.008   1.600   2.875 -0.9747  3.6940  0.3268
11744TIP3   OH256646   4.961   2.516  15.299  0.1418 -0.4029 -0.1996
11744TIP3    H156647   5.005   2.510  15.214  0.0221 -0.8982 -0.2250
11744TIP3    H256648   4.962   2.427  15.333 -1.3159 -0.5082 -0.4326
11745TIP3   OH256649   7.299   0.905   0.647  0.6139  0.6692 -0.1978
11745TIP3    H156650   7.353   0.834   0.611  1.4077  2.1598 -2.0152
11745TIP3    H256651   7.256   0.943   0.571 -0.2654  1.7742  0.8395
11746TIP3   OH256652   5.522   2.620   0.725 -0.1490 -0.1126  0.7369
11746TIP3    H156653   5.464   2.562   0.676 -0.1157 -0.8489  1.5639
11746TIP3    H256654   5.475   2.641   0.805  0.0899  0.5246  0.7155
11747TIP3   OH256655   5.475   2.492   1.124 -0.1189 -0.7011  0.5874
11747TIP3    H156656   5.428   2.543   1.058  1.5728 -0.8035 -0.7169
11747TIP3    H256657   5.407   2.444   1.171 -1.5701  1.2801  0.5753
11748TIP3   OH256658   0.194   2.012   1.049  0.1880 -0.4716  0.0003
11748TIP3    H156659   0.271   1.970   1.089  0.5754  0.7147  0.5209
11748TIP3    H256660   0.219   2.104   1.041 -1.3201 -0.0051  0.4977
11749TIP3   OH256661   0.919   0.413   1.753  0.8339 -0.3617 -0.3212
11749TIP3    H156662   1.000   0.363   1.759  1.0830  0.0587 -0.1384
11749TIP3    H256663   0.921   0.452   1.665  0.2062 -1.4012 -0.8059
11750TIP3   OH256664   5.638   1.573   1.796 -0.0410  0.0137  0.4745
11750TIP3    H156665   5.668   1.565   1.886 -1.4094 -0.1030  0.9306
11750TIP3    H256666   5.676   1.654   1.765 -0.4435  0.6123  1.5183
11751TIP3   OH256667   4.608   1.829   0.681  0.5661 -0.1332 -0.0406
11751TIP3    H156668   4.658   1.758   0.640  0.5951 -1.1699  1.7347
11751TIP3    H256669   4.581   1.794   0.765  1.1425  2.2139  1.1714
11752TIP3   OH256670   6.118   7.250   1.029  0.2208 -0.4349  0.3459
11752TIP3    H156671   6.096   7.226   0.939 -1.0442 -1.4654  0.9061
11752TIP3    H256672   6.193   7.194   1.051 -0.4260 -1.2982  0.4186
11753TIP3   OH256673   5.689   1.280   1.434 -0.2005  0.1268 -0.1830
11753TIP3    H156674   5.718   1.205   1.485  1.1598 -0.6595 -2.0313
11753TIP3    H256675   5.749   1.351   1.458  1.5587 -0.7139 -1.8791
11754TIP3   OH256676   6.753   1.117   1.629  0.4158 -0.1879  0.2805
11754TIP3    H156677   6.779   1.025   1.635  0.4308 -0.2436 -0.6418
11754TIP3    H256678   6.666   1.120   1.668  0.1194 -0.7191 -0.3292
11755TIP3   OH256679   1.025   1.497   0.830  0.3023  0.4763  0.7843
11755TIP3    H156680   0.967   1.468   0.760 -0.5481  0.9745  1.2824
11755TIP3    H256681   1.109   1.513   0.786  0.0971 -0.3475  0.0871
11756TIP3   OH256682   3.390   2.564   4.312  0.5198 -0.2061  0.2103
11756TIP3    H156683   3.386   2.527   4.400  0.3278  2.7130  1.4856
11756TIP3    H256684   3.299   2.583   4.290  0.5836 -0.7783 -0.5600
11757TIP3   OH256685   5.593   3.817   0.822 -0.4302  0.0089 -0.3114
11757TIP3    H156686   5.563   3.750   0.884  0.3311 -1.8186 -1.8809
11757TIP3    H256687   5.553   3.898   0.854 -0.2266 -0.9239  2.4392
11758TIP3   OH256688   4.570   5.835   1.137 -0.5263 -0.1471 -0.5207
11758TIP3    H156689   4.597   5.747   1.110  0.5920  0.1224 -0.3000
11758TIP3    H256690   4.488   5.851   1.089 -0.7809 -1.3426 -0.4830
11759TIP3   OH256691   5.356   3.695   0.216 -0.7328 -0.4160 -0.3664
11759TIP3    H156692   5.306   3.647   0.150 -0.4782  0.1764 -0.9963
11759TIP3    H256693   5.441   3.710   0.175 -0.0104 -1.4582  0.7119
11760TIP3   OH256694   4.624   3.014   0.429 -0.6167  0.1320 -0.3849
11760TIP3    H156695   4.694   2.955   0.399  0.8543  0.8020  1.6863
11760TIP3    H256696   4.546   2.984   0.380  0.3386 -2.7875 -0.2458
11761TIP3   OH256697   4.714   4.887   1.981 -0.2134 -0.3758 -0.6872
11761TIP3    H156698   4.667   4.806   2.003 -0.3878 -0.5382 -1.6441
11761TIP3    H256699   4.803   4.873   2.014 -1.1025  0.3786  2.1628
11762TIP3   OH256700   5.888   3.544   1.944  0.1480 -0.7079  0.3183
11762TIP3    H156701   5.843   3.471   1.987  0.1827 -0.5503  0.6193
11762TIP3    H256702   5.844   3.552   1.859 -1.2362  0.2497  1.0910
11763TIP3   OH256703   6.727   3.243   2.019  0.0543  0.1413  0.7790
11763TIP3    H156704   6.749   3.189   2.095  1.5847 -1.0390 -0.4602
11763TIP3    H256705   6.632   3.233   2.009 -0.0097 -0.4960  1.9418
11764TIP3   OH256706   6.901   5.364   2.620 -0.0682  0.2634 -0.3395
11764TIP3    H156707   6.848   5.326   2.689 -1.5390  1.8583 -0.5807
11764TIP3    H256708   6.928   5.288   2.567  0.4946 -0.8876  1.5319
11765TIP3   OH256709   0.244   2.812   1.811 -0.2552 -0.0099 -0.2270
11765TIP3    H156710   0.283   2.885   1.861 -0.0284 -0.4366  0.2242
11765TIP3    H256711   0.174   2.853   1.759 -0.7958  0.3769  0.7853
11766TIP3   OH256712   6.821   2.514   3.950 -0.6185 -0.2956  0.6602
11766TIP3    H156713   6.908   2.555   3.953 -1.1445  1.0256 -1.2326
11766TIP3    H256714   6.822   2.463   3.869 -0.9799 -1.7796  1.5700
11767TIP3   OH256715   7.147   2.577  15.917 -0.4704  0.0070  0.0298
11767TIP3    H156716   7.059   2.611  15.899  0.0436  1.5097  0.3490
11767TIP3    H256717   7.201   2.654  15.930  0.8361 -0.9198  0.2128
11768TIP3   OH256718   5.657   3.330  14.999 -0.6369 -0.0452 -0.0912
11768TIP3    H156719   5.651   3.379  14.917  0.2723 -0.4702 -0.4340
11768TIP3    H256720   5.748   3.341  15.026 -0.5364 -1.1709  0.0489
11769TIP3   OH256721   6.702   4.587   1.264  0.5690  0.2041  0.1936
11769TIP3    H156722   6.759   4.615   1.336  1.6648  1.6068 -1.1790
11769TIP3    H256723   6.756   4.527   1.213  0.3998  0.6144 -0.4656
11770TIP3   OH256724   5.237   4.454   0.354  0.1118 -0.0780 -0.1244
11770TIP3    H156725   5.160   4.506   0.333  0.3820  0.6410  0.6358
11770TIP3    H256726   5.283   4.505   0.421  1.1469 -0.5819 -0.4346
11771TIP3   OH256727   1.145   2.106   1.102 -0.1762 -0.8420  0.2180
11771TIP3    H156728   1.054   2.119   1.129 -0.2425 -1.0020  0.0733
11771TIP3    H256729   1.171   2.189   1.062  0.1337 -0.3809  1.3748
11772TIP3   OH256730   4.194   1.257   2.418  0.1039  0.6735  0.3340
11772TIP3    H156731   4.258   1.219   2.478  0.5193  1.4128  0.3675
11772TIP3    H256732   4.247   1.305   2.354 -0.3567  0.2290 -0.3831
11773TIP3   OH256733   4.727   2.620  15.990  0.7627 -0.4400 -0.8045
11773TIP3    H156734   4.712   2.528  16.010  0.8725 -0.4316 -0.6784
11773TIP3    H256735   4.820   2.625  15.967  0.6186 -0.4590 -1.3872
11774TIP3   OH256736   5.268   1.480   1.506 -0.1166 -0.2401 -0.3954
11774TIP3    H156737   5.343   1.520   1.462  0.0965  0.3853  0.5361
11774TIP3    H256738   5.277   1.387   1.486  0.8262 -0.1543 -0.4222
11775TIP3   OH256739   4.318   3.236   2.593 -0.2480  0.2557  0.3854
11775TIP3    H156740   4.309   3.184   2.513 -0.4882 -0.6129  0.9611
11775TIP3    H256741   4.271   3.185   2.660 -1.4078  1.7619  0.7303
11776TIP3   OH256742   6.310   0.335   2.552 -0.6773 -0.2705  0.5986
11776TIP3    H156743   6.325   0.242   2.537  1.8350  0.1783  0.1311
11776TIP3    H256744   6.393   0.367   2.589 -1.7724  1.6225  1.4649
11777TIP3   OH256745   5.805   4.442   1.791  0.3902  0.8305 -0.0340
11777TIP3    H156746   5.736   4.508   1.781 -1.3415 -1.2838 -2.9428
11777TIP3    H256747   5.763   4.370   1.837  1.1710  0.2028 -0.2994
11778TIP3   OH256748   4.645   0.619   0.727  0.0628  0.5766 -0.2925
11778TIP3    H156749   4.586   0.661   0.665  0.2621 -0.6363 -1.3345
11778TIP3    H256750   4.657   0.530   0.692 -0.2018 -0.2846  1.7487
11779TIP3   OH256751   7.148   2.771   1.859  0.1265  0.5988  0.0115
11779TIP3    H156752   7.111   2.808   1.939 -0.6003  0.8058 -0.4201
11779TIP3    H256753   7.201   2.842   1.823  1.3918  0.1339  0.9000
11780TIP3   OH256754   5.368   1.479   1.065 -0.7657  0.4314  0.1190
11780TIP3    H156755   5.326   1.403   1.106 -0.7161 -0.5930 -1.6683
11780TIP3    H256756   5.461   1.470   1.087 -0.8322  0.2590  0.3318
11781TIP3   OH256757   5.826   3.413  15.303  0.1199  0.1412 -0.1186
11781TIP3    H156758   5.771   3.475  15.255 -1.9253 -2.1118 -0.7752
11781TIP3    H256759   5.870   3.362  15.235 -0.7176 -1.2880  0.4080
11782TIP3   OH256760   4.945   3.132  14.577  0.5631  0.2276  0.3613
11782TIP3    H156761   5.040   3.125  14.580  0.6077  0.0255 -1.1988
11782TIP3    H256762   4.923   3.196  14.645  1.9322  1.2901 -0.1768
11783TIP3   OH256763   0.782   3.748   2.743  0.2158  0.2768 -0.0128
11783TIP3    H156764   0.861   3.779   2.699  0.3532 -1.6416 -1.2006
11783TIP3    H256765   0.813   3.713   2.827  0.4230  0.8818  0.1620
11784TIP3   OH256766   6.654   1.664   1.130  0.2812 -0.2709 -0.5200
11784TIP3    H156767   6.558   1.659   1.126  0.2561 -0.7808  0.5021
11784TIP3    H256768   6.679   1.701   1.046 -0.7169 -1.6639 -1.4638
11785TIP3   OH256769   6.516   2.035   1.674 -0.0211  0.2216 -0.5296
11785TIP3    H156770   6.477   2.119   1.701 -0.4797  0.1118 -0.8390
11785TIP3    H256771   6.519   1.983   1.754  0.8955  0.7760 -0.1954
11786TIP3   OH256772   5.985   2.476   1.723 -0.5141  0.7493 -0.0984
11786TIP3    H156773   6.038   2.551   1.751  2.0388 -0.9071 -0.3407
11786TIP3    H256774   6.022   2.451   1.638 -1.4474 -0.6746 -0.0945
11787TIP3   OH256775   0.516   4.858   1.769  0.1091 -0.2555  0.1044
11787TIP3    H156776   0.506   4.810   1.687  0.2708  0.3023 -0.2400
11787TIP3    H256777   0.428   4.862   1.805 -0.4538  2.0478 -1.4705
11788TIP3   OH256778   7.218   2.842   0.616  0.2374 -0.1302 -0.0158
11788TIP3    H156779   7.125   2.834   0.595  0.6754 -4.6752 -0.9463
11788TIP3    H256780   7.256   2.885   0.540 -1.0377  1.3337  0.1638
11789TIP3   OH256781   5.371   0.282   1.819  0.4793  0.5639  0.3983
11789TIP3    H156782   5.403   0.192   1.814  1.6164  0.8997  1.3784
11789TIP3    H256783   5.390   0.310   1.909  0.3347  1.8547  0.0483
11790TIP3   OH256784   6.135   4.308   0.107 -0.1833  0.9925  0.5164
11790TIP3    H156785   6.125   4.214   0.122  1.0797  0.9002  0.8482
11790TIP3    H256786   6.153   4.345   0.193  1.5632  1.2264  0.0609
11791TIP3   OH256787   5.440   0.747   2.330 -0.0261 -0.6822  0.3650
11791TIP3    H156788   5.354   0.781   2.354  0.1451 -0.0428  0.0717
11791TIP3    H256789   5.501   0.817   2.352  0.1915 -0.2920 -1.4451
11792TIP3   OH256790   5.931   3.644   2.200  0.1133 -0.0918 -0.6644
11792TIP3    H156791   5.994   3.585   2.242 -0.5776 -1.7650 -1.9170
11792TIP3    H256792   5.920   3.608   2.112  0.7680  2.7443 -1.9604
11793TIP3   OH256793   6.732   2.868   0.729  0.2176 -0.5171  0.1998
11793TIP3    H156794   6.645   2.898   0.756  0.7203  0.9575  0.2223
11793TIP3    H256795   6.792   2.921   0.782  1.1390 -0.7522 -0.6130
11794TIP3   OH256796   7.048   3.319   1.530  0.4229 -0.1954 -0.2470
11794TIP3    H156797   7.006   3.332   1.615  0.0463 -0.4914 -0.3888
11794TIP3    H256798   7.004   3.381   1.472 -0.2089 -0.8976 -0.5272
11795TIP3   OH256799   6.393   2.989   1.559 -0.2129  0.3678 -0.4380
11795TIP3    H156800   6.477   2.983   1.514  0.7447  1.4844  1.1480
11795TIP3    H256801   6.347   2.909   1.534  0.8897  0.2230 -2.1423
11796TIP3   OH256802   4.087   2.690  15.633  0.4533 -0.0082  0.1796
11796TIP3    H156803   4.170   2.650  15.659  1.6555  1.4568 -1.3759
11796TIP3    H256804   4.053   2.633  15.564  1.3949  0.7856 -0.9366
11797TIP3   OH256805   5.526   1.026   2.506 -0.4603  0.4974 -0.2620
11797TIP3    H156806   5.565   1.037   2.593 -1.4176 -0.7800  0.3406
11797TIP3    H256807   5.434   1.004   2.524 -0.9753  1.4929 -1.6259
11798TIP3   OH256808   6.112   1.675  15.567 -0.5029  0.1326 -0.1852
11798TIP3    H156809   6.087   1.591  15.527 -1.4609  0.8615 -1.1350
11798TIP3    H256810   6.182   1.709  15.511 -0.2240  0.0467  0.1090
11799TIP3   OH256811   0.505   4.347   1.999  0.1195 -0.3344 -0.3581
11799TIP3    H156812   0.463   4.430   1.976 -1.7884 -1.2698 -0.3098
11799TIP3    H256813   0.517   4.353   2.094 -0.6611 -0.3961 -0.2509
11800TIP3   OH256814   6.958   3.740   2.323 -0.4870 -0.5552  0.7865
11800TIP3    H156815   7.031   3.705   2.373  1.8762  1.4062 -1.1195
11800TIP3    H256816   6.942   3.827   2.361  0.4703  0.4121 -0.9630
11801TIP3   OH256817   1.564   2.701   0.194 -0.2278  0.2633 -0.0417
11801TIP3    H156818   1.646   2.698   0.243 -0.6931  0.6674  0.7595
11801TIP3    H256819   1.498   2.667   0.254 -0.7371  0.4258 -0.5059
11802TIP3   OH256820   0.357   0.341   0.055 -0.3027 -0.0694 -0.9660
11802TIP3    H156821   0.450   0.345   0.077 -0.6081  0.6289  0.2198
11802TIP3    H256822   0.338   0.247   0.048  0.1168 -0.2813  0.4934
11803TIP3   OH256823   5.205   3.045   1.862  0.6284  0.1003 -0.1692
11803TIP3    H156824   5.231   2.985   1.932 -1.4091  1.3755  1.7751
11803TIP3    H256825   5.287   3.084   1.833  1.5132 -0.2722  1.7072
11804TIP3   OH256826   6.385   7.170   1.788 -0.3994 -0.0697 -0.8446
11804TIP3    H156827   6.315   7.125   1.834  0.7273 -2.7613 -1.6698
11804TIP3    H256828   6.342   7.210   1.712 -1.2373 -0.6296 -0.6696
11805TIP3   OH256829   3.151   6.905   2.454 -0.2336 -0.1235 -0.0630
11805TIP3    H156830   3.126   6.965   2.524 -1.5714 -0.1689 -0.4995
11805TIP3    H256831   3.070   6.863   2.427  0.3186 -0.3479 -1.4272
11806TIP3   OH256832   6.002   2.069   3.595 -0.0795  0.0896  0.5618
11806TIP3    H156833   6.098   2.068   3.599 -0.1279 -0.0244  1.9088
11806TIP3    H256834   5.978   1.980   3.572  0.1188 -0.0655  0.9476
11807TIP3   OH256835   4.447   2.794   1.342  0.6339 -0.0318 -0.0963
11807TIP3    H156836   4.522   2.805   1.400 -0.5769  1.9707  1.1363
11807TIP3    H256837   4.379   2.754   1.396  0.7749 -1.7458 -1.1750
11808TIP3   OH256838   6.925   2.285   1.979  0.4414  0.3144 -0.2792
11808TIP3    H156839   6.968   2.272   1.895 -1.9177 -0.7199 -1.3424
11808TIP3    H256840   6.954   2.210   2.032 -0.3573 -0.5915 -1.1171
11809TIP3   OH256841   5.952   6.800   1.390 -0.9310  0.5582 -0.2756
11809TIP3    H156842   5.950   6.879   1.445 -1.4805  0.3764 -0.0370
11809TIP3    H256843   5.877   6.809   1.332 -1.8847 -0.5227  0.7692
11810TIP3   OH256844   5.140   0.181   2.160 -0.2927 -0.3173 -0.0558
11810TIP3    H156845   5.099   0.218   2.082  1.9138  0.8695 -0.6975
11810TIP3    H256846   5.109   0.236   2.232  1.2472  1.4742 -0.7187
11811TIP3   OH256847   5.938   0.577   1.730 -0.2608 -0.0809  0.1064
11811TIP3    H156848   5.848   0.604   1.716  0.2119  2.3712  1.5714
11811TIP3    H256849   5.936   0.529   1.813 -0.4051 -1.1005 -0.4754
11812TIP3   OH256850   4.533   0.953   2.402  0.3476 -0.4005  0.2454
11812TIP3    H156851   4.474   0.939   2.328 -1.5596  1.2568  1.3911
11812TIP3    H256852   4.612   0.991   2.363 -0.9885  1.3114 -0.8683
11813TIP3   OH256853   0.258   3.935   1.214  0.1728  0.1395 -0.0889
11813TIP3    H156854   0.259   3.891   1.129  0.2127 -0.8765  0.4307
11813TIP3    H256855   0.165   3.943   1.236  0.0332  2.5906 -1.3207
11814TIP3   OH256856   5.005   2.257   0.093  0.2428  0.2125 -0.2789
11814TIP3    H156857   5.063   2.319   0.048  0.3698 -0.3381 -0.8872
11814TIP3    H256858   4.961   2.211   0.022 -1.3060  0.9578  0.1860
11815TIP3   OH256859   5.429   3.741  15.548 -0.2758 -0.9814 -0.0940
11815TIP3    H156860   5.502   3.690  15.585  0.1614 -1.0159 -0.9889
11815TIP3    H256861   5.442   3.829  15.581  1.0111 -0.6569 -1.3975
11816TIP3   OH256862   5.540   4.697  15.621 -0.3083 -0.0720  0.6329
11816TIP3    H156863   5.476   4.628  15.610 -1.4323  0.5854  2.6318
11816TIP3    H256864   5.532   4.723  15.713  2.0333  0.8018  0.6448
11817TIP3   OH256865   6.311   3.151   1.753  0.3816  0.4083  0.1273
11817TIP3    H156866   6.295   3.079   1.815  0.3084 -0.1634 -0.5521
11817TIP3    H256867   6.349   3.109   1.676 -0.7587  0.9198 -0.7432
11818TIP3   OH256868   0.191   4.247   1.943  0.4301 -0.3726  0.0971
11818TIP3    H156869   0.133   4.281   1.874  1.2714  2.5839  0.8030
11818TIP3    H256870   0.277   4.242   1.902  0.7957  0.7416  0.7049
11819TIP3   OH256871   4.331   2.265   2.640  0.4425  0.2754  0.2581
11819TIP3    H156872   4.408   2.317   2.662  0.6853 -0.3196  0.8211
11819TIP3    H256873   4.358   2.174   2.653 -0.9879  0.1306  2.5033
11820TIP3   OH256874   1.328   1.564   1.121  0.1280  0.3022 -0.3616
11820TIP3    H156875   1.309   1.614   1.041  0.6329 -0.0639 -0.7123
11820TIP3    H256876   1.395   1.616   1.166  0.3048  0.1843 -0.4893
11821TIP3   OH256877   5.767   2.075   1.755  0.3583  0.0788  0.4290
11821TIP3    H156878   5.806   2.088   1.841 -0.0221  0.0082  0.6122
11821TIP3    H256879   5.705   2.147   1.745  0.8324  0.4216 -0.0327
11822TIP3   OH256880   0.715   2.708   1.939  0.0732 -1.0492 -0.9651
11822TIP3    H156881   0.773   2.779   1.912  0.8985 -0.8814  1.0959
11822TIP3    H256882   0.640   2.752   1.979  0.1750 -1.3113 -0.4763
11823TIP3   OH256883   5.202   3.531   2.584  0.2556  0.2156  0.2950
11823TIP3    H156884   5.264   3.480   2.532 -0.5466 -1.0581  0.5549
11823TIP3    H256885   5.240   3.532   2.672 -1.1167 -2.4456  0.9803
11824TIP3   OH256886   0.023   1.692   1.204 -1.1201  0.2592 -0.0188
11824TIP3    H156887   0.014   1.781   1.171 -0.6690  0.0956 -0.5813
11824TIP3    H256888  -0.065   1.655   1.196 -0.5176 -0.6173 -3.4864
11825TIP3   OH256889   6.120   3.475   1.116 -0.3227 -0.2230  0.0153
11825TIP3    H156890   6.200   3.433   1.147 -0.2727 -1.4863 -1.7834
11825TIP3    H256891   6.113   3.555   1.169  1.8548 -0.3360  0.5127
11826TIP3   OH256892   4.057   1.203   3.318  0.7037  0.1414 -0.3905
11826TIP3    H156893   3.991   1.256   3.363  0.3296 -1.2352  0.7101
11826TIP3    H256894   4.017   1.183   3.233  0.7709  1.4466 -0.7346
11827TIP3   OH256895   4.859   2.180   2.918  0.0532 -0.7029 -0.5172
11827TIP3    H156896   4.846   2.095   2.960 -0.4409 -0.8589 -0.9952
11827TIP3    H256897   4.943   2.210   2.953 -0.3174 -0.8637  0.5354
11828TIP3   OH256898   6.561   3.998   1.895  0.1026 -0.5758  0.2015
11828TIP3    H156899   6.583   4.056   1.968  1.4893 -1.5733  0.6004
11828TIP3    H256900   6.488   4.042   1.851 -1.8140 -0.6693  3.0825
11829TIP3   OH256901   5.769   0.908   2.430 -0.0878 -0.1883 -0.3765
11829TIP3    H156902   5.821   0.969   2.377  0.8470  1.2611  2.1336
11829TIP3    H256903   5.689   0.956   2.449 -0.3609 -0.6488 -0.3780
11830TIP3   OH256904   5.482   4.470   1.357 -0.4157 -0.1885 -0.3671
11830TIP3    H156905   5.493   4.462   1.262  2.4484  2.9041 -0.3686
11830TIP3    H256906   5.398   4.515   1.368 -1.3894 -1.7183 -1.3381
11831TIP3   OH256907   6.275   3.847   3.647 -0.0837 -0.4145 -0.0843
11831TIP3    H156908   6.248   3.870   3.558  2.1797  0.6959 -0.5052
11831TIP3    H256909   6.199   3.801   3.684 -1.3452 -0.1550 -2.2931
11832TIP3   OH256910   6.851   4.329   1.942  0.3714 -0.4691 -0.2921
11832TIP3    H156911   6.870   4.421   1.960  0.3817 -0.4037 -0.6298
11832TIP3    H256912   6.828   4.327   1.849 -1.0793 -0.5775  0.0576
11833TIP3   OH256913   0.968   4.251   2.196  0.1870 -0.4150 -0.1213
11833TIP3    H156914   1.022   4.324   2.229  0.7237 -0.4863 -0.8146
11833TIP3    H256915   0.881   4.267   2.232 -0.1570  1.6038 -1.7502
11834TIP3   OH256916   0.126   4.449  15.984 -0.5151 -0.6168 -0.4265
11834TIP3    H156917   0.040   4.465  16.022 -0.9399 -1.0858 -1.1612
11834TIP3    H256918   0.110   4.381  15.919  0.6173 -1.4971  0.2111
11835TIP3   OH256919   0.372   3.572   0.919  0.4770 -0.2904 -0.1266
11835TIP3    H156920   0.324   3.596   0.998  0.8317 -1.6884  0.5280
11835TIP3    H256921   0.307   3.576   0.849  0.5860  2.8445 -0.1264
11836TIP3   OH256922   0.232   3.099   1.560 -0.9728  0.0878  0.4098
11836TIP3    H156923   0.204   3.126   1.647 -0.0331  1.1064  0.4067
11836TIP3    H256924   0.263   3.180   1.518  1.9805 -0.9661  0.4413
11837TIP3   OH256925   5.946   4.814   1.408  0.1708  0.1769  0.3719
11837TIP3    H156926   5.908   4.770   1.332 -0.8875  2.8118 -0.6828
11837TIP3    H256927   5.872   4.826   1.468  0.2910  1.0752  0.3526
11838TIP3   OH256928   0.099   4.903   2.177  0.0128  0.0627 -0.1798
11838TIP3    H156929   0.194   4.906   2.186  0.2211 -0.0565 -2.2901
11838TIP3    H256930   0.071   4.994   2.186  0.3378  0.1243  0.2282
11839TIP3   OH256931   6.143   1.967   0.772  0.3954 -0.0364 -0.2670
11839TIP3    H156932   6.184   1.884   0.795  2.7091  0.6314 -1.8730
11839TIP3    H256933   6.184   2.031   0.831 -0.1522  0.2589 -0.1972
11840TIP3   OH256934   6.586   5.152   0.873  0.0355 -0.0807 -0.4935
11840TIP3    H156935   6.622   5.240   0.889 -1.6714  0.5899 -0.2334
11840TIP3    H256936   6.599   5.137   0.780 -0.4357  0.8211 -0.7110
11841TIP3   OH256937   5.468   3.260   0.981 -0.2364 -0.0653 -0.0713
11841TIP3    H156938   5.379   3.239   1.010  0.4051 -1.4016  0.9421
11841TIP3    H256939   5.487   3.344   1.023 -0.7112 -0.1904  0.4085
11842TIP3   OH256940   3.776   1.393   2.009 -0.3640 -0.5479  0.2946
11842TIP3    H156941   3.766   1.488   2.014 -0.9534 -0.6050  0.1769
11842TIP3    H256942   3.859   1.380   1.964  0.4514 -0.0794  1.6188
11843TIP3   OH256943   5.928   7.225   1.697 -0.0940 -0.0285 -0.1802
11843TIP3    H156944   5.889   7.263   1.776 -1.0166  0.2503 -0.7575
11843TIP3    H256945   5.920   7.295   1.632 -0.3981 -0.6647 -0.8293
11844TIP3   OH256946   4.687   1.654   2.039  0.2008  0.1291  0.1626
11844TIP3    H156947   4.763   1.669   1.983  0.1663  1.8003  0.5443
11844TIP3    H256948   4.613   1.687   1.988  0.1714  1.6638  1.1673
11845TIP3   OH256949   2.502   3.195   2.891 -0.1132 -0.6781  0.3687
11845TIP3    H156950   2.476   3.188   2.983 -0.3744 -1.7609  0.2121
11845TIP3    H256951   2.567   3.265   2.891 -0.8017 -0.0177  1.2285
11846TIP3   OH256952   4.759   3.222  15.211 -0.1286  0.0735  0.0878
11846TIP3    H156953   4.728   3.163  15.142 -0.4552 -0.6277  0.8382
11846TIP3    H256954   4.758   3.170  15.291 -1.1299  1.3001  0.8952
11847TIP3   OH256955   6.193   2.535   0.908 -0.2410 -0.4198 -0.4284
11847TIP3    H156956   6.132   2.511   0.839 -0.5281  3.8248 -1.7821
11847TIP3    H256957   6.138   2.553   0.984 -0.3972  0.2552 -0.7020
11848TIP3   OH256958   0.085   0.878   0.928  0.1388 -0.2952 -0.3130
11848TIP3    H156959   0.129   0.931   0.995 -1.7977  0.4868  0.3832
11848TIP3    H256960   0.082   0.935   0.851 -0.3064 -0.0599 -0.1262
11849TIP3   OH256961   4.499   4.851   1.300 -0.2268  0.2106 -0.0005
11849TIP3    H156962   4.465   4.855   1.210 -2.0714  2.9669  0.7575
11849TIP3    H256963   4.585   4.893   1.294 -1.3735  2.5884 -0.0526
11850TIP3   OH256964   5.182   1.619   0.935 -0.2597  0.4541  0.0655
11850TIP3    H156965   5.268   1.599   0.973 -0.5121  2.1760  1.5869
11850TIP3    H256966   5.158   1.539   0.887  2.2611  0.0217 -0.5420
11851TIP3   OH256967   6.423   2.874  15.728  0.8428 -0.2207 -0.4077
11851TIP3    H156968   6.414   2.961  15.690  0.0803 -0.4599 -0.7889
11851TIP3    H256969   6.506   2.876  15.775  1.0901  0.5333 -0.8819
11852TIP3   OH256970   6.409   3.650  11.828 -0.7450  0.2379  0.4249
11852TIP3    H156971   6.504   3.645  11.837 -0.8283 -2.2268  0.2346
11852TIP3    H256972   6.390   3.744  11.831  1.7621  0.8119 -0.3875
11853TIP3   OH256973   5.991   6.835   2.442 -0.0151 -0.3198 -0.0685
11853TIP3    H156974   5.924   6.897   2.472  0.6005 -0.1640  1.0008
11853TIP3    H256975   6.069   6.858   2.492  0.5259 -1.2458 -0.4800
11854TIP3   OH256976   5.548   1.893   0.654 -0.4107  0.8206  0.1896
11854TIP3    H156977   5.541   1.895   0.749  0.4248  0.5593  0.2587
11854TIP3    H256978   5.622   1.835   0.636 -0.7287  0.6519 -0.6263
11855TIP3   OH256979   5.623   3.743   1.987  0.0477  0.3175  0.0065
11855TIP3    H156980   5.599   3.818   1.932  0.6879  0.5941  0.1011
11855TIP3    H256981   5.716   3.730   1.970  0.0933 -0.0205  0.5194
11856TIP3   OH256982   6.499   2.613   1.756  0.2107 -0.3694  0.0463
11856TIP3    H156983   6.530   2.673   1.689  0.3567 -0.7595 -0.2388
11856TIP3    H256984   6.453   2.668   1.819 -0.8550 -0.1478 -0.9214
11857TIP3   OH256985   0.238   4.457   2.699 -0.0791 -0.2261 -0.2857
11857TIP3    H156986   0.281   4.397   2.759  0.3375 -1.0506 -1.3939
11857TIP3    H256987   0.200   4.525   2.755  1.5489 -0.1914  0.8076
11858TIP3   OH256988   2.055   7.143   1.266  0.2916  0.9803 -0.1233
11858TIP3    H156989   2.039   7.213   1.330  0.8049  0.5931  0.4416
11858TIP3    H256990   2.120   7.180   1.206  3.1250 -0.1287  2.1156
11859TIP3   OH256991   2.562   6.224  15.921  0.9163 -0.1768 -0.3578
11859TIP3    H156992   2.619   6.296  15.892  2.7599 -0.7541  1.7480
11859TIP3    H256993   2.579   6.153  15.859  0.3450  0.6086 -1.4344
11860TIP3   OH256994   1.936   3.830   2.669 -0.1714  0.3859  0.2539
11860TIP3    H156995   1.905   3.846   2.758 -1.6244  0.6810 -0.2977
11860TIP3    H256996   1.990   3.751   2.676  0.4359  0.8899  1.5402
11861TIP3   OH256997   1.152   5.756   0.525 -0.4132 -0.2462 -0.2623
11861TIP3    H156998   1.145   5.837   0.574 -1.9285 -0.0414 -0.7761
11861TIP3    H256999   1.144   5.686   0.590 -0.2557  0.0140  0.0340
11862TIP3   OH257000   1.655   4.502   3.866 -0.2503  0.6779  0.4517
11862TIP3    H157001   1.632   4.510   3.959  0.2256 -0.3511  0.6747
11862TIP3    H257002   1.586   4.447   3.829  1.3542 -1.7577  0.9537
11863TIP3   OH257003   5.533   5.272  15.874 -0.1993 -0.3556 -0.0118
11863TIP3    H157004   5.493   5.268  15.961 -0.6657  0.8361 -0.1541
11863TIP3    H257005   5.615   5.320  15.887 -0.7703  0.7664 -0.3797
11864TIP3   OH257006   1.717   5.228   2.009  0.3442  0.0851  0.1288
11864TIP3    H157007   1.628   5.229   2.045  0.1091  1.0066 -0.4587
11864TIP3    H257008   1.743   5.320   2.006  1.1024 -0.1334 -0.2252
11865TIP3   OH257009   4.025   5.695  15.469 -0.0312 -0.1746 -0.5526
11865TIP3    H157010   3.970   5.704  15.547 -0.0831  0.5328 -0.6736
11865TIP3    H257011   4.073   5.777  15.463 -0.4913  0.0212 -1.6205
11866TIP3   OH257012   1.323   4.127  15.743  0.1198 -0.3551  0.0977
11866TIP3    H157013   1.299   4.045  15.786 -0.8189 -0.7329 -1.1352
11866TIP3    H257014   1.356   4.100  15.658 -2.3207  0.6785 -1.2167
11867TIP3   OH257015   0.064   4.349  15.219  0.2462 -0.4271  0.0860
11867TIP3    H157016   0.148   4.391  15.200 -0.5434  1.4280  0.5595
11867TIP3    H257017   0.002   4.390  15.160 -0.3243 -1.9078 -0.3768
11868TIP3   OH257018   1.989   3.620   1.089 -0.1600  0.7864 -0.3151
11868TIP3    H157019   1.995   3.540   1.141 -1.6544  1.0700  0.3105
11868TIP3    H257020   1.905   3.613   1.044 -1.9464  3.5471  2.3723
11869TIP3   OH257021   2.614   4.266   0.561  0.0650  0.2365 -0.9342
11869TIP3    H157022   2.709   4.252   0.559 -0.1498 -1.1441 -1.7569
11869TIP3    H257023   2.586   4.228   0.644 -0.0085 -0.9382 -1.4938
11870TIP3   OH257024   1.389   4.697  14.985  0.3747  0.4322 -0.5010
11870TIP3    H157025   1.344   4.745  14.916 -0.0061  0.4952 -0.2131
11870TIP3    H257026   1.319   4.674  15.047  0.7831  0.7952  0.0947
11871TIP3   OH257027   5.789   1.492  15.359  0.9208 -0.2159  0.0837
11871TIP3    H157028   5.725   1.473  15.428  0.4522  0.8201 -0.0644
11871TIP3    H257029   5.873   1.469  15.398  0.5230 -1.0447  0.4783
11872TIP3   OH257030   1.697   4.851   2.560 -0.0801 -0.6581  0.0242
11872TIP3    H157031   1.639   4.889   2.494 -0.0800 -0.9836 -0.1618
11872TIP3    H257032   1.777   4.829   2.513 -0.0750 -0.8794  0.1354
11873TIP3   OH257033   2.779   2.920   2.071  0.4642  0.6363  0.7360
11873TIP3    H157034   2.801   2.959   2.156  2.8593  1.8874 -0.4140
11873TIP3    H257035   2.832   2.841   2.066 -0.4003  0.0360  0.7746
11874TIP3   OH257036   2.423   4.523   0.299 -0.5594  0.1851  0.0017
11874TIP3    H157037   2.382   4.461   0.238 -2.0954  1.5584 -0.3940
11874TIP3    H257038   2.508   4.543   0.260  1.3418 -3.9856  1.6562
11875TIP3   OH257039   1.676   5.325   0.575  0.0786  0.4332 -0.1200
11875TIP3    H157040   1.754   5.297   0.528  1.1221 -0.0179  1.8069
11875TIP3    H257041   1.710   5.379   0.647 -1.5689  2.5977 -0.9138
11876TIP3   OH257042   2.668   3.901   0.049  0.8357 -0.3491 -0.4725
11876TIP3    H157043   2.714   3.817   0.053  2.0739  0.3665  0.8225
11876TIP3    H257044   2.586   3.881   0.005  1.4169 -2.1020 -0.8171
11877TIP3   OH257045   0.961   3.287   0.563 -0.0531 -0.5702 -0.1500
11877TIP3    H157046   1.046   3.328   0.544 -1.1726  1.3023 -1.2244
11877TIP3    H257047   0.917   3.284   0.478 -1.6821 -0.0561  0.6655
11878TIP3   OH257048   0.968   5.314   0.351 -0.0389  0.2088  0.0319
11878TIP3    H157049   0.905   5.377   0.317  0.2222  0.8047  0.6483
11878TIP3    H257050   1.051   5.339   0.311 -0.2151 -0.6628 -0.8891
11879TIP3   OH257051   3.491   5.878   0.242 -0.0344 -0.0165  0.2897
11879TIP3    H157052   3.447   5.955   0.206  0.9598  0.2983 -0.2695
11879TIP3    H257053   3.503   5.820   0.166  2.9843  1.0776 -0.1277
11880TIP3   OH257054   0.377   5.695  15.404 -0.4979 -0.5644 -0.0731
11880TIP3    H157055   0.368   5.685  15.499  0.2746 -0.2786  0.0287
11880TIP3    H257056   0.419   5.780  15.393 -3.0324  0.6545 -0.7750
11881TIP3   OH257057   2.809   4.106   1.747 -0.0600 -0.6283  0.2297
11881TIP3    H157058   2.864   4.038   1.708 -0.8409  0.1567 -2.3613
11881TIP3    H257059   2.828   4.185   1.696 -2.2555  0.0726  0.4306
11882TIP3   OH257060   2.904   4.092   0.845 -0.8175 -0.3699 -0.0299
11882TIP3    H157061   2.939   4.169   0.890 -1.1858 -1.7806  2.7130
11882TIP3    H257062   2.834   4.061   0.901 -1.7776 -1.7600 -1.9541
11883TIP3   OH257063   1.231   5.361  14.696  0.3817 -0.6723 -0.1700
11883TIP3    H157064   1.214   5.398  14.782 -0.1293 -1.8895  0.2645
11883TIP3    H257065   1.325   5.343  14.695  0.7155  1.0887 -0.5682
11884TIP3   OH257066   6.078   5.371   2.371  0.3136 -0.0333 -0.5969
11884TIP3    H157067   6.129   5.396   2.293  1.8462 -2.0640 -0.2650
11884TIP3    H257068   6.138   5.386   2.444 -1.1103  1.8158  0.2387
11885TIP3   OH257069   1.960   6.445  15.144  0.0158  0.1543 -0.2473
11885TIP3    H157070   1.901   6.444  15.220  0.0074  2.6242 -0.1953
11885TIP3    H257071   2.044   6.476  15.179 -0.3643  2.6832 -1.4777
11886TIP3   OH257072   2.155   6.131   2.418  0.3262 -0.0059 -0.2426
11886TIP3    H157073   2.165   6.156   2.327 -1.1709  1.1438 -0.1088
11886TIP3    H257074   2.060   6.120   2.430  0.5727 -1.0240  0.9387
11887TIP3   OH257075   0.085   4.441   1.078 -0.1303 -0.2951  0.1540
11887TIP3    H157076   0.150   4.409   1.015 -0.5910 -2.3665  0.7207
11887TIP3    H257077   0.066   4.367   1.134 -1.8446  0.7305  0.9843
11888TIP3   OH257078   1.843   6.322  15.469  0.4056  1.1440  0.1410
11888TIP3    H157079   1.840   6.409  15.430  0.7195  1.9868  1.9424
11888TIP3    H257080   1.922   6.282  15.433 -0.5826  0.9937 -1.9099
11889TIP3   OH257081   3.193   1.968  15.964  0.7377  0.1549  0.4299
11889TIP3    H157082   3.114   2.022  15.961 -0.6447 -1.8365 -0.2203
11889TIP3    H257083   3.185   1.909  15.889  1.7817 -1.4727  1.5563
11890TIP3   OH257084   3.465   3.987  14.896  0.0997 -0.3636  0.5955
11890TIP3    H157085   3.438   4.079  14.897 -0.2956 -0.4544 -0.5449
11890TIP3    H257086   3.544   3.987  14.842 -1.3148 -1.0519 -1.5136
11891TIP3   OH257087   1.421   3.987   2.604  0.1973  0.4475  0.2608
11891TIP3    H157088   1.480   3.913   2.591 -0.2184  0.1028  0.3442
11891TIP3    H257089   1.359   3.957   2.670  0.3242  1.0397  0.6495
11892TIP3   OH257090   3.625   5.163   2.854 -0.4377 -0.4485  0.0010
11892TIP3    H157091   3.643   5.208   2.937 -1.3749  0.8700 -0.4857
11892TIP3    H257092   3.645   5.071   2.871  0.5453  0.0058  1.3250
11893TIP3   OH257093   1.607   6.430  15.667 -0.0474  0.0436 -0.3471
11893TIP3    H157094   1.585   6.499  15.604 -1.3620 -1.3036 -1.3816
11893TIP3    H257095   1.557   6.453  15.745 -1.5421 -0.4350 -1.1380
11894TIP3   OH257096   1.074   4.654   0.277 -0.2500  0.3768 -1.1121
11894TIP3    H157097   1.003   4.701   0.320 -1.5848 -2.6947  0.1666
11894TIP3    H257098   1.149   4.666   0.335 -0.4261  1.3277 -1.0656
11895TIP3   OH257099   5.049   4.898  14.225  0.1031  0.3149 -0.4643
11895TIP3    H157100   4.994   4.972  14.251  0.6778  0.8294 -0.6841
11895TIP3    H257101   5.139   4.927  14.243  0.1750 -1.4072  2.1029
11896TIP3   OH257102   2.225   4.681   0.083 -0.7472  0.8150  0.2274
11896TIP3    H157103   2.243   4.613   0.149 -0.0031  1.3550  0.5977
11896TIP3    H257104   2.274   4.757   0.115 -1.2321  1.3901 -0.4107
11897TIP3   OH257105   3.218   5.520  15.675 -0.0689  0.2692  0.3348
11897TIP3    H157106   3.128   5.516  15.642 -0.1436  0.5643  0.5062
11897TIP3    H257107   3.232   5.612  15.698  0.1211  0.1445  0.7316
11898TIP3   OH257108   7.248   4.124   2.651 -0.1835  0.3368  0.2917
11898TIP3    H157109   7.312   4.129   2.721 -0.3675 -0.9011  0.5426
11898TIP3    H257110   7.174   4.178   2.682  0.2201  0.7609  0.5237
11899TIP3   OH257111   1.196   3.059  14.977 -0.0621 -0.2951  0.0701
11899TIP3    H157112   1.139   3.133  14.955  1.2065  0.7363  0.2121
11899TIP3    H257113   1.273   3.098  15.017  0.3563 -1.7456  0.7345
11900TIP3   OH257114   1.864   5.191   2.454  0.0397 -0.4529 -0.3609
11900TIP3    H157115   1.805   5.147   2.393  0.7625 -0.4003 -1.1052
11900TIP3    H257116   1.947   5.199   2.406  0.0351  1.3847 -0.0951
11901TIP3   OH257117   2.793   4.172  14.804 -0.6639 -0.1134 -0.2371
11901TIP3    H157118   2.804   4.225  14.883 -0.5347 -1.4804  0.6789
11901TIP3    H257119   2.848   4.095  14.818 -0.5761 -0.3411 -1.6978
11902TIP3   OH257120   5.843   6.001   1.116 -0.5140 -0.2118 -0.2043
11902TIP3    H157121   5.779   6.068   1.141  1.0670  1.3675 -0.3075
11902TIP3    H257122   5.916   6.050   1.077 -0.1170 -2.1343 -1.9713
11903TIP3   OH257123   2.022   4.167  14.653  0.3201  0.3360 -0.3756
11903TIP3    H157124   2.057   4.148  14.566  0.9927  0.9288 -0.2399
11903TIP3    H257125   1.949   4.226  14.637 -1.2344 -1.6095 -0.7337
11904TIP3   OH257126   2.203   5.713   0.573  0.3408 -0.2946 -0.4311
11904TIP3    H157127   2.202   5.805   0.598 -0.2232 -0.7394  1.2139
11904TIP3    H257128   2.206   5.714   0.477  1.6243  1.4176 -0.3820
11905TIP3   OH257129   2.876   4.295   4.043  0.2793  0.7212  0.5252
11905TIP3    H157130   2.877   4.295   3.947  2.0425  1.8487  0.5127
11905TIP3    H257131   2.948   4.237   4.068  0.2161  0.9122  1.1529
11906TIP3   OH257132   3.985   3.815   3.781  0.2291 -0.0285 -0.0553
11906TIP3    H157133   3.904   3.824   3.832  0.4621  2.6414 -0.0863
11906TIP3    H257134   4.053   3.801   3.846  0.0225 -0.3536  0.0950
11907TIP3   OH257135   3.994   5.341   2.951  0.2151 -0.4415  0.0850
11907TIP3    H157136   3.915   5.365   2.903 -0.2415 -0.3150  0.8910
11907TIP3    H257137   4.066   5.380   2.901 -0.3666  0.9106  0.2880
11908TIP3   OH257138   3.406   4.618  15.612  0.1178  0.4724  0.1818
11908TIP3    H157139   3.478   4.645  15.669  0.2388 -0.0231  0.2590
11908TIP3    H257140   3.424   4.527  15.591  0.1513  0.6952 -0.7825
11909TIP3   OH257141   6.779   7.294  15.714  0.2807  0.3062  0.1404
11909TIP3    H157142   6.874   7.286  15.706  0.0295 -2.1817 -0.9719
11909TIP3    H257143   6.749   7.316  15.625 -0.5634 -4.1306 -0.7963
11910TIP3   OH257144   0.836   4.621   1.224  0.3461  0.0121  0.4844
11910TIP3    H157145   0.797   4.582   1.146 -2.8205  0.5499  1.7399
11910TIP3    H257146   0.866   4.707   1.195  0.4592 -0.3300 -0.4493
11911TIP3   OH257147   3.340   5.795  15.968 -0.2221  0.9524 -0.3594
11911TIP3    H157148   3.275   5.781  15.899 -1.7139  0.5426  1.1051
11911TIP3    H257149   3.288   5.811  16.047  1.4408 -0.8497  1.1426
11912TIP3   OH257150   1.918   4.718   0.167  0.3175  0.1939 -0.1753
11912TIP3    H157151   1.871   4.656   0.110  0.1730 -1.9720  2.2290
11912TIP3    H257152   1.862   4.796   0.168 -0.8026 -0.5651 -1.1851
11913TIP3   OH257153   0.092   6.649   1.579 -0.0061 -0.0020  0.6921
11913TIP3    H157154   0.084   6.678   1.489 -0.8880  0.0965  0.7953
11913TIP3    H257155   0.171   6.595   1.581 -0.0960 -0.1648 -0.1830
11914TIP3   OH257156   7.045   5.808   1.187  0.4139  0.1189  0.3469
11914TIP3    H157157   7.014   5.861   1.260  1.0160  1.0901 -0.0996
11914TIP3    H257158   6.971   5.750   1.167  0.4427 -0.5319  2.0623
11915TIP3   OH257159   1.374   4.180  15.242 -0.7702 -0.0576 -0.0485
11915TIP3    H157160   1.392   4.262  15.287 -0.5948 -0.0921 -0.0545
11915TIP3    H257161   1.390   4.112  15.308 -0.7282 -0.0970 -0.0996
11916TIP3   OH257162   7.202   4.256   0.882  0.1356  0.0558 -0.6982
11916TIP3    H157163   7.136   4.318   0.913 -2.6009 -3.6718  1.3518
11916TIP3    H257164   7.248   4.229   0.962  1.1850 -0.7013 -1.5523
11917TIP3   OH257165   2.301   4.481  14.045 -0.5236 -0.2220 -0.0934
11917TIP3    H157166   2.271   4.547  13.982 -3.7796 -0.7169  0.8005
11917TIP3    H257167   2.280   4.398  14.003  0.6765 -0.6307  0.1147
11918TIP3   OH257168   1.362   4.731   0.701  0.7052 -0.3586  0.3466
11918TIP3    H157169   1.373   4.643   0.737  0.2680  0.3853  2.3583
11918TIP3    H257170   1.449   4.770   0.705  1.0613 -0.9303 -1.2589
11919TIP3   OH257171   2.268   2.423   3.047 -0.1230  0.2490 -0.1625
11919TIP3    H157172   2.314   2.479   3.109 -0.5293 -2.0120  2.2351
11919TIP3    H257173   2.327   2.416   2.972  2.3519 -0.5851  1.8109
11920TIP3   OH257174   5.613   5.084   0.937  0.0082 -0.3528  0.4705
11920TIP3    H157175   5.651   5.169   0.915  0.5574 -1.0603 -1.3966
11920TIP3    H257176   5.687   5.030   0.963 -0.1160 -0.7451  0.0319
11921TIP3   OH257177   2.135   5.943  15.981 -0.1694 -0.0824  0.1297
11921TIP3    H157178   2.201   5.874  15.977 -1.0215 -0.9323  0.6223
11921TIP3    H257179   2.160   6.004  15.912  0.8542 -0.6431 -0.0027
11922TIP3   OH257180   6.590   5.827   2.488  0.3391  0.1814  0.0409
11922TIP3    H157181   6.497   5.807   2.478  0.3895  0.5234 -1.1867
11922TIP3    H257182   6.619   5.850   2.400  1.4983  0.4634  0.4888
11923TIP3   OH257183   3.901   5.674  15.949 -0.1562 -0.0277 -0.0046
11923TIP3    H157184   3.810   5.645  15.959 -0.7755  1.6363 -0.6427
11923TIP3    H257185   3.900   5.731  15.872  0.8449  2.2474  1.5847
11924TIP3   OH257186   2.201   5.462   1.432  0.1232 -0.3121 -0.1667
11924TIP3    H157187   2.223   5.542   1.384  0.5373 -0.8393 -0.8571
11924TIP3    H257188   2.244   5.472   1.517 -1.3270  1.0186  0.4442
11925TIP3   OH257189   0.925   4.442  13.765  0.1900  0.1589  0.1947
11925TIP3    H157190   0.924   4.517  13.704 -2.4863  0.0674  0.0756
11925TIP3    H257191   0.906   4.481  13.850 -1.0896 -0.3491  0.1498
11926TIP3   OH257192   0.344   5.386   1.320 -0.4038  0.5628 -0.0626
11926TIP3    H157193   0.267   5.381   1.263 -1.0220 -0.0300  0.8234
11926TIP3    H257194   0.409   5.434   1.268 -1.2277  0.7066 -0.9692
11927TIP3   OH257195   0.094   4.790   1.584  0.4172 -0.4930 -0.2739
11927TIP3    H157196   0.127   4.715   1.535 -0.2328 -1.8998  1.4057
11927TIP3    H257197   0.013   4.815   1.538 -0.6275 -2.3208  0.5221
11928TIP3   OH257198   0.615   7.057  15.810 -0.4454  0.3805 -0.5521
11928TIP3    H157199   0.522   7.081  15.816 -0.4154  0.1349  1.4411
11928TIP3    H257200   0.620   6.996  15.737 -1.6891  1.1686 -1.3091
11929TIP3   OH257201   2.128   4.677   0.384  0.1508 -0.1603 -0.5173
11929TIP3    H157202   2.051   4.657   0.330  1.3698 -2.2550 -1.5638
11929TIP3    H257203   2.107   4.641   0.470  0.0971 -1.0789 -0.9040
11930TIP3   OH257204   3.917   4.845   1.001  0.3179 -0.0293  0.6920
11930TIP3    H157205   3.967   4.895   1.065 -1.7346  0.2820  2.1217
11930TIP3    H257206   3.833   4.829   1.044 -0.5185 -1.2167 -1.3121
11931TIP3   OH257207   0.347   6.455   0.573 -0.4667 -0.4572  0.0580
11931TIP3    H157208   0.285   6.385   0.593  1.0813 -1.7827  0.3303
11931TIP3    H257209   0.419   6.411   0.528  0.5382  0.9692  0.2359
11932TIP3   OH257210   2.822   4.340   0.117  0.5123 -0.2265  0.3089
11932TIP3    H157211   2.915   4.359   0.128  0.2982  0.9466  0.1281
11932TIP3    H257212   2.801   4.371   0.029 -0.1311 -0.1115  0.4976
11933TIP3   OH257213   0.069   5.745   0.576 -0.1314  0.0805 -0.6195
11933TIP3    H157214   0.069   5.695   0.494 -0.3114 -0.6967 -0.1432
11933TIP3    H257215  -0.023   5.748   0.602 -0.0198 -0.0270 -0.2195
11934TIP3   OH257216   1.475   5.714   1.993  0.5032 -0.6453 -0.3629
11934TIP3    H157217   1.552   5.771   2.002  0.3907 -0.6013  0.2905
11934TIP3    H257218   1.434   5.743   1.911  0.4916  0.1602 -0.0729
11935TIP3   OH257219   1.224   3.638   2.267  0.0761 -0.1357 -0.5661
11935TIP3    H157220   1.277   3.611   2.192  1.5535  0.3784  0.2923
11935TIP3    H257221   1.200   3.729   2.248  0.3187 -0.0550 -0.4764
11936TIP3   OH257222   2.143   3.750   1.360 -0.1498  0.4511  0.3067
11936TIP3    H157223   2.151   3.840   1.390 -1.0422  1.2952 -1.8939
11936TIP3    H257224   2.049   3.736   1.353  0.0105  0.2616 -1.9183
11937TIP3   OH257225   1.756   1.912  15.657 -0.1025  0.2728  0.1392
11937TIP3    H157226   1.676   1.945  15.616 -0.6005  1.6291  2.1677
11937TIP3    H257227   1.740   1.918  15.751  2.1049 -0.1215  0.5747
11938TIP3   OH257228   1.671   4.273   0.870 -0.1718 -0.6221  0.0351
11938TIP3    H157229   1.682   4.344   0.806 -2.2474 -1.4945 -1.3257
11938TIP3    H257230   1.594   4.299   0.921 -0.1319 -1.2548  0.4189
11939TIP3   OH257231   1.720   4.436   0.665 -0.4076 -0.3892 -0.1552
11939TIP3    H157232   1.757   4.384   0.594 -0.4002  0.6680 -0.9271
11939TIP3    H257233   1.706   4.523   0.627 -0.5135  0.1509  1.0942
11940TIP3   OH257234   0.937   5.575   1.689 -0.3819  0.0954 -0.3792
11940TIP3    H157235   0.922   5.533   1.604  0.2166  2.3332 -1.6369
11940TIP3    H257236   0.849   5.600   1.719 -0.6009 -0.7610 -0.2969
11941TIP3   OH257237   5.955   5.779  15.347  0.2603  0.3903 -0.1004
11941TIP3    H157238   5.915   5.805  15.430  0.8596  0.2529  0.2299
11941TIP3    H257239   5.881   5.770  15.287 -0.3128 -0.8114  0.7693
11942TIP3   OH257240   0.839   5.071   0.411 -0.1240 -0.6596  0.5404
11942TIP3    H157241   0.888   5.141   0.369  1.5532 -2.7994 -1.1641
11942TIP3    H257242   0.847   5.089   0.505  2.4719 -0.0217  0.2148
11943TIP3   OH257243   3.033   4.759  15.942  0.6340 -0.5176  0.3802
11943TIP3    H157244   3.038   4.679  15.993  0.5416 -0.4456  0.5016
11943TIP3    H257245   2.995   4.824  16.001 -0.1991 -0.6372 -0.0224
11944TIP3   OH257246   1.937   3.880   2.357  0.0417 -0.0059  0.0868
11944TIP3    H157247   2.016   3.925   2.328  0.1338 -0.2341 -0.0130
11944TIP3    H257248   1.938   3.887   2.452  0.5553 -0.6569  0.1254
11945TIP3   OH257249   0.834   0.413  15.146 -0.1248 -0.8197 -0.1796
11945TIP3    H157250   0.840   0.428  15.052 -1.8473  0.3071 -0.1367
11945TIP3    H257251   0.822   0.318  15.155 -0.8769 -0.8224 -1.1499
11946TIP3   OH257252   4.511   4.727   2.906 -0.4840 -0.0817  1.0144
11946TIP3    H157253   4.465   4.810   2.899 -0.9320 -0.2561  1.7842
11946TIP3    H257254   4.562   4.734   2.987 -0.3653 -0.4715  0.9765
11947TIP3   OH257255   0.753   4.972   1.638 -0.5253  0.1763  0.0310
11947TIP3    H157256   0.757   4.924   1.555  0.1291  0.6496 -0.2187
11947TIP3    H257257   0.672   4.942   1.679 -1.4094  0.7322 -1.2654
11948TIP3   OH257258   2.202   5.474   0.988 -0.0615  0.0197 -0.6387
11948TIP3    H157259   2.281   5.432   0.952 -0.3658  0.3249 -1.7002
11948TIP3    H257260   2.173   5.417   1.058 -0.2055 -1.3143 -1.7680
11949TIP3   OH257261   3.510   5.320   0.944  0.6386  0.2794 -0.0031
11949TIP3    H157262   3.605   5.330   0.938  0.4870  1.1526 -1.0811
11949TIP3    H257263   3.476   5.409   0.944 -0.3140 -0.0514 -2.2798
11950TIP3   OH257264   1.233   6.031   1.027  0.5227  0.0834 -0.0007
11950TIP3    H157265   1.160   5.987   1.071  1.5647  0.4982  2.2088
11950TIP3    H257266   1.218   6.124   1.045 -0.0498  0.4251 -2.1345
11951TIP3   OH257267   2.953   5.344  15.954  0.0054  0.5257  0.3166
11951TIP3    H157268   2.945   5.418  16.015  1.4836  1.2440 -0.3297
11951TIP3    H257269   2.936   5.267  16.008 -0.7676  1.2770  1.1775
11952TIP3   OH257270   3.199   2.930  15.761 -0.2801  0.0610  0.1273
11952TIP3    H157271   3.135   2.936  15.691  1.9715  1.0536 -1.9292
11952TIP3    H257272   3.216   2.836  15.771 -1.4773 -0.1534  0.1926
11953TIP3   OH257273   1.823   5.983   0.000  0.4304 -0.1938 -0.3018
11953TIP3    H157274   1.751   5.921   0.016 -1.5107  1.7566 -1.3104
11953TIP3    H257275   1.901   5.927  -0.004 -1.1137 -2.4576 -0.1073
11954TIP3   OH257276   6.874   6.015   0.885 -0.2491 -0.0756  0.4791
11954TIP3    H157277   6.796   5.961   0.898 -0.4097  0.0267 -0.0164
11954TIP3    H257278   6.840   6.104   0.875 -0.1670 -0.1650 -0.7695
11955TIP3   OH257279   0.099   4.039   1.481  0.3630 -0.2045  0.0553
11955TIP3    H157280   0.050   3.970   1.436  2.8136 -1.9989  0.0598
11955TIP3    H257281   0.058   4.044   1.568 -1.4868  0.1664 -0.8068
11956TIP3   OH257282   2.348   5.205  15.360 -0.0087 -0.2118  0.1242
11956TIP3    H157283   2.369   5.255  15.440 -1.1854  1.1703 -0.3964
11956TIP3    H257284   2.266   5.244  15.329  0.4708 -0.6874 -1.7985
11957TIP3   OH257285   1.798   5.491  15.295  0.3246  0.3666 -0.1160
11957TIP3    H157286   1.749   5.448  15.365 -0.0885  0.5858 -0.2729
11957TIP3    H257287   1.792   5.431  15.221  1.4176 -0.2273  0.2747
11958TIP3   OH257288   1.554   7.031   1.119  0.3278  0.0041  0.4283
11958TIP3    H157289   1.621   7.096   1.097 -0.6792  1.3760  1.3539
11958TIP3    H257290   1.590   6.986   1.196  0.9802 -0.4987 -0.1560
11959TIP3   OH257291   2.452   7.022  15.134  0.3265 -0.1550 -0.8058
11959TIP3    H157292   2.411   7.091  15.186 -2.2677 -2.4680  0.3528
11959TIP3    H257293   2.543   7.051  15.123  0.0117  2.1382  1.9698
11960TIP3   OH257294   3.393   0.389  15.638  0.3853 -0.1546  0.0804
11960TIP3    H157295   3.382   0.381  15.543 -1.1483  1.7889  0.0484
11960TIP3    H257296   3.486   0.411  15.650 -0.0473  2.6022 -1.2307
11961TIP3   OH257297   3.329   3.396  15.171 -0.4251 -0.1211  0.0526
11961TIP3    H157298   3.242   3.415  15.137 -1.1827 -3.4070 -0.0098
11961TIP3    H257299   3.317   3.382  15.264 -0.2371 -1.9618 -0.1765
11962TIP3   OH257300   0.090   6.364   3.991 -0.2908  0.2611  0.3315
11962TIP3    H157301   0.103   6.297   4.058 -1.4283 -0.6966 -0.4025
11962TIP3    H257302   0.035   6.323   3.925  0.7594  1.2160 -1.1736
11963TIP3   OH257303   3.374   5.445  15.139  0.0252  0.3384 -0.1815
11963TIP3    H157304   3.463   5.479  15.141 -0.5544  1.8634  1.3170
11963TIP3    H257305   3.374   5.371  15.200  0.9460 -1.5321 -2.3825
11964TIP3   OH257306   0.389   7.058   2.586  0.9876  0.3167  0.1508
11964TIP3    H157307   0.459   7.052   2.651  2.3917  0.9672 -1.2778
11964TIP3    H257308   0.347   6.972   2.588  1.3750  0.1516  1.5103
11965TIP3   OH257309   3.072   4.624   0.618  0.7395 -0.0355 -0.1094
11965TIP3    H157310   3.024   4.600   0.697  2.9961 -1.2168  0.9603
11965TIP3    H257311   3.068   4.545   0.564 -1.2593  0.9503 -1.4396
11966TIP3   OH257312   1.248   5.202  13.880 -0.4896  0.3809 -0.3521
11966TIP3    H157313   1.215   5.114  13.865 -1.1719  0.3217  1.3097
11966TIP3    H257314   1.230   5.249  13.799  1.1493 -1.3657 -1.7622
11967TIP3   OH257315   6.012   5.062   1.174  0.0517 -0.0213  0.4249
11967TIP3    H157316   6.082   5.081   1.236 -0.0064 -0.9996  0.8085
11967TIP3    H257317   5.932   5.070   1.225  0.0818 -2.3880  0.9200
11968TIP3   OH257318   3.129   5.862   0.383  0.0820  0.1441  0.3568
11968TIP3    H157319   3.126   5.958   0.384  0.9310  0.1792 -0.0423
11968TIP3    H257320   3.130   5.839   0.290 -1.2825 -0.3018  0.4366
11969TIP3   OH257321   1.525   4.868   1.203 -0.9484 -0.3421  0.3987
11969TIP3    H157322   1.498   4.887   1.113 -0.0190 -1.5180 -0.1434
11969TIP3    H257323   1.443   4.856   1.250 -1.4318 -2.5722 -0.9345
11970TIP3   OH257324   7.182   3.573  15.172  0.0510  0.5496  0.1312
11970TIP3    H157325   7.106   3.531  15.133  1.2099 -0.3622 -1.2382
11970TIP3    H257326   7.173   3.558  15.266 -0.9756 -0.3465 -0.1015
11971TIP3   OH257327   4.112   4.264  15.066 -0.1306  0.1845  0.5087
11971TIP3    H157328   4.182   4.198  15.068 -0.0901  0.2389  1.0002
11971TIP3    H257329   4.035   4.219  15.101 -0.9999 -0.6049 -2.2498
11972TIP3   OH257330   1.415   4.213  15.980  0.1049  0.0550 -0.1083
11972TIP3    H157331   1.350   4.198  16.049  1.4324 -2.1360  0.7220
11972TIP3    H257332   1.371   4.191  15.899 -0.8154  0.5435  0.2580
11973TIP3   OH257333   3.078   3.952  15.051 -0.2534  0.1325 -0.6334
11973TIP3    H157334   3.156   3.898  15.051 -0.1211  0.3039  0.5182
11973TIP3    H257335   3.110   4.041  15.034  0.1088  0.5765  2.1374
11974TIP3   OH257336   1.610   2.987   1.288 -0.6344  0.1051  0.4468
11974TIP3    H157337   1.655   3.070   1.305 -1.4184  0.6049  0.0600
11974TIP3    H257338   1.541   3.009   1.226 -1.3005 -0.7009  0.9002
11975TIP3   OH257339   1.670   4.870   1.459 -0.3121 -0.3030  0.3387
11975TIP3    H157340   1.651   4.960   1.486 -1.7265 -0.7051  0.7445
11975TIP3    H257341   1.636   4.864   1.369 -0.9768 -0.6657  0.6114
11976TIP3   OH257342   3.222   3.933  15.460 -0.8582 -0.5286  0.7414
11976TIP3    H157343   3.151   3.975  15.411 -0.1537  0.3340  0.4625
11976TIP3    H257344   3.260   3.870  15.399 -1.5497 -1.1940  0.9816
11977TIP3   OH257345   0.066   5.453   1.120  0.0898  0.3949  0.0954
11977TIP3    H157346   0.135   5.500   1.074  0.7008  1.1793  1.7549
11977TIP3    H257347   0.010   5.522   1.157 -1.5833 -0.2280 -1.1863
11978TIP3   OH257348   5.919   3.445   0.101  0.5594 -0.0625 -0.4902
11978TIP3    H157349   5.962   3.376   0.052 -0.3170 -1.5836  0.8366
11978TIP3    H257350   5.903   3.514   0.036 -0.1502 -1.8203 -2.2458
11979TIP3   OH257351   2.322   5.967   0.894 -0.4436  0.0912  0.0030
11979TIP3    H157352   2.387   5.897   0.892  0.8927  1.3373 -1.7467
11979TIP3    H257353   2.242   5.925   0.923  0.8596 -1.7230  1.0332
11980TIP3   OH257354   2.107   3.237   2.025 -0.1524 -0.6552  0.1860
11980TIP3    H157355   2.150   3.165   2.071 -1.3652 -0.5203  1.5823
11980TIP3    H257356   2.176   3.278   1.974  0.7405 -2.2597  0.0790
11981TIP3   OH257357   1.557   4.693   3.521 -0.0064 -0.4956  0.4050
11981TIP3    H157358   1.481   4.641   3.494  0.1831 -1.0206  0.8724
11981TIP3    H257359   1.525   4.744   3.596  0.0894 -0.6658  0.5592
11982TIP3   OH257360   1.999   4.786  15.845  0.0696  0.1020  0.7373
11982TIP3    H157361   2.035   4.731  15.914  0.0319 -0.9942 -0.0950
11982TIP3    H257362   2.026   4.743  15.764 -1.7165  0.1624  0.0877
11983TIP3   OH257363   0.606   5.909  15.387  0.4187 -0.3759 -0.1772
11983TIP3    H157364   0.640   5.960  15.314  0.3480  0.1270  0.1319
11983TIP3    H257365   0.677   5.910  15.452  0.5369 -0.9411 -0.3001
11984TIP3   OH257366   0.932   5.500  14.882  0.0458 -0.0202  0.0244
11984TIP3    H157367   0.897   5.521  14.969  0.3534  1.3809 -0.1793
11984TIP3    H257368   1.016   5.457  14.900  0.6602  1.3145  0.3994
11985TIP3   OH257369   3.015   3.670   2.937  0.5491  0.7146  0.2793
11985TIP3    H157370   3.095   3.617   2.937  1.8755  2.6560  1.5111
11985TIP3    H257371   2.988   3.672   2.845 -0.2235 -3.0522  0.3513
11986TIP3   OH257372   5.049   6.067   1.485 -0.1046  0.5050 -0.1349
11986TIP3    H157373   4.991   6.139   1.510 -1.1963  0.1080 -1.4509
11986TIP3    H257374   5.104   6.052   1.562  1.1213  3.6834 -0.3131
11987TIP3   OH257375   0.292   3.978   0.583 -0.0210 -0.1017 -0.2018
11987TIP3    H157376   0.291   4.044   0.652  1.7828 -0.5808  0.3152
11987TIP3    H257377   0.381   3.942   0.586 -0.7872 -2.1147 -0.8853
11988TIP3   OH257378   7.039   5.783   0.881 -0.4436 -0.2996 -0.4827
11988TIP3    H157379   6.992   5.866   0.885 -3.1300 -1.7996  0.9439
11988TIP3    H257380   7.052   5.758   0.973  0.1583 -1.5283 -0.8904
11989TIP3   OH257381   1.329   4.832   2.626 -0.0626  0.3118 -0.0457
11989TIP3    H157382   1.278   4.819   2.706  1.0534 -0.4894  0.5524
11989TIP3    H257383   1.387   4.906   2.646  1.8237 -1.3213  0.7337
11990TIP3   OH257384   2.594   5.058   2.483  0.5760  0.1290  0.1533
11990TIP3    H157385   2.511   5.044   2.437 -0.6889 -0.1080  2.4414
11990TIP3    H257386   2.609   4.976   2.530  2.1884  0.1305 -0.3573
11991TIP3   OH257387   0.750   3.090   4.032  0.6562 -0.0174  0.2739
11991TIP3    H157388   0.752   3.054   4.121 -0.5077  0.4147  0.4910
11991TIP3    H257389   0.748   3.185   4.045 -0.2419  0.0350 -0.1822
11992TIP3   OH257390   6.625   6.206   0.803 -0.4275 -0.4641 -0.0587
11992TIP3    H157391   6.549   6.240   0.851 -0.1974 -1.3714  0.9799
11992TIP3    H257392   6.650   6.276   0.743 -0.0358  1.1299  1.9382
11993TIP3   OH257393   1.248   3.544   1.522  0.0232  0.2925 -0.4395
11993TIP3    H157394   1.269   3.454   1.497  0.5646  0.1477  0.4898
11993TIP3    H257395   1.308   3.598   1.471  0.6401  0.0466  0.0272
11994TIP3   OH257396   5.703   5.092   1.295  0.0109 -0.0604 -0.6885
11994TIP3    H157397   5.642   5.108   1.367  1.6252  0.0490  0.7098
11994TIP3    H257398   5.663   5.020   1.245 -1.3274  0.1253  0.0890
11995TIP3   OH257399   2.750   6.306   1.602  0.0351 -0.4279 -0.4783
11995TIP3    H157400   2.656   6.302   1.619  0.3441 -1.4262  1.0618
11995TIP3    H257401   2.783   6.373   1.661  0.2548  0.1229 -1.2190
11996TIP3   OH257402   0.948   6.294  15.715  0.3161  0.0349  0.3015
11996TIP3    H157403   1.020   6.284  15.653  0.6605  0.1396  0.6750
11996TIP3    H257404   0.913   6.382  15.698 -0.8833 -0.6894 -1.0789
11997TIP3   OH257405   1.744   4.458   1.376 -0.4853 -0.1976  0.6029
11997TIP3    H157406   1.660   4.443   1.419  0.4929 -0.8777  2.3166
11997TIP3    H257407   1.721   4.494   1.290 -2.5051 -0.0422  1.1874
11998TIP3   OH257408   3.184   4.771   4.735 -0.1770 -0.1456  0.2297
11998TIP3    H157409   3.256   4.729   4.782  0.5547  0.2208 -0.5661
11998TIP3    H257410   3.143   4.828   4.801  0.9232  0.4586  0.3920
11999TIP3   OH257411   0.711   5.521   1.952  0.5936  0.1549  0.2396
11999TIP3    H157412   0.694   5.583   1.881 -1.6712 -1.4402 -0.6596
11999TIP3    H257413   0.770   5.456   1.914 -0.9602 -0.9339 -0.3192
12000TIP3   OH257414   0.525   5.846   2.360 -0.2843 -0.1264  0.8469
12000TIP3    H157415   0.582   5.773   2.337 -1.3551 -0.1962 -1.6991
12000TIP3    H257416   0.491   5.823   2.447  1.8651 -1.0993  1.4636
12001TIP3   OH257417   0.480   5.586   2.115  0.0477  0.0291  0.4235
12001TIP3    H157418   0.394   5.627   2.105  0.2143  0.3974  0.4831
12001TIP3    H257419   0.519   5.589   2.028  0.2300  0.3786  0.5181
12002TIP3   OH257420   6.485   4.418   0.426 -0.2750 -0.3511 -0.1244
12002TIP3    H157421   6.536   4.464   0.360  1.0514 -0.0524  1.0800
12002TIP3    H257422   6.476   4.329   0.393  2.8159 -0.9630  0.6198
12003TIP3   OH257423   1.009   5.173   1.201  0.3843  0.0276  0.5829
12003TIP3    H157424   0.929   5.130   1.233 -1.5518  2.4730 -0.7866
12003TIP3    H257425   1.039   5.225   1.275 -0.0817  0.1505  0.6914
12004TIP3   OH257426   0.304   4.718   1.162 -0.0575 -0.2536  0.3358
12004TIP3    H157427   0.314   4.809   1.189 -3.3104  0.1429  0.3885
12004TIP3    H257428   0.298   4.669   1.243  0.3954 -0.3677  0.3032
12005TIP3   OH257429   1.150   5.041   1.014  0.3339 -0.5044  0.2433
12005TIP3    H157430   1.225   5.101   1.006  1.3676 -1.6904  0.8388
12005TIP3    H257431   1.091   5.085   1.075  1.7360 -0.6840  1.8000
12006TIP3   OH257432   2.838   4.051   0.201  0.3988  0.1482  0.0373
12006TIP3    H157433   2.777   4.110   0.245  1.2366  1.4751 -0.5539
12006TIP3    H257434   2.785   4.009   0.132  0.0987  1.1681 -0.3674
12007TIP3   OH257435   2.288   4.020   1.976  0.7560  0.7900  0.1153
12007TIP3    H157436   2.330   3.996   1.893  1.3334 -0.2968  0.7056
12007TIP3    H257437   2.202   3.977   1.973  1.5805 -0.9714  0.9416
12008TIP3   OH257438   0.690   5.109   0.932  0.0492  0.3923 -0.0844
12008TIP3    H157439   0.714   5.093   1.023  1.6424 -0.4634 -0.6209
12008TIP3    H257440   0.660   5.200   0.930  1.2578  0.8302  1.0425
12009TIP3   OH257441   0.629   4.419   1.465 -0.5243 -0.5929  0.1813
12009TIP3    H157442   0.631   4.379   1.552  2.9152  2.1632  1.5139
12009TIP3    H257443   0.709   4.387   1.423  0.0024  1.3526 -0.3507
12010TIP3   OH257444   6.363   6.232   0.880  0.2811 -0.1966  0.4052
12010TIP3    H157445   6.369   6.194   0.967 -0.6918 -0.6191  0.2906
12010TIP3    H257446   6.318   6.166   0.827  0.3405  0.2955 -0.2761
12011TIP3   OH257447   0.371   4.957   2.231 -0.8506 -0.0377  0.0256
12011TIP3    H157448   0.400   4.977   2.320 -1.4596 -0.8629  0.4191
12011TIP3    H257449   0.412   5.024   2.176  0.9737 -0.5911  0.6957
12012TIP3   OH257450   7.070   7.253  15.465 -0.7267 -0.8996 -0.7593
12012TIP3    H157451   7.087   7.283  15.554  0.3523 -1.6125 -0.7062
12012TIP3    H257452   7.033   7.329  15.420 -0.3507 -0.2445  0.0298
12013TIP3   OH257453   1.041   5.232   3.422 -0.0819  0.5063  0.3493
12013TIP3    H157454   1.082   5.233   3.336 -1.8955  0.1849 -0.5558
12013TIP3    H257455   1.114   5.233   3.484  1.3062 -1.7377 -1.1803
12014TIP3   OH257456   1.473   6.693   1.674  0.3316  0.6713 -0.2357
12014TIP3    H157457   1.436   6.605   1.661 -1.9040  1.5225  0.2097
12014TIP3    H257458   1.443   6.719   1.761  2.6181  1.1230  0.4557
12015TIP3   OH257459   2.001   6.235   0.184 -0.2339 -0.1161  0.1297
12015TIP3    H157460   2.030   6.292   0.255  1.6679 -1.3490  0.4028
12015TIP3    H257461   2.082   6.213   0.137 -1.0428 -1.8813 -0.4837
12016TIP3   OH257462   3.058   6.664   0.693  0.1825 -0.5923  0.2945
12016TIP3    H157463   2.995   6.736   0.689  0.9659  0.1407  0.9915
12016TIP3    H257464   3.131   6.693   0.639 -0.1740 -1.5385 -0.6986
12017TIP3   OH257465   1.170   5.790  13.845  0.0604  0.2994  0.2058
12017TIP3    H157466   1.171   5.799  13.750 -1.6216  1.1576  0.2532
12017TIP3    H257467   1.111   5.716  13.861 -0.5964  0.9128  0.6268
12018TIP3   OH257468   4.541   5.728   0.749 -0.6344  0.2217  0.5081
12018TIP3    H157469   4.602   5.695   0.684 -1.1981 -1.8093  0.9799
12018TIP3    H257470   4.578   5.699   0.833 -1.7935 -0.3055  0.8454
12019TIP3   OH257471   2.904   6.105   0.025  0.1409 -0.6017 -0.5457
12019TIP3    H157472   2.835   6.112  -0.041 -1.6214 -2.7693  0.9743
12019TIP3    H257473   2.915   6.011   0.038  1.0068 -0.2350  1.6280
12020TIP3   OH257474   2.484   6.370   0.691  0.4811 -0.1027 -0.0328
12020TIP3    H157475   2.554   6.342   0.632  1.4067  1.2492  0.3893
12020TIP3    H257476   2.499   6.320   0.771 -0.0459 -1.0531 -0.5340
12021TIP3   OH257477   4.093   5.803   1.307  0.1000 -0.1676 -0.0080
12021TIP3    H157478   4.155   5.865   1.345 -1.0273  0.1362  1.4097
12021TIP3    H257479   4.088   5.732   1.370  1.0310 -1.5017 -1.4059
12022TIP3   OH257480   2.955   4.828   0.203 -0.2694 -0.5641 -0.3630
12022TIP3    H157481   2.908   4.772   0.265  0.9518 -1.4704 -0.2367
12022TIP3    H257482   3.046   4.826   0.233 -0.1293  1.1190 -0.6401
12023TIP3   OH257483   1.409   4.537  14.371 -0.1804  0.5071 -0.4735
12023TIP3    H157484   1.409   4.623  14.330 -0.7111 -0.2698 -2.1335
12023TIP3    H257485   1.320   4.505  14.360 -0.6896  0.7889  2.4129
12024TIP3   OH257486   7.299   5.414  15.416 -0.0966  0.3935 -0.0499
12024TIP3    H157487   7.312   5.329  15.374  0.5075  1.1156 -1.3561
12024TIP3    H257488   7.367   5.470  15.378 -0.8683  1.6222  0.3580
12025TIP3   OH257489   2.231   6.936   2.708  0.0318 -0.0438  0.0675
12025TIP3    H157490   2.270   6.987   2.778 -2.0783 -0.2069  1.3974
12025TIP3    H257491   2.197   7.001   2.647 -1.6805  0.1428  1.2088
12026TIP3   OH257492   2.404   4.579   0.860 -0.3194 -0.2532 -0.5551
12026TIP3    H157493   2.368   4.663   0.887 -1.9417 -0.8743 -0.7206
12026TIP3    H257494   2.342   4.514   0.894  1.2758 -1.4255  0.1726
12027TIP3   OH257495   0.944   2.383   0.683 -0.1865  0.3772  0.2025
12027TIP3    H157496   1.006   2.381   0.756  0.8550 -3.1491 -0.7157
12027TIP3    H257497   0.858   2.373   0.725  0.4757 -2.7889  0.9522
12028TIP3   OH257498   3.806   4.362  15.449 -0.6945 -0.0616 -0.3636
12028TIP3    H157499   3.772   4.451  15.459 -0.8953 -0.1683 -0.0795
12028TIP3    H257500   3.728   4.308  15.437 -0.6470 -0.3306  0.4707
12029TIP3   OH257501   3.383   3.545   1.392 -0.1000  0.4582  0.1564
12029TIP3    H157502   3.316   3.477   1.400 -0.7388  0.9137 -1.2156
12029TIP3    H257503   3.433   3.520   1.315  0.9801  0.4244  0.8583
12030TIP3   OH257504   0.377   3.906   3.569  0.2894  0.0553  0.4532
12030TIP3    H157505   0.438   3.877   3.637 -0.2592 -0.1940  0.8461
12030TIP3    H257506   0.418   3.983   3.531  1.3744 -0.7571 -0.0290
12031TIP3   OH257507   0.940   1.234   3.393 -0.4877  0.0186 -0.0363
12031TIP3    H157508   0.970   1.152   3.432 -1.9331 -1.7646 -2.5542
12031TIP3    H257509   0.983   1.237   3.308 -0.9689  1.5978 -0.2441
12032TIP3   OH257510   2.085   6.178  15.432 -0.0313  0.7364  0.4498
12032TIP3    H157511   2.123   6.219  15.510 -0.2520  1.3478  0.2424
12032TIP3    H257512   2.146   6.202  15.361  0.9825 -1.0629  0.6724
12033TIP3   OH257513   2.736   5.315  15.772 -0.1641  0.5286 -0.3839
12033TIP3    H157514   2.746   5.220  15.768  1.0426  0.6354  0.0653
12033TIP3    H257515   2.819   5.347  15.807  0.0088  1.8692 -1.9547
12034TIP3   OH257516   1.019   4.537   1.491 -0.0013  0.3249  0.5054
12034TIP3    H157517   1.022   4.513   1.398 -0.4448  1.7494  0.1123
12034TIP3    H257518   0.984   4.460   1.535  1.3228 -0.7958 -0.3563
12035TIP3   OH257519   1.879   4.610   4.274  0.0142 -0.2290 -0.0863
12035TIP3    H157520   1.831   4.643   4.350 -0.7205  1.8840 -1.4573
12035TIP3    H257521   1.887   4.515   4.290 -2.4960 -0.2299  1.2951
12036TIP3   OH257522   2.923   2.660   2.099 -0.1596 -0.6543  0.0475
12036TIP3    H157523   2.832   2.630   2.102 -0.4543  0.3836  3.7028
12036TIP3    H257524   2.974   2.580   2.088 -1.4001 -1.4605 -0.0021
12037TIP3   OH257525   0.214   3.364   0.561 -0.1123 -0.3954 -0.3882
12037TIP3    H157526   0.241   3.443   0.515  0.1284  0.4989  1.2587
12037TIP3    H257527   0.295   3.314   0.572 -0.1955 -0.6857 -1.0503
12038TIP3   OH257528   4.082   4.381   0.072 -0.2441  0.2823 -0.1023
12038TIP3    H157529   4.165   4.409   0.034 -1.0082  0.5197 -1.6640
12038TIP3    H257530   4.065   4.443   0.143  0.6735  0.5149 -0.0844
12039TIP3   OH257531   6.489   1.889   1.438  0.2801  0.5185  0.1208
12039TIP3    H157532   6.526   1.965   1.484 -0.5242 -0.5196  2.5740
12039TIP3    H257533   6.395   1.904   1.436  0.5128  2.1524 -4.2862
12040TIP3   OH257534   3.045   2.862   3.141 -0.6876  0.2868  0.0011
12040TIP3    H157535   3.074   2.917   3.068 -0.9743  1.3686  0.7025
12040TIP3    H257536   3.098   2.782   3.133  2.1799  2.0044  0.9555
12041TIP3   OH257537   5.767   5.513   1.540 -0.1862  0.2976  0.2361
12041TIP3    H157538   5.756   5.475   1.627 -1.0309  1.0009  0.4419
12041TIP3    H257539   5.740   5.443   1.480 -1.4263  0.4457  0.6018
12042TIP3   OH257540   1.315   6.441   0.484  0.3194 -0.0455 -0.4127
12042TIP3    H157541   1.397   6.430   0.436 -0.2921  0.3053 -1.5481
12042TIP3    H257542   1.315   6.370   0.548  1.1104 -0.5600 -0.9783
12043TIP3   OH257543   1.413   6.036   2.014 -0.4972 -0.1518  0.5051
12043TIP3    H157544   1.412   5.971   2.084 -0.5980 -0.7216 -0.0221
12043TIP3    H257545   1.401   5.985   1.934 -1.8102  0.6339  0.1822
12044TIP3   OH257546   1.493   2.247   2.499  0.2544  0.1038 -0.0765
12044TIP3    H157547   1.399   2.264   2.503  0.4641  0.9770  1.6185
12044TIP3    H257548   1.515   2.215   2.587  1.4865 -0.3680 -0.5502
12045TIP3   OH257549   5.720   7.108  14.562  0.4449  0.6789 -0.2239
12045TIP3    H157550   5.635   7.079  14.597 -0.0335  1.8957 -0.3546
12045TIP3    H257551   5.725   7.066  14.476  0.4750 -0.2856  0.2419
12046TIP3   OH257552   0.075   6.788   1.974  0.0182  0.2519 -0.1299
12046TIP3    H157553   0.108   6.862   2.025  0.5487 -0.3541  0.4095
12046TIP3    H257554   0.149   6.727   1.971 -0.1420  0.1098 -1.2788
12047TIP3   OH257555   0.871   6.241   3.768 -0.0788 -0.0471 -0.4732
12047TIP3    H157556   0.873   6.315   3.829 -2.3780  0.1085 -0.5452
12047TIP3    H257557   0.877   6.281   3.681  1.3591 -0.1451 -0.4280
12048TIP3   OH257558   1.561   6.432  15.031 -0.4152  0.3513  0.3168
12048TIP3    H157559   1.620   6.382  15.087 -0.4875 -0.0117  0.0746
12048TIP3    H257560   1.602   6.518  15.024 -0.0851  0.2061  0.4201
12049TIP3   OH257561   5.916   5.994   3.857 -0.1565  0.2349 -0.0679
12049TIP3    H157562   5.882   5.973   3.944 -0.3978  0.5365 -0.0871
12049TIP3    H257563   5.853   5.955   3.797 -1.4249  2.2543 -0.1074
12050TIP3   OH257564   2.059   5.686  15.789 -0.0455  0.1624 -0.3441
12050TIP3    H157565   2.036   5.601  15.751  0.2238 -0.0931  0.0694
12050TIP3    H257566   2.051   5.748  15.716  2.1625 -0.5924 -1.2673
12051TIP3   OH257567   1.089   5.593   2.878  0.1443  0.2159 -0.1431
12051TIP3    H157568   1.101   5.654   2.951 -3.0958 -0.9237  1.4426
12051TIP3    H257569   1.092   5.506   2.920  0.1344 -0.5400 -1.6785
12052TIP3   OH257570   2.119   6.785   2.303 -0.1500 -0.3735 -0.2380
12052TIP3    H157571   2.052   6.800   2.237  1.3409  1.3950 -1.3989
12052TIP3    H257572   2.182   6.727   2.261  0.5079  0.2961 -0.1938
12053TIP3   OH257573   2.074   4.187   2.518 -0.8410  0.2987  0.5182
12053TIP3    H157574   2.096   4.279   2.534 -2.3023  0.6419  0.6340
12053TIP3    H257575   1.986   4.177   2.555 -0.8306 -1.0624  0.1938
12054TIP3   OH257576   2.885   4.768  15.719 -0.6894 -0.6237  0.3732
12054TIP3    H157577   2.904   4.769  15.813 -3.1821  3.0260  0.9318
12054TIP3    H257578   2.953   4.823  15.680 -1.0394 -0.2070  0.3498
12055TIP3   OH257579   2.479   3.717   1.914 -0.3778 -0.1405  0.1619
12055TIP3    H157580   2.389   3.699   1.942 -0.6882  1.0381 -0.0453
12055TIP3    H257581   2.475   3.806   1.880  0.6111 -0.5403 -0.9973
12056TIP3   OH257582   6.729   4.542   0.284 -0.2916  0.0463  0.1759
12056TIP3    H157583   6.726   4.560   0.189  0.2592 -3.3005 -0.5191
12056TIP3    H257584   6.822   4.543   0.306 -0.4120  0.6648  0.6751
12057TIP3   OH257585   1.264   4.747   1.285  0.0933  0.5246  0.4014
12057TIP3    H157586   1.245   4.672   1.229  0.2562  0.1907  0.7921
12057TIP3    H257587   1.178   4.782   1.309  0.0334  1.1562 -0.7078
12058TIP3   OH257588   0.021   4.237  15.880  0.1819  0.5085 -0.1088
12058TIP3    H157589   0.070   4.163  15.916 -1.0719 -0.3924 -0.2078
12058TIP3    H257590  -0.004   4.209  15.792  1.5510  1.9235 -0.9753
12059TIP3   OH257591   1.262   4.304   1.571 -0.0528  0.4291  0.3254
12059TIP3    H157592   1.273   4.399   1.578 -1.5433  0.7042 -0.7622
12059TIP3    H257593   1.168   4.290   1.584  0.1158 -0.8694  0.1824
12060TIP3   OH257594   1.732   4.592   0.019  0.0599  0.7713  0.1180
12060TIP3    H157595   1.679   4.523   0.059  1.3293  0.4598  1.2710
12060TIP3    H257596   1.681   4.619  -0.058  0.0639 -2.2073 -1.0085
12061TIP3   OH257597   6.807   5.174   0.221  0.4716 -0.4356 -0.5399
12061TIP3    H157598   6.793   5.079   0.220 -1.4744 -0.2179  1.4005
12061TIP3    H257599   6.805   5.197   0.314 -1.1200  1.7943 -1.0866
12062TIP3   OH257600   1.212   4.460   1.994  0.2694 -0.1962  0.2371
12062TIP3    H157601   1.194   4.503   2.078 -2.3281  1.9264 -1.3102
12062TIP3    H257602   1.190   4.526   1.928 -0.7843 -2.8262 -2.1679
12063TIP3   OH257603   7.031   3.832   0.945 -0.0958 -0.6046  0.1018
12063TIP3    H157604   7.002   3.758   0.892  2.2678 -0.9268 -0.8171
12063TIP3    H257605   7.048   3.795   1.031 -2.1265 -0.4473  0.5992
12064TIP3   OH257606   6.231   6.300  14.379  0.7013  0.0759 -0.1804
12064TIP3    H157607   6.246   6.205  14.376 -0.9233 -0.1562 -1.9218
12064TIP3    H257608   6.297   6.333  14.440  1.1892 -2.1940  0.5593
12065TIP3   OH257609   2.017   6.883   0.454  0.3115  0.1375 -0.2979
12065TIP3    H157610   2.017   6.839   0.539 -3.5073 -2.0725 -1.3034
12065TIP3    H257611   2.022   6.976   0.476 -0.5540 -0.3838  2.3685
12066TIP3   OH257612   1.998   4.902   1.286 -0.3767 -0.0710 -0.4490
12066TIP3    H157613   1.993   4.848   1.365 -0.5581  0.9963  0.2861
12066TIP3    H257614   2.015   4.840   1.215  0.2100 -0.9992  0.4856
12067TIP3   OH257615   7.010   3.433   2.152  0.1420  0.0385  0.0043
12067TIP3    H157616   6.928   3.481   2.152  0.0347 -0.1388  0.6400
12067TIP3    H257617   7.072   3.491   2.195  0.6133  0.6048 -1.4242
12068TIP3   OH257618   1.210   0.578  15.498 -0.6170 -0.3543 -0.1905
12068TIP3    H157619   1.124   0.567  15.538 -0.9214  1.6511 -0.2548
12068TIP3    H257620   1.192   0.619  15.413  0.3044 -1.1527 -0.7825
12069TIP3   OH257621   0.302   1.177   3.814  0.2756 -0.5196  0.7170
12069TIP3    H157622   0.389   1.213   3.832 -0.7457  1.9335  0.9147
12069TIP3    H257623   0.309   1.141   3.725  1.3700  0.0500  0.5610
12070TIP3   OH257624   0.821   5.375   0.595 -0.1777  0.1261 -0.2335
12070TIP3    H157625   0.900   5.355   0.646 -0.2427 -0.5993 -0.4210
12070TIP3    H257626   0.827   5.319   0.518 -0.9932 -0.0918 -0.1373
12071TIP3   OH257627   2.215   0.224  15.573  0.1857 -0.0704  0.2555
12071TIP3    H157628   2.238   0.159  15.507  0.2378 -2.1607  2.2851
12071TIP3    H257629   2.120   0.234  15.565  0.4905  1.5976 -1.8005
12072TIP3   OH257630   3.051   6.151   0.966 -0.1428 -0.1079 -1.1376
12072TIP3    H157631   2.976   6.209   0.965 -0.1219 -0.0586 -0.2626
12072TIP3    H257632   3.014   6.063   0.963 -0.2925 -0.1143  0.2743
12073TIP3   OH257633   2.273   3.627   1.129 -0.1586 -0.0360  0.1221
12073TIP3    H157634   2.206   3.589   1.071 -0.6226 -1.1498  1.3703
12073TIP3    H257635   2.223   3.663   1.202  0.5206  0.3015  0.4228
12074TIP3   OH257636   3.729   4.051   0.855  0.3768  0.4422  0.3491
12074TIP3    H157637   3.722   3.958   0.834 -2.2910  0.0116  2.6967
12074TIP3    H257638   3.743   4.094   0.771 -1.0820 -1.8522 -1.1264
12075TIP3   OH257639   3.171   4.000   2.738  0.2284 -0.0098  0.4322
12075TIP3    H157640   3.210   3.920   2.703 -1.0982 -0.6592  0.4227
12075TIP3    H257641   3.163   4.058   2.663 -1.5512 -0.9749 -0.1420
12076TIP3   OH257642   1.681   7.197  15.881  0.3648  0.0003  0.5502
12076TIP3    H157643   1.639   7.130  15.828  0.4714  0.4889 -0.1685
12076TIP3    H257644   1.610   7.234  15.934  0.2505 -0.4597  0.7196
12077TIP3   OH257645   3.111   3.876   3.125 -0.1693  0.5281  0.8363
12077TIP3    H157646   3.073   3.801   3.080  1.4149  0.4098 -0.3199
12077TIP3    H257647   3.158   3.838   3.199 -0.6684  0.5242  1.1577
12078TIP3   OH257648   4.878   3.437   0.947  0.3068 -0.3304 -0.6130
12078TIP3    H157649   4.913   3.374   1.010  0.2525  0.7719  0.5618
12078TIP3    H257650   4.946   3.446   0.881  1.3829  0.2319  0.5455
12079TIP3   OH257651   1.111   5.482   1.894 -0.2868  0.3846  0.4344
12079TIP3    H157652   1.186   5.480   1.835 -0.8914 -0.3854 -0.3331
12079TIP3    H257653   1.036   5.495   1.836 -0.6952  1.7556  1.2532
12080TIP3   OH257654   3.737   3.395   0.843 -0.0337  0.3004 -0.3276
12080TIP3    H157655   3.694   3.415   0.760 -0.7486 -1.8543 -0.5296
12080TIP3    H257656   3.827   3.373   0.820 -0.3864 -0.8792 -0.6385
12081TIP3   OH257657   1.961   2.057   0.120 -0.1087  0.1633 -0.8572
12081TIP3    H157658   1.965   2.151   0.139  0.1404  0.6295 -3.0212
12081TIP3    H257659   2.049   2.025   0.141 -0.3865  0.2777  0.5052
12082TIP3   OH257660   2.375   4.087  15.563 -0.3794 -0.3787 -0.3903
12082TIP3    H157661   2.288   4.108  15.597  0.0396  2.5758 -0.9513
12082TIP3    H257662   2.377   4.128  15.477  1.4791 -0.5871 -0.4608
12083TIP3   OH257663   3.996   3.338   1.792  0.2510 -0.1796  0.7606
12083TIP3    H157664   4.081   3.362   1.755 -0.2333 -1.1141 -1.0141
12083TIP3    H257665   3.975   3.409   1.852  1.5098  0.9048 -0.0435
12084TIP3   OH257666   4.385   4.497   1.815  0.2457  0.9498  0.5277
12084TIP3    H157667   4.332   4.441   1.759 -1.1674  0.2154  2.5128
12084TIP3    H257668   4.423   4.437   1.880  0.3827  1.9925  1.4403
12085TIP3   OH257669   3.470   3.976   1.536 -0.5917 -0.0992 -0.7337
12085TIP3    H157670   3.546   4.028   1.563  0.7167 -2.5634  0.4427
12085TIP3    H257671   3.395   4.027   1.566  0.7317 -0.9757  4.5461
12086TIP3   OH257672   5.529   3.721   2.651 -0.2497 -0.1823  0.5023
12086TIP3    H157673   5.607   3.753   2.606 -0.7107  2.7751  1.6601
12086TIP3    H257674   5.527   3.770   2.733 -1.0605 -3.3043  2.4113
12087TIP3   OH257675   4.995   4.811   3.535 -0.5395 -0.0081  0.1496
12087TIP3    H157676   4.906   4.776   3.530 -0.3145 -0.6509  0.5249
12087TIP3    H257677   5.049   4.735   3.558  0.1043  0.3791 -0.0841
12088TIP3   OH257678   3.853   5.901   1.213 -0.1209  0.0409  0.2942
12088TIP3    H157679   3.857   5.980   1.267  0.6376 -0.5281  1.0771
12088TIP3    H257680   3.936   5.857   1.228 -0.4874 -0.8488 -0.2333
12089TIP3   OH257681   2.109   5.497   0.714 -0.1870  0.0629 -0.6377
12089TIP3    H157682   2.134   5.532   0.799 -0.0343  0.2722 -0.7683
12089TIP3    H257683   2.133   5.566   0.651  1.8924 -1.0334 -1.0946
12090TIP3   OH257684   3.076   3.484   1.576  0.2151 -0.0541  0.6222
12090TIP3    H157685   3.101   3.440   1.495 -1.9717 -2.5605  1.2305
12090TIP3    H257686   3.028   3.561   1.547  0.6258 -0.1928 -0.4586
12091TIP3   OH257687   3.567   4.490   5.305  0.3779 -0.0185 -0.0964
12091TIP3    H157688   3.502   4.436   5.259  0.7535 -0.6368  0.0901
12091TIP3    H257689   3.515   4.543   5.365 -0.1614  1.1510 -1.5739
12092TIP3   OH257690   3.352   5.950   2.526  0.0835 -0.1607 -0.1043
12092TIP3    H157691   3.427   6.005   2.549  0.5187 -0.4950 -0.6838
12092TIP3    H257692   3.301   5.944   2.606  1.1885 -0.7208  0.5757
12093TIP3   OH257693   4.174   2.480   0.125  0.1282 -0.6613 -0.5707
12093TIP3    H157694   4.254   2.452   0.081  1.3799  1.6299  0.1866
12093TIP3    H257695   4.197   2.482   0.218 -1.2913 -1.5465 -0.1915
12094TIP3   OH257696   3.737   6.343   3.096  0.7062  0.1684 -0.3961
12094TIP3    H157697   3.830   6.341   3.073  0.7387  1.0026 -0.3502
12094TIP3    H257698   3.713   6.251   3.107  1.2515 -0.1116 -1.4935
12095TIP3   OH257699   4.060   5.106   2.625 -0.1524  0.2264  0.0234
12095TIP3    H157700   3.996   5.176   2.613 -1.1540 -1.1420 -2.9683
12095TIP3    H257701   4.135   5.133   2.570  0.0300 -0.3654 -0.0163
12096TIP3   OH257702   3.278   4.303   2.728  0.2766  0.2122  0.2400
12096TIP3    H157703   3.313   4.337   2.810  2.1925 -0.6223 -0.2059
12096TIP3    H257704   3.183   4.314   2.736  0.5164  1.0775  2.1304
12097TIP3   OH257705   3.745   5.231   1.080  0.2898 -0.0482 -0.4896
12097TIP3    H157706   3.786   5.255   1.163 -0.1750  0.2745 -0.3469
12097TIP3    H257707   3.814   5.238   1.015  0.4984  0.3327 -0.2274
12098TIP3   OH257708   4.257   6.346  15.982  0.0533 -0.6329 -0.5784
12098TIP3    H157709   4.258   6.271  16.042 -2.8123  0.2368  0.6504
12098TIP3    H257710   4.213   6.313  15.903 -1.5527 -0.1765  0.1073
12099TIP3   OH257711   3.188   4.643   2.484 -0.0344 -0.3219  1.2119
12099TIP3    H157712   3.212   4.550   2.488 -1.0427 -0.5479  2.0663
12099TIP3    H257713   3.097   4.645   2.511 -0.5864  0.7130 -0.6813
12100TIP3   OH257714   3.466   3.323   2.960  0.1179  0.0232  0.3449
12100TIP3    H157715   3.386   3.367   2.989  0.5926  0.7046  0.6262
12100TIP3    H257716   3.523   3.394   2.931  1.2684 -0.3211  1.7063
12101TIP3   OH257717   1.152   6.052   0.663  0.3974  0.2345 -1.2814
12101TIP3    H157718   1.120   6.040   0.753 -1.8644  0.5924 -2.0113
12101TIP3    H257719   1.238   6.094   0.674  0.4364 -0.3005  0.7245
12102TIP3   OH257720   4.776   3.903  15.190 -0.1729  0.2647 -0.2071
12102TIP3    H157721   4.735   3.828  15.234  0.7245  0.1845  0.5104
12102TIP3    H257722   4.843   3.863  15.134 -1.2397  0.3736 -1.5859
12103TIP3   OH257723   2.829   4.403   1.551 -0.1582  0.3568  0.2153
12103TIP3    H157724   2.910   4.451   1.572 -0.2894 -0.1038  1.7823
12103TIP3    H257725   2.759   4.458   1.586 -0.4616  0.2074 -0.1561
12104TIP3   OH257726   5.920   6.641   2.937 -0.1038 -0.1518 -0.2807
12104TIP3    H157727   5.862   6.704   2.895  2.5594  1.0937 -2.2134
12104TIP3    H257728   5.924   6.567   2.876 -1.3241 -1.1930  0.8633
12105TIP3   OH257729   3.095   4.886   0.535  0.5778 -0.3519 -0.1786
12105TIP3    H157730   3.087   4.933   0.617 -1.9966 -0.7738 -0.1597
12105TIP3    H257731   3.089   4.794   0.559  1.5935 -0.5585 -0.6637
12106TIP3   OH257732   2.089   6.118   1.064  0.2227 -0.0955 -0.3591
12106TIP3    H157733   2.076   6.212   1.060  0.4421  0.1489  2.9450
12106TIP3    H257734   2.183   6.106   1.050  0.0043  0.0535 -1.9997
12107TIP3   OH257735   4.394   4.468   2.852  0.0605  0.1705 -0.1419
12107TIP3    H157736   4.438   4.547   2.819  0.5983  1.3579  3.1490
12107TIP3    H257737   4.321   4.502   2.904 -1.2108 -1.6217 -0.7210
12108TIP3   OH257738   4.539   4.609   2.562  0.3370 -0.5985 -0.0769
12108TIP3    H157739   4.523   4.570   2.476  3.4969  0.0285 -1.0233
12108TIP3    H257740   4.468   4.673   2.572 -0.0046 -0.5767 -2.2805
12109TIP3   OH257741   2.724   4.279   2.263 -0.1615 -0.2484  0.2664
12109TIP3    H157742   2.657   4.343   2.240  0.1503 -0.6398 -1.8569
12109TIP3    H257743   2.712   4.208   2.200  1.3542 -0.9501  0.7480
12110TIP3   OH257744   2.668   1.091  15.900 -0.0508 -0.0820  0.6410
12110TIP3    H157745   2.607   1.094  15.827 -0.8447 -2.0101  1.1985
12110TIP3    H257746   2.689   1.183  15.918 -1.8077  0.5334 -0.3690
12111TIP3   OH257747   1.616   3.805   2.559 -0.2194  0.1067  0.2458
12111TIP3    H157748   1.661   3.732   2.603 -0.9592 -0.4230  0.1377
12111TIP3    H257749   1.597   3.772   2.471  0.0597  0.6866 -0.0347
12112TIP3   OH257750   3.304   6.577   2.028 -0.2161 -0.6522  0.3905
12112TIP3    H157751   3.335   6.651   1.976  1.3736 -2.0207 -0.6777
12112TIP3    H257752   3.287   6.614   2.114  1.1664  0.8422  0.0534
12113TIP3   OH257753   3.050   0.408   2.427  0.1492 -0.0268  0.0909
12113TIP3    H157754   3.025   0.319   2.450 -1.1492  0.4412  0.5360
12113TIP3    H257755   2.993   0.432   2.355 -0.3459  0.8547  0.7572
12114TIP3   OH257756   3.449   1.706   2.254  0.1273 -0.3778  0.0103
12114TIP3    H157757   3.365   1.751   2.255  0.5394  0.3880  0.3044
12114TIP3    H257758   3.512   1.770   2.287  0.6011 -1.4052  1.1792
12115TIP3   OH257759   3.575   5.898  14.965  0.1416  0.3272 -0.2873
12115TIP3    H157760   3.498   5.901  15.022 -1.1217  0.5672 -1.9524
12115TIP3    H257761   3.555   5.829  14.902  1.8494 -0.4642  0.0133
12116TIP3   OH257762   1.837   5.618   0.518  0.2485  0.1747  0.1446
12116TIP3    H157763   1.772   5.687   0.532  0.8260  0.7411  0.0634
12116TIP3    H257764   1.919   5.666   0.502  0.1965 -0.4684 -2.2971
12117TIP3   OH257765   2.561   5.093   0.418 -0.4338  0.7606 -0.1868
12117TIP3    H157766   2.573   5.108   0.324  1.4478  2.0347  0.2138
12117TIP3    H257767   2.642   5.127   0.458 -0.6037 -1.0416  1.7692
12118TIP3   OH257768   2.902   3.649  14.724 -0.3208 -0.1793  1.1596
12118TIP3    H157769   2.931   3.573  14.674 -1.7133 -0.3530  0.5823
12118TIP3    H257770   2.829   3.617  14.777 -1.2394  0.8633  0.5423
12119TIP3   OH257771   5.279   6.594   3.755 -0.4230  0.8143  0.2573
12119TIP3    H157772   5.204   6.580   3.697 -1.0185 -0.3518  1.2714
12119TIP3    H257773   5.289   6.511   3.802 -0.0519  1.7685  1.9107
12120TIP3   OH257774   1.509   6.543   3.663 -0.4055 -0.2816  0.4511
12120TIP3    H157775   1.595   6.570   3.696  0.9944 -0.4415 -2.8423
12120TIP3    H257776   1.462   6.625   3.648  0.2219 -0.0643 -0.3583
12121TIP3   OH257777   4.040   2.854   1.148  0.0289  0.0127  0.0814
12121TIP3    H157778   4.054   2.837   1.055 -0.7265  2.2176 -0.4697
12121TIP3    H257779   4.128   2.872   1.183  0.2093  0.0397 -0.3925
12122TIP3   OH257780   2.163   4.713  14.943 -0.2534 -0.2496  0.5337
12122TIP3    H157781   2.131   4.775  15.008 -1.5440 -0.9578  0.5873
12122TIP3    H257782   2.226   4.763  14.891 -0.8650  0.9472  0.9310
12123TIP3   OH257783   4.271   4.707  14.022 -0.4710  0.1887 -0.1914
12123TIP3    H157784   4.214   4.684  14.095  0.4964 -1.4689  0.0750
12123TIP3    H257785   4.358   4.715  14.061 -0.4375  2.2747 -0.6592
12124TIP3   OH257786   4.874   3.293  14.786 -0.0083 -0.1872  0.4367
12124TIP3    H157787   4.800   3.349  14.761 -0.9476 -1.2942  0.7140
12124TIP3    H257788   4.912   3.337  14.862 -0.0165  0.6980 -0.0631
12125TIP3   OH257789   5.925   3.894   1.711 -0.3554  0.3169  0.0665
12125TIP3    H157790   5.847   3.947   1.702 -0.9846 -0.6937 -0.6153
12125TIP3    H257791   5.936   3.882   1.805 -0.2491  1.5676  0.2184
12126TIP3   OH257792   2.168   4.679  15.601  0.4631  0.0930 -0.3616
12126TIP3    H157793   2.198   4.710  15.516  2.8018 -0.8813  0.0815
12126TIP3    H257794   2.240   4.698  15.661 -0.8355  0.0663  1.2628
12127TIP3   OH257795   3.531   2.490   0.056 -0.0577 -0.2354  0.5272
12127TIP3    H157796   3.509   2.424   0.122 -0.3486  0.3461  1.0258
12127TIP3    H257797   3.501   2.573   0.095  1.1382  0.3129  0.3251
12128TIP3   OH257798   3.245   4.126   0.899  0.2310 -0.0961 -0.4144
12128TIP3    H157799   3.201   4.135   0.815 -1.9113 -3.1235  0.3087
12128TIP3    H257800   3.178   4.148   0.964  1.3515  0.4502  0.5923
12129TIP3   OH257801   2.596   5.646   3.465 -0.1487 -0.2170  0.4706
12129TIP3    H157802   2.583   5.741   3.458  2.0215  0.0953  0.2241
12129TIP3    H257803   2.511   5.609   3.443 -0.4805  1.6192 -1.6174
12130TIP3   OH257804   2.772   3.190  15.708 -0.6298 -0.0763 -0.3874
12130TIP3    H157805   2.837   3.259  15.705 -0.5680  0.0784  2.7082
12130TIP3    H257806   2.814   3.120  15.759 -1.6092 -1.3547 -1.3204
12131TIP3   OH257807   1.793   3.750  13.508 -0.0022  0.6322 -0.2878
12131TIP3    H157808   1.826   3.710  13.589  1.0495  0.9656 -0.5385
12131TIP3    H257809   1.705   3.715  13.498  0.5914 -0.9709 -0.0471
12132TIP3   OH257810   3.458   3.350   0.903 -1.1455 -0.1421 -0.0586
12132TIP3    H157811   3.412   3.387   0.828 -0.1678 -2.2086 -1.7504
12132TIP3    H257812   3.551   3.367   0.885 -0.8537 -1.3069  0.2857
12133TIP3   OH257813   1.095   3.506   0.828  0.2310  0.1070 -0.0010
12133TIP3    H157814   1.079   3.492   0.734 -0.2936  1.4827 -0.1334
12133TIP3    H257815   1.171   3.564   0.830 -0.6282  1.2297  0.3854
12134TIP3   OH257816   4.801   5.095   2.640  0.1202 -0.0991 -0.5011
12134TIP3    H157817   4.881   5.073   2.591  1.1385 -0.9361  1.4528
12134TIP3    H257818   4.799   5.031   2.712 -1.0752  1.3764  0.8069
12135TIP3   OH257819   3.974   4.998   1.392 -0.1280  0.2124  0.2838
12135TIP3    H157820   3.934   4.917   1.360  2.1968 -0.7233 -0.3575
12135TIP3    H257821   3.982   4.984   1.486  2.3266 -1.2788 -0.1137
12136TIP3   OH257822   1.663   3.281   3.271  0.0251  0.3334 -0.1944
12136TIP3    H157823   1.620   3.219   3.212 -0.9071  1.2688 -0.4988
12136TIP3    H257824   1.750   3.293   3.233  0.2796 -0.9054 -0.0400
12137TIP3   OH257825   2.977   3.831   0.733 -0.3702 -0.2972  0.2760
12137TIP3    H157826   2.991   3.818   0.827 -0.7545  0.3267  0.4220
12137TIP3    H257827   2.962   3.925   0.724  1.1264 -0.1217 -0.6008
12138TIP3   OH257828   1.705   2.746   3.457 -0.2017 -0.0464 -0.0473
12138TIP3    H157829   1.788   2.701   3.473 -0.5996 -0.8742 -0.2934
12138TIP3    H257830   1.639   2.677   3.464 -0.8422  0.5595 -0.1237
12139TIP3   OH257831   3.670   3.594  14.445 -0.0986 -0.1373  0.6378
12139TIP3    H157832   3.758   3.620  14.471 -0.0759 -1.1373  1.5720
12139TIP3    H257833   3.616   3.672  14.463  0.5644  0.4394  0.1527
12140TIP3   OH257834   1.990   6.016  14.963 -0.0193 -0.1373  0.3029
12140TIP3    H157835   1.902   6.030  14.928  0.2347 -1.9011 -1.1254
12140TIP3    H257836   1.987   5.927  14.999  1.3886 -0.5248 -0.5081
12141TIP3   OH257837   4.386   4.872   1.955  0.5008 -0.6212 -0.8466
12141TIP3    H157838   4.319   4.940   1.959 -0.0955 -1.2380 -0.3418
12141TIP3    H257839   4.425   4.883   1.868 -0.2130 -0.2239 -1.1211
12142TIP3   OH257840   1.599   5.503   1.003 -0.0247  0.4175  0.0131
12142TIP3    H157841   1.580   5.553   0.924  2.1671  1.6894  0.2575
12142TIP3    H257842   1.690   5.526   1.025  0.2694 -1.9548  1.3969
12143TIP3   OH257843   1.878   5.229  14.367 -0.1575  0.1764  0.1460
12143TIP3    H157844   1.853   5.297  14.431 -0.1286 -0.2849  0.6531
12143TIP3    H257845   1.821   5.155  14.388  0.0204 -0.0634 -0.2162
12144TIP3   OH257846   3.518   6.146   1.548  0.5484  0.0195  0.0284
12144TIP3    H157847   3.472   6.085   1.491  0.6222 -0.7734  0.8134
12144TIP3    H257848   3.565   6.204   1.488 -1.6743  1.0251 -0.7790
12145TIP3   OH257849   2.859   3.975   1.419 -0.4365  0.4235  0.1601
12145TIP3    H157850   2.853   4.069   1.402 -0.4219  0.6703  1.4579
12145TIP3    H257851   2.938   3.964   1.471 -1.0763 -0.1413  1.0503
12146TIP3   OH257852   1.187   5.038   0.574 -0.3331 -0.5202 -0.1177
12146TIP3    H157853   1.159   5.124   0.543 -1.1133 -0.3288  1.0720
12146TIP3    H257854   1.242   5.003   0.503 -1.4008  0.2343 -1.3453
12147TIP3   OH257855   5.715   5.190   2.479  0.0511 -0.9418 -0.2673
12147TIP3    H157856   5.797   5.141   2.486 -0.9112 -2.3403  1.8424
12147TIP3    H257857   5.740   5.274   2.442  2.6048 -0.9641  1.2964
12148TIP3   OH257858   0.845   6.358   1.901  0.0851  0.3076 -0.0949
12148TIP3    H157859   0.871   6.450   1.896 -1.1553  0.7574  1.3626
12148TIP3    H257860   0.777   6.356   1.969 -0.9906 -1.4303 -1.1947
12149TIP3   OH257861   3.724   4.226   2.209 -0.4632  0.2723 -0.2506
12149TIP3    H157862   3.749   4.145   2.165 -0.8250 -0.5796  1.1309
12149TIP3    H257863   3.772   4.224   2.292 -2.0773  0.4966  0.6898
12150TIP3   OH257864   2.984   3.392  14.645 -0.1965 -0.3104  0.0964
12150TIP3    H157865   2.979   3.297  14.628  1.5824 -0.4254  0.1724
12150TIP3    H257866   3.077   3.412  14.641 -0.4188  1.1316  1.8959
12151TIP3   OH257867   3.365   3.154  15.582  0.1863  0.3017  0.4370
12151TIP3    H157868   3.407   3.147  15.667  1.9064 -0.5679 -0.4510
12151TIP3    H257869   3.303   3.081  15.580  0.7065 -0.1490  0.6466
12152TIP3   OH257870   2.532   5.861   0.029 -0.3616 -0.2630 -0.6378
12152TIP3    H157871   2.477   5.869   0.107 -0.3982 -2.6455 -0.3541
12152TIP3    H257872   2.475   5.822  -0.037  0.3394 -0.5920 -1.0661
12153TIP3   OH257873   5.346   5.778   0.124 -0.3459 -0.3705  0.1691
12153TIP3    H157874   5.308   5.699   0.162 -0.5633  0.1023  0.9567
12153TIP3    H257875   5.297   5.850   0.164 -0.4095  0.1541 -0.8320
12154TIP3   OH257876   2.913   3.672   1.420 -0.7667 -0.0614  0.2376
12154TIP3    H157877   2.871   3.752   1.389 -1.9373 -0.7325  0.0227
12154TIP3    H257878   2.857   3.602   1.387 -0.7156 -0.8994  1.8557
12155TIP3   OH257879   4.353   5.022  14.964 -0.5747  0.1156 -0.0080
12155TIP3    H157880   4.278   4.989  15.013 -0.4701  1.4123  1.0599
12155TIP3    H257881   4.426   5.018  15.026 -0.9567  4.1568  0.8951
12156TIP3   OH257882   3.975   3.742   1.066  0.1007 -0.3152 -0.1083
12156TIP3    H157883   3.886   3.722   1.098  1.1826  0.3302  3.5268
12156TIP3    H257884   4.023   3.661   1.078  0.3352 -0.2959 -0.9029
12157TIP3   OH257885   3.707   5.340  15.810 -0.4119 -0.4490 -0.2305
12157TIP3    H157886   3.698   5.427  15.771  2.4841 -0.3415 -0.7425
12157TIP3    H257887   3.649   5.285  15.758 -3.2097  1.3608  0.8663
12158TIP3   OH257888   3.233   5.165  15.547  0.3241 -0.6751 -0.4646
12158TIP3    H157889   3.285   5.085  15.552 -0.8544 -1.3293  2.4415
12158TIP3    H257890   3.222   5.192  15.638 -0.4310  2.0706 -1.3210
12159TIP3   OH257891   3.544   3.280   3.218  0.5815 -0.1069 -0.0805
12159TIP3    H157892   3.512   3.284   3.128 -0.7737  0.2613  0.4054
12159TIP3    H257893   3.480   3.331   3.268 -0.1018 -2.4372  1.4727
12160TIP3   OH257894   5.484   3.094   1.722 -0.3774 -0.9067 -0.4027
12160TIP3    H157895   5.519   3.165   1.668 -1.9736 -0.1034 -0.4211
12160TIP3    H257896   5.459   3.027   1.658  0.8916 -1.3918 -0.4034
12161TIP3   OH257897   3.563   7.010   1.140  0.8872 -0.0403 -0.2440
12161TIP3    H157898   3.523   6.933   1.180 -1.9268  0.0710 -2.6549
12161TIP3    H257899   3.498   7.080   1.152  1.8997  1.0818 -1.1045
12162TIP3   OH257900   3.856   4.698  13.859 -0.5565  0.0835 -0.1795
12162TIP3    H157901   3.793   4.641  13.815 -0.2582 -2.3786  2.3632
12162TIP3    H257902   3.819   4.712  13.946 -0.4365  3.5755 -0.6267
12163TIP3   OH257903   3.644   4.612   0.980 -0.0146  0.7221  0.2852
12163TIP3    H157904   3.653   4.664   1.060  0.1921  2.1198 -0.6219
12163TIP3    H257905   3.637   4.677   0.910  1.2728 -0.4754 -0.9894
12164TIP3   OH257906   2.941   5.678  14.557  0.2292  0.0147 -0.2162
12164TIP3    H157907   2.968   5.586  14.556 -0.8492 -0.3053 -1.2032
12164TIP3    H257908   3.019   5.726  14.532  0.7788 -0.6375  0.2096
12165TIP3   OH257909   2.929   5.235   1.958 -0.1188 -0.1716 -0.2724
12165TIP3    H157910   2.853   5.200   2.005 -0.0198  0.5532  0.4292
12165TIP3    H257911   3.001   5.227   2.020  0.5281 -1.4610 -1.1695
12166TIP3   OH257912   4.138   5.192   0.483  0.1173 -0.2782  0.5665
12166TIP3    H157913   4.183   5.236   0.411 -1.0673  0.4460  0.2644
12166TIP3    H257914   4.102   5.263   0.536 -0.0694 -0.8409  1.1959
12167TIP3   OH257915   4.556   3.797   0.303 -0.1693  0.0173  0.6565
12167TIP3    H157916   4.529   3.717   0.348 -0.7688 -0.0189  0.2462
12167TIP3    H257917   4.638   3.774   0.260  0.4018  0.0443  1.6982
12168TIP3   OH257918   2.855   6.482  15.352 -0.1180  0.9569 -0.6661
12168TIP3    H157919   2.875   6.475  15.445  0.6917 -0.5954 -0.9457
12168TIP3    H257920   2.940   6.470  15.308 -0.8023 -0.3672 -1.6685
12169TIP3   OH257921   2.696   5.536   1.657 -0.4886 -0.3084  0.5860
12169TIP3    H157922   2.642   5.465   1.621 -0.4353  0.0727 -0.2479
12169TIP3    H257923   2.634   5.591   1.705 -0.9369  0.4212 -0.8117
12170TIP3   OH257924   3.247   5.044   1.727  0.2682  0.2879  0.3757
12170TIP3    H157925   3.298   5.068   1.804  0.0002  1.5127  0.1850
12170TIP3    H257926   3.244   5.124   1.674 -1.0398 -0.0310 -0.0632
12171TIP3   OH257927   3.737   3.612   3.079 -0.0686 -0.0344  0.2854
12171TIP3    H157928   3.703   3.579   3.163 -1.8901  0.6298 -0.1729
12171TIP3    H257929   3.812   3.666   3.103 -1.1294  0.8943  1.5767
12172TIP3   OH257930   3.044   5.334   0.968 -0.3798 -0.6216 -0.0276
12172TIP3    H157931   3.014   5.368   1.052 -1.1016  0.6267 -0.7839
12172TIP3    H257932   3.128   5.292   0.988 -0.6614 -0.5586  1.3537
12173TIP3   OH257933   2.810   6.515   2.108  0.6402  0.4327  0.5512
12173TIP3    H157934   2.715   6.527   2.102  0.8412  1.7031 -0.4494
12173TIP3    H257935   2.821   6.433   2.156 -1.0062 -0.7656 -1.0097
12174TIP3   OH257936   4.332   5.894   0.803 -0.3426  0.1024 -0.2446
12174TIP3    H157937   4.302   5.865   0.889 -0.2076 -0.1765 -0.2933
12174TIP3    H257938   4.395   5.828   0.775  0.7193  0.9706  0.0819
12175TIP3   OH257939   3.123   2.810  15.328 -0.1401 -0.2202 -0.5746
12175TIP3    H157940   3.212   2.782  15.350  0.1018  0.9048 -0.0975
12175TIP3    H257941   3.132   2.859  15.246  0.0587  2.0024  0.7413
12176TIP3   OH257942   5.383   5.451  14.248 -0.0146  0.2464 -0.7536
12176TIP3    H157943   5.296   5.412  14.249 -0.0438  0.2983 -1.0879
12176TIP3    H257944   5.430   5.403  14.180  1.1194 -1.6945  1.3532
12177TIP3   OH257945   1.922   4.731   2.720 -0.3736  0.3493  0.9800
12177TIP3    H157946   1.876   4.656   2.756 -1.3397  0.7137  0.5007
12177TIP3    H257947   1.862   4.805   2.732  0.1355  0.8497  0.4821
12178TIP3   OH257948   5.037   5.763   1.134  0.3503  0.1859  0.4867
12178TIP3    H157949   4.988   5.781   1.054  0.8144  0.0493  0.1734
12178TIP3    H257950   4.983   5.801   1.204  0.0828  0.5529  0.0830
12179TIP3   OH257951   3.582   1.313  15.389 -0.5288 -0.5334 -0.5622
12179TIP3    H157952   3.506   1.261  15.413 -1.1477  0.4916 -0.2740
12179TIP3    H257953   3.650   1.249  15.370 -0.8289 -1.4091  1.2375
12180TIP3   OH257954   2.986   5.220   0.727 -0.2246 -0.0821  0.2458
12180TIP3    H157955   2.990   5.257   0.816 -0.8848  0.6843 -0.0298
12180TIP3    H257956   2.996   5.296   0.670 -0.1573 -0.5309 -0.3312
12181TIP3   OH257957   4.846   3.839   0.309 -0.5270  0.7888  0.0538
12181TIP3    H157958   4.854   3.744   0.317 -0.5669  0.6078 -1.9537
12181TIP3    H257959   4.927   3.873   0.348  0.6021 -0.1758 -1.3935
12182TIP3   OH257960   1.847   5.841   1.501  0.0320  0.1824  0.1959
12182TIP3    H157961   1.930   5.885   1.516  0.0825  0.1849 -0.0882
12182TIP3    H257962   1.793   5.866   1.575 -0.2864  1.5669 -0.4876
12183TIP3   OH257963   2.440   4.399   0.033  0.1769  0.1234 -0.4357
12183TIP3    H157964   2.410   4.308   0.037  0.8717 -0.0665  1.3289
12183TIP3    H257965   2.520   4.395  -0.020  1.1010 -0.5895  0.9648
12184TIP3   OH257966   3.603   4.006   2.998 -0.0490  0.9525  0.4014
12184TIP3    H157967   3.585   4.091   2.959 -0.1648  0.3729 -0.8127
12184TIP3    H257968   3.620   3.948   2.924  3.8570  0.7713  1.3543
12185TIP3   OH257969   1.991   4.686   1.109  0.6453  0.6640 -0.3534
12185TIP3    H157970   1.896   4.692   1.109  0.6965  2.7518 -3.3261
12185TIP3    H257971   2.012   4.635   1.032  1.9319 -0.8871  0.9919
12186TIP3   OH257972   3.462   7.233   0.968 -0.6475 -0.1742 -0.1275
12186TIP3    H157973   3.527   7.268   0.907 -1.3514 -0.0961 -0.8328
12186TIP3    H257974   3.378   7.247   0.925 -0.9866 -2.2040 -0.1630
12187TIP3   OH257975   5.709   4.767  14.507  0.2266  0.5573 -0.7193
12187TIP3    H157976   5.623   4.801  14.484  1.4835  3.1424 -1.8256
12187TIP3    H257977   5.735   4.818  14.584  0.2391 -1.1400  0.4398
12188TIP3   OH257978   1.718   5.318   4.088 -0.2410  0.3893  0.2989
12188TIP3    H157979   1.665   5.398   4.092 -2.8555 -0.8976 -4.6495
12188TIP3    H257980   1.808   5.349   4.081 -1.0277  2.8342  0.3968
12189TIP3   OH257981   4.703   4.345   0.704  0.4524 -0.0995  0.2349
12189TIP3    H157982   4.772   4.300   0.753  0.5374  0.3679  0.5500
12189TIP3    H257983   4.635   4.279   0.691  1.2651 -0.7766 -0.7116
12190TIP3   OH257984   4.222   3.380   0.892  0.1833 -0.6314 -0.3555
12190TIP3    H157985   4.227   3.318   0.965  1.6546 -0.0744  0.0356
12190TIP3    H257986   4.211   3.465   0.934 -1.9198 -0.6067 -0.8928
12191TIP3   OH257987   3.184   4.745   1.716 -0.7753  0.3906 -0.0484
12191TIP3    H157988   3.147   4.743   1.627  0.4511  1.2144 -0.5899
12191TIP3    H257989   3.212   4.836   1.728  0.7436 -0.1352  0.4802
12192TIP3   OH257990   4.369   5.790   1.650 -0.4597  0.3246 -0.0642
12192TIP3    H157991   4.277   5.770   1.663 -0.5973  1.0549  0.1105
12192TIP3    H257992   4.413   5.756   1.727 -0.8991  2.0917  1.0046
12193TIP3   OH257993   2.496   2.249   2.625 -0.1455  0.3055 -0.0282
12193TIP3    H157994   2.513   2.154   2.626 -1.0854  0.1373  0.4189
12193TIP3    H257995   2.469   2.269   2.714  2.5237  1.4733  0.5824
12194TIP3   OH257996   2.977   1.797   0.214 -0.3856 -0.2466 -0.0254
12194TIP3    H157997   2.931   1.880   0.226  1.6138  0.6799  1.2612
12194TIP3    H257998   2.957   1.772   0.123 -1.6013  1.2410 -0.1824
12195TIP3   OH257999   3.533   3.742   1.950 -0.1238  0.1749 -0.5989
12195TIP3    H158000   3.551   3.696   2.032  0.5992 -0.1639 -0.9486
12195TIP3    H258001   3.456   3.698   1.914  0.5800 -0.7798 -0.9476
12196TIP3   OH258002   2.736   5.637   1.375  0.2811 -0.4290  0.0766
12196TIP3    H158003   2.685   5.610   1.451 -1.2055 -0.4701 -0.9079
12196TIP3    H258004   2.827   5.625   1.401 -0.2562 -2.3316  1.1453
12197TIP3   OH258005   4.709   6.070   0.400 -0.4327 -0.5904 -0.5639
12197TIP3    H158006   4.769   6.028   0.337  0.3022 -1.7141  0.8628
12197TIP3    H258007   4.638   6.006   0.411 -1.1411  0.0898 -1.0881
12198TIP3   OH258008   2.426   0.925   3.042  0.1838  0.4597  0.5599
12198TIP3    H158009   2.379   0.845   3.019  2.2253 -0.5479 -0.3504
12198TIP3    H258010   2.394   0.991   2.980  0.2646 -0.3170 -0.3201
12199TIP3   OH258011   3.350   5.044   0.443  0.0785 -0.3938 -0.1952
12199TIP3    H158012   3.314   4.987   0.511 -0.5397 -0.2778 -0.4296
12199TIP3    H258013   3.278   5.059   0.383  0.3535  0.3212 -0.3508
12200TIP3   OH258014   1.610   4.852   0.749 -0.5607  0.1895 -0.6264
12200TIP3    H158015   1.653   4.782   0.797 -2.3398 -0.9073 -0.6147
12200TIP3    H258016   1.676   4.921   0.744  1.0583 -1.2937 -0.2436
12201TIP3   OH258017   3.142   4.582  15.482 -0.4502  0.7280 -0.1055
12201TIP3    H158018   3.186   4.521  15.423  0.4843  1.7688 -0.4931
12201TIP3    H258019   3.213   4.626  15.529 -1.1741 -0.3830  2.1341
12202TIP3   OH258020   2.679   5.998   0.412  0.5127 -0.4836  0.1512
12202TIP3    H158021   2.753   6.056   0.392  0.0743  0.3949  1.0174
12202TIP3    H258022   2.688   5.926   0.350  2.8946 -1.0998  1.1436
12203TIP3   OH258023   5.265   5.636   3.047  0.3060  0.3822 -0.5411
12203TIP3    H158024   5.309   5.703   3.099  1.0564 -0.7141  0.2374
12203TIP3    H258025   5.176   5.671   3.033 -0.2084  0.2818  2.2458
12204TIP3   OH258026   1.960   0.096   0.279 -0.2833 -0.4287  0.2155
12204TIP3    H158027   1.993   0.183   0.258 -0.3319 -0.6038 -0.6285
12204TIP3    H258028   1.971   0.046   0.198 -0.4493 -1.1459  0.6280
12205TIP3   OH258029   2.042   5.404  15.689 -0.3737 -0.2361  0.4376
12205TIP3    H158030   2.032   5.347  15.765  1.3064 -1.3628 -0.1824
12205TIP3    H258031   2.059   5.345  15.616  0.2789  0.9944 -0.4175
12206TIP3   OH258032   2.166   3.234   0.314 -0.2369 -0.1904 -0.0999
12206TIP3    H158033   2.235   3.177   0.280 -0.9732 -0.3164 -1.4137
12206TIP3    H258034   2.204   3.273   0.393  1.0647 -0.8288 -0.3965
12207TIP3   OH258035   3.649   3.868  15.083 -0.6276  0.3122  0.1295
12207TIP3    H158036   3.603   3.919  15.016  1.6285  0.5124 -1.3414
12207TIP3    H258037   3.610   3.780  15.077 -0.9876  0.5323 -0.8969
12208TIP3   OH258038   4.243   4.443  14.846 -0.4333  0.2020 -0.1554
12208TIP3    H158039   4.171   4.392  14.884  1.9070 -1.7639  1.8738
12208TIP3    H258040   4.306   4.376  14.817  0.7625  1.8768 -1.4734
12209TIP3   OH258041   5.061   4.467   1.129 -0.2902 -0.0560 -0.1750
12209TIP3    H158042   5.116   4.528   1.080  0.0618  0.6789  1.1043
12209TIP3    H258043   4.980   4.463   1.079 -0.4078  1.6615 -0.1599
12210TIP3   OH258044   2.444   4.056   1.318  0.6209 -0.2524 -0.0006
12210TIP3    H158045   2.493   3.983   1.280 -0.1575 -1.0138  0.4385
12210TIP3    H258046   2.502   4.090   1.386  0.6414 -0.9844  0.3501
12211TIP3   OH258047   2.667   4.621   1.590  0.0139 -0.1214  0.8884
12211TIP3    H158048   2.725   4.695   1.573 -2.1158  1.2517 -0.5917
12211TIP3    H258049   2.608   4.652   1.659  0.6802 -1.3306  2.0268
12212TIP3   OH258050   2.887   3.964   3.707 -0.0820  0.3023 -0.2868
12212TIP3    H158051   2.850   3.960   3.618  0.2159  0.3162 -0.4136
12212TIP3    H258052   2.819   3.926   3.763  0.0190 -0.3855 -0.6210
12213TIP3   OH258053   5.204   3.908   0.974 -0.2997  0.8998  0.1977
12213TIP3    H158054   5.239   3.980   1.026  0.1649  3.1535 -3.0666
12213TIP3    H258055   5.276   3.845   0.968 -0.9806 -0.3514  3.7757
12214TIP3   OH258056   5.144   6.301   1.963 -0.3703  0.1094 -0.4973
12214TIP3    H158057   5.110   6.229   1.910  0.2865 -0.6127  0.0352
12214TIP3    H258058   5.238   6.283   1.970 -0.2324  0.9247 -0.2085
12215TIP3   OH258059   4.499   4.248   2.977  0.0840  0.1783 -0.0664
12215TIP3    H158060   4.435   4.314   2.949  0.9366  0.4765 -1.3340
12215TIP3    H258061   4.458   4.164   2.953  0.1910  0.3746 -0.9688
12216TIP3   OH258062   3.499   3.304   2.584  0.3163 -0.0670 -0.2196
12216TIP3    H158063   3.475   3.212   2.598  0.2083 -0.3200 -2.0211
12216TIP3    H258064   3.425   3.353   2.619 -1.3468 -0.7722 -2.6234
12217TIP3   OH258065   4.776   3.710   2.849 -0.0850 -0.3809  0.7047
12217TIP3    H158066   4.833   3.638   2.875 -2.2617 -1.9489  1.2662
12217TIP3    H258067   4.774   3.767   2.926  0.6845 -0.3381  0.6951
12218TIP3   OH258068   1.862   4.682   3.798 -0.8596  1.0995 -0.5996
12218TIP3    H158069   1.937   4.637   3.838 -0.3168  0.7030 -2.0247
12218TIP3    H258070   1.789   4.621   3.810 -0.5527  0.6879 -0.8187
12219TIP3   OH258071   2.196   4.492   3.561 -0.1013  0.6762 -0.1908
12219TIP3    H158072   2.140   4.547   3.507  0.9794  1.2439 -0.7558
12219TIP3    H258073   2.285   4.513   3.533  0.3374 -1.3235 -0.3872
12220TIP3   OH258074   4.254   5.315   0.274 -0.1959  0.0533 -0.2132
12220TIP3    H158075   4.312   5.382   0.239 -1.2921  0.8847 -0.4581
12220TIP3    H258076   4.180   5.313   0.213 -0.5111 -0.8790  0.1842
12221TIP3   OH258077   1.706   5.011   0.074  0.0407 -0.3554 -0.4211
12221TIP3    H158078   1.723   4.978  -0.014 -0.6479  0.0752 -0.7205
12221TIP3    H258079   1.611   5.006   0.084  0.0853 -0.1014  0.1786
12222TIP3   OH258080   2.978   4.382   2.689 -0.1273 -0.1905 -0.5644
12222TIP3    H158081   2.928   4.445   2.740 -0.7319  0.1431 -1.5548
12222TIP3    H258082   2.937   4.298   2.709 -0.8364  0.0317 -1.0691
12223TIP3   OH258083   2.482   6.610  15.102 -0.3172  0.2983 -0.2285
12223TIP3    H158084   2.456   6.668  15.031 -1.3783 -1.3948 -1.2548
12223TIP3    H258085   2.544   6.662  15.154 -0.7979  2.1240 -1.4339
12224TIP3   OH258086   2.330   5.359  15.623 -0.1346  0.3520 -0.5037
12224TIP3    H158087   2.255   5.375  15.680  0.8558 -2.6331  1.8321
12224TIP3    H258088   2.356   5.445  15.591 -1.9841  1.8995  2.0014
12225TIP3   OH258089   1.182   6.780  15.265  0.8154  0.0064 -0.0754
12225TIP3    H158090   1.135   6.863  15.253 -0.0558 -0.2215  1.5756
12225TIP3    H258091   1.145   6.722  15.198 -0.8434  0.0199  0.7942
12226TIP3   OH258092   1.103   5.201   1.702 -0.1068 -0.0772  0.0127
12226TIP3    H158093   1.124   5.156   1.784 -0.4392  0.5708  0.4602
12226TIP3    H258094   1.162   5.277   1.700  0.0362 -0.1995 -0.4401
12227TIP3   OH258095   4.652   5.608   0.962 -0.1350  0.3817  0.1266
12227TIP3    H158096   4.598   5.537   0.997  0.0983 -1.0170 -2.3003
12227TIP3    H258097   4.738   5.595   1.001 -0.5866  0.5197  1.2091
12228TIP3   OH258098   2.625   5.244   3.015  0.0764  0.6513 -0.5314
12228TIP3    H158099   2.570   5.248   3.093 -1.4824  2.4331 -1.6681
12228TIP3    H258100   2.594   5.166   2.969  0.1748  0.2750  0.0344
12229TIP3   OH258101   2.525   1.174   1.899 -0.0805 -0.4912 -0.0841
12229TIP3    H158102   2.581   1.158   1.824 -0.3082  0.9951 -0.5794
12229TIP3    H258103   2.502   1.266   1.893 -1.1363 -0.6621  1.1002
12230TIP3   OH258104   6.205   4.417  15.740  0.4390  0.0806 -0.3329
12230TIP3    H158105   6.240   4.394  15.826 -0.6004 -0.5337 -0.0578
12230TIP3    H258106   6.251   4.360  15.679  0.7062  0.0506 -0.1041
12231TIP3   OH258107   4.182   3.944   0.438  0.5158 -0.2162 -0.0315
12231TIP3    H158108   4.143   3.860   0.414 -0.4617 -0.3213  1.8300
12231TIP3    H258109   4.115   3.987   0.492  1.9982  0.6527  1.1551
12232TIP3   OH258110   3.656   3.501   2.855  0.3247 -0.4018  0.6571
12232TIP3    H158111   3.697   3.563   2.915  1.5263  0.0788 -0.6119
12232TIP3    H258112   3.716   3.497   2.780 -2.1335  0.5872 -1.4449
12233TIP3   OH258113   2.677   4.728  15.550 -0.0751  0.0327 -0.9277
12233TIP3    H158114   2.689   4.813  15.507  1.4307 -0.6914 -1.9848
12233TIP3    H258115   2.750   4.722  15.612 -0.4948 -0.2483 -0.4572
12234TIP3   OH258116   5.614   3.379   0.763  0.0903  0.2657  0.1485
12234TIP3    H158117   5.658   3.315   0.706  1.1531  0.4979  0.7020
12234TIP3    H258118   5.547   3.327   0.809 -2.5111  0.5660 -3.1402
12235TIP3   OH258119   6.136   5.647  14.212 -0.2631  0.2412 -0.3614
12235TIP3    H158120   6.097   5.733  14.225  2.4745  1.4717  0.0852
12235TIP3    H258121   6.172   5.650  14.123  0.9781  0.0438  0.1251
12236TIP3   OH258122   2.372   4.271   2.085 -0.3134  0.6653 -0.1286
12236TIP3    H158123   2.367   4.349   2.031 -0.3957  0.8717  0.1785
12236TIP3    H258124   2.350   4.199   2.025  0.7809  0.7626 -0.6696
12237TIP3   OH258125   2.854   4.667   0.391 -0.0379 -0.5770 -0.0475
12237TIP3    H158126   2.819   4.724   0.459  1.3866  1.6324 -1.1012
12237TIP3    H258127   2.919   4.613   0.436  0.2326  0.2291  0.5418
12238TIP3   OH258128   2.841   3.932   2.854  0.3149 -0.3401  0.6803
12238TIP3    H158129   2.839   4.001   2.788 -0.8595 -1.4166 -0.4478
12238TIP3    H258130   2.922   3.947   2.902  1.2415  0.4085 -1.0641
12239TIP3   OH258131   4.022   4.398   2.359  0.3427  0.2009 -0.5293
12239TIP3    H158132   4.033   4.462   2.289  0.6875  0.2290 -0.4508
12239TIP3    H258133   3.964   4.440   2.422 -1.0952 -0.3516 -1.4541
12240TIP3   OH258134   3.402   4.058  15.620 -0.4498 -0.6870 -0.4434
12240TIP3    H158135   3.404   4.005  15.699 -1.6320 -0.1826 -0.0552
12240TIP3    H258136   3.350   4.007  15.558  1.7719 -1.7929 -1.4445
12241TIP3   OH258137   3.971   5.253   0.925 -0.4537  0.2976 -0.6044
12241TIP3    H158138   4.044   5.283   0.978 -0.3891 -0.6058 -0.1736
12241TIP3    H258139   3.970   5.312   0.849  0.3981  0.6319 -0.3591
12242TIP3   OH258140   3.297   6.447  15.866 -0.0201 -0.0489 -0.4763
12242TIP3    H158141   3.226   6.382  15.866  1.2650 -1.5119 -1.4059
12242TIP3    H258142   3.269   6.513  15.802 -0.8316 -0.2848 -0.3683
12243TIP3   OH258143   2.068   4.326   0.777 -0.2165 -0.0877 -0.0000
12243TIP3    H158144   2.042   4.234   0.776  0.2222 -0.2123 -0.0105
12243TIP3    H258145   2.118   4.336   0.858 -1.1402  0.3924  0.5304
12244TIP3   OH258146   3.606   4.474   2.507  0.0847  1.0013  0.1920
12244TIP3    H158147   3.607   4.400   2.568 -0.8833  1.5709  0.9055
12244TIP3    H258148   3.519   4.512   2.518  0.8270  2.6709  0.3330
12245TIP3   OH258149   2.646   4.901   1.334 -0.0780  0.4041 -0.1176
12245TIP3    H158150   2.670   4.943   1.251 -1.1605  0.1607 -0.5735
12245TIP3    H258151   2.729   4.879   1.375  0.4755  1.0881 -0.8607
12246TIP3   OH258152   3.707   5.625   4.003  0.3966  0.0433 -0.1321
12246TIP3    H158153   3.771   5.695   4.010  0.2090  0.2119 -0.1066
12246TIP3    H258154   3.622   5.669   4.005  0.2880 -0.1297 -0.7734
12247TIP3   OH258155   3.205   4.246   1.385 -0.3388  0.1103  0.3829
12247TIP3    H158156   3.252   4.166   1.361 -0.0854  0.5164 -0.5342
12247TIP3    H258157   3.274   4.312   1.397 -0.5441  0.1896  1.1368
12248TIP3   OH258158   1.999   4.912   2.197 -0.6836  0.4606  0.0129
12248TIP3    H158159   2.047   4.884   2.118  0.5921  2.2397  0.1366
12248TIP3    H258160   1.966   4.830   2.234 -2.7636 -0.2983 -3.2593
12249TIP3   OH258161   3.605   1.870   2.701 -0.1557  0.2935  0.1704
12249TIP3    H158162   3.631   1.897   2.613 -2.5679  0.5707 -0.5016
12249TIP3    H258163   3.535   1.807   2.686  0.8644 -1.2549  1.8692
12250TIP3   OH258164   1.075   6.599   0.788 -0.3905  0.4698  0.6384
12250TIP3    H158165   1.061   6.536   0.716  1.6058 -0.8532  1.3640
12250TIP3    H258166   1.128   6.668   0.749 -1.3755  0.9817  0.2056
12251TIP3   OH258167   5.171   4.404  15.362  0.0242  0.4890  0.4660
12251TIP3    H158168   5.163   4.311  15.382  0.1329  0.4928  0.5248
12251TIP3    H258169   5.190   4.446  15.446 -1.9439  0.7991  0.7889
12252TIP3   OH258170   2.366   4.784   1.235 -0.4514 -0.0220  0.1736
12252TIP3    H158171   2.456   4.812   1.249 -0.9487  1.3441  0.8024
12252TIP3    H258172   2.371   4.689   1.228  1.3537  0.2203 -2.4817
12253TIP3   OH258173   3.795   4.559   2.752  0.1054 -0.3671 -0.0341
12253TIP3    H158174   3.767   4.476   2.712 -1.0334 -0.2734  0.5662
12253TIP3    H258175   3.889   4.564   2.732  0.3715 -2.2159  0.6330
12254TIP3   OH258176   3.728   6.997   2.434  0.6613 -0.2466  0.4417
12254TIP3    H158177   3.728   7.056   2.358  0.4098  0.5957  1.0775
12254TIP3    H258178   3.643   7.013   2.476 -0.3011 -2.6404 -0.5629
12255TIP3   OH258179   0.824   5.906  15.567  0.3311 -0.3325 -0.1009
12255TIP3    H158180   0.867   5.948  15.641 -1.0919  0.1307  0.4787
12255TIP3    H258181   0.885   5.916  15.494  0.9618  0.7848  0.5757
12256TIP3   OH258182   4.016   6.692   0.119 -0.1164 -0.0122  0.1395
12256TIP3    H158183   3.957   6.684   0.194  0.9850 -0.4287  0.9608
12256TIP3    H258184   3.997   6.615   0.066 -2.2096  1.2225 -0.9673
12257TIP3   OH258185   4.765   3.150   0.623  0.2374 -0.2347  0.5411
12257TIP3    H158186   4.782   3.091   0.696 -0.2216  0.5912  1.3206
12257TIP3    H258187   4.703   3.102   0.567 -0.0443 -0.5397  1.1117
12258TIP3   OH258188   1.711   6.497   0.042  0.4758  0.1980  0.3553
12258TIP3    H158189   1.794   6.488  -0.005  0.6702 -1.4295  0.9834
12258TIP3    H258190   1.644   6.500  -0.026  0.8086 -1.5127 -0.0558
12259TIP3   OH258191   2.950   6.712   2.220  0.1413 -0.1072 -0.1258
12259TIP3    H158192   2.947   6.635   2.162  0.0831 -1.5086  1.6738
12259TIP3    H258193   2.951   6.787   2.160 -1.3027 -1.4475 -1.9239
12260TIP3   OH258194   4.244   6.038   1.388 -0.1457 -0.2426 -0.5358
12260TIP3    H158195   4.311   6.038   1.456 -0.5887 -0.4877 -0.0965
12260TIP3    H258196   4.176   6.097   1.421 -0.4548 -0.5223 -0.6699
12261TIP3   OH258197   2.726   5.168   2.141 -0.1718 -0.8454 -0.1369
12261TIP3    H158198   2.673   5.245   2.160  1.2053  0.0984 -0.0371
12261TIP3    H258199   2.759   5.140   2.227 -1.2114 -1.9779 -0.0808
12262TIP3   OH258200   1.696   5.325   1.678  0.6198 -0.2751  0.3174
12262TIP3    H158201   1.716   5.407   1.633  1.2753 -0.7431 -0.2511
12262TIP3    H258202   1.770   5.268   1.659  0.3199 -0.8967  0.9725
12263TIP3   OH258203   2.915   6.142   2.591  0.5117 -0.6499  0.7916
12263TIP3    H158204   2.825   6.165   2.565  0.2928  0.2357  2.2944
12263TIP3    H258205   2.923   6.049   2.570 -0.2341 -0.3708 -0.8100
12264TIP3   OH258206   2.737   5.954  15.863 -0.1534 -0.6309  0.2280
12264TIP3    H158207   2.670   5.925  15.926  0.1478  0.9742  1.3368
12264TIP3    H258208   2.688   5.974  15.784 -0.6372 -1.9807  0.1662
12265TIP3   OH258209   1.252   4.105   0.155 -0.1225 -0.6973 -0.1550
12265TIP3    H158210   1.200   4.028   0.131 -1.7674 -0.0370  1.1824
12265TIP3    H258211   1.264   4.098   0.249 -0.2112  0.6411 -0.0392
12266TIP3   OH258212   5.533   4.467   2.353  0.0048  0.5049  0.2046
12266TIP3    H158213   5.444   4.466   2.317 -0.9477  1.7222  2.4466
12266TIP3    H258214   5.590   4.481   2.277 -1.6569 -0.8474 -1.3376
12267TIP3   OH258215   3.229   5.330  15.892  0.2007  0.5437 -0.4040
12267TIP3    H158216   3.137   5.346  15.913  0.0311 -0.6625 -0.1768
12267TIP3    H258217   3.248   5.388  15.818 -1.0303  0.0465 -1.1125
12268TIP3   OH258218   5.194   3.494   4.097 -0.2149 -0.1849  0.3918
12268TIP3    H158219   5.273   3.535   4.131  0.4414  0.7228 -2.1249
12268TIP3    H258220   5.162   3.440   4.170  1.8741  0.5931  1.9415
12269TIP3   OH258221   1.673   5.662   4.021 -0.3383  0.0253  0.0377
12269TIP3    H158222   1.623   5.741   4.000  0.7525  0.3005 -1.6494
12269TIP3    H258223   1.724   5.644   3.942  0.9699 -1.2061  1.1219
12270TIP3   OH258224   3.349   3.567   0.656  0.2961  0.0695  0.1214
12270TIP3    H158225   3.257   3.563   0.630  0.0956  2.8802  0.2161
12270TIP3    H258226   3.384   3.642   0.608  1.8565  0.6279  2.0437
12271TIP3   OH258227   2.528   3.517   5.237 -0.2746  0.1241 -0.0851
12271TIP3    H158228   2.549   3.434   5.280 -0.0646  0.3414  0.2352
12271TIP3    H258229   2.610   3.567   5.240 -0.8686  1.0316  1.2882
12272TIP3   OH258230   4.822   4.409  14.035 -0.2820  0.4460 -0.0585
12272TIP3    H158231   4.875   4.442  14.107 -0.8467  0.9971  0.1100
12272TIP3    H258232   4.732   4.426  14.063 -0.6305 -2.0270  0.4284
12273TIP3   OH258233   7.071   1.445  13.602 -0.4221 -0.4884 -0.4560
12273TIP3    H158234   6.991   1.427  13.652 -0.9400  0.1040 -1.0667
12273TIP3    H258235   7.046   1.513  13.540  1.2490  1.6274  1.1182
12274TIP3   OH258236   1.864   6.183  15.802 -0.2258 -0.3339  0.7584
12274TIP3    H158237   1.853   6.120  15.873  0.9231  0.6007  1.7861
12274TIP3    H258238   1.953   6.217  15.814 -0.2189  0.2251 -0.8094
12275TIP3   OH258239   3.231   1.823   3.275  0.3435  0.3149 -0.4979
12275TIP3    H158240   3.262   1.737   3.248 -0.0617  0.6624 -2.1415
12275TIP3    H258241   3.294   1.884   3.235  0.8625  0.7716  0.9878
12276TIP3   OH258242   4.440   3.394   4.184 -0.4662  0.2914 -0.2302
12276TIP3    H158243   4.439   3.452   4.260  0.2248  0.4408 -0.3266
12276TIP3    H258244   4.519   3.341   4.195 -1.1264 -0.6734 -0.1115
12277TIP3   OH258245   3.614   5.657  12.627 -0.0635  0.2551  0.0973
12277TIP3    H158246   3.670   5.597  12.675 -0.4372 -0.5256 -0.4383
12277TIP3    H258247   3.526   5.621  12.636 -0.1303  0.0379 -1.2395
12278TIP3   OH258248   5.365   4.625   0.107 -0.3666  0.5924 -0.4660
12278TIP3    H158249   5.391   4.533   0.116 -0.3165  0.6687  0.2824
12278TIP3    H258250   5.314   4.643   0.186 -0.6116  1.1303 -0.7436
12279TIP3   OH258251   3.672   4.823   2.384 -0.4881  0.1189  0.2561
12279TIP3    H158252   3.581   4.812   2.355 -1.3509 -2.4923  3.7047
12279TIP3    H258253   3.667   4.890   2.452  0.3616  0.7881 -0.3392
12280TIP3   OH258254   3.462   3.964   2.496 -0.6050 -0.6231  0.2125
12280TIP3    H158255   3.502   3.880   2.516  1.5206  0.1166 -0.7310
12280TIP3    H258256   3.434   3.956   2.405 -0.1920 -0.2477  0.0492
12281TIP3   OH258257   4.058   6.973  13.607 -0.4760  0.0306  0.1002
12281TIP3    H158258   3.995   6.913  13.568 -0.3803  0.5050 -0.7849
12281TIP3    H258259   4.138   6.960  13.556 -0.0061 -0.2010  0.8912
12282TIP3   OH258260   2.364   3.265   1.337 -0.3950 -0.3474 -0.4024
12282TIP3    H158261   2.314   3.330   1.387  1.7704 -1.1836  3.1025
12282TIP3    H258262   2.324   3.181   1.360  0.5172 -0.7254 -0.1463
12283TIP3   OH258263   2.897   5.668  15.148  0.1941 -0.1660 -0.4135
12283TIP3    H158264   2.917   5.576  15.131  1.8037  0.1004  0.0029
12283TIP3    H258265   2.920   5.713  15.067 -1.7540 -0.2731 -1.0569
12284TIP3   OH258266   5.191   4.635  15.892  0.2106  0.5697 -0.4129
12284TIP3    H158267   5.115   4.624  15.949 -0.8581 -0.1797 -1.9411
12284TIP3    H258268   5.262   4.592  15.939 -0.6230  0.0582  0.4024
12285TIP3   OH258269   6.322   4.591   1.286 -0.2671  0.0256 -0.6695
12285TIP3    H158270   6.293   4.592   1.377 -1.2216  0.2050 -0.9644
12285TIP3    H258271   6.339   4.683   1.265  0.7739 -0.1054 -0.4234
12286TIP3   OH258272   4.886   6.664   4.246  0.8020  0.0657  1.0680
12286TIP3    H158273   4.849   6.577   4.259 -0.1053  0.1500 -0.7965
12286TIP3    H258274   4.813   6.717   4.215  1.6811  1.1421  0.8058
12287TIP3   OH258275   5.611   6.507   0.383  0.1803  0.3181  0.0440
12287TIP3    H158276   5.609   6.429   0.439  2.0512  1.7123  2.1554
12287TIP3    H258277   5.691   6.499   0.332  0.3989  0.8527  0.2932
12288TIP3   OH258278   3.486   5.282   1.389 -0.4499  0.0273 -0.9040
12288TIP3    H158279   3.431   5.274   1.467  0.2553  1.1496 -0.2865
12288TIP3    H258280   3.443   5.226   1.324 -0.4841 -1.7295  0.5996
12289TIP3   OH258281   3.873   2.983   1.796 -0.1124 -0.3357  0.0831
12289TIP3    H158282   3.966   2.963   1.786 -0.5810 -3.2083  0.7954
12289TIP3    H258283   3.855   2.970   1.889 -1.2811 -0.1129 -0.1008
12290TIP3   OH258284   4.056   2.472  15.453  0.1801  0.3968 -0.1464
12290TIP3    H158285   4.053   2.376  15.443  1.5359  0.3999 -0.6045
12290TIP3    H258286   4.080   2.504  15.366  1.5363  1.0545  0.4635
12291TIP3   OH258287   4.490   5.348   0.786  0.6094  0.1508 -0.7031
12291TIP3    H158288   4.583   5.367   0.784  0.3661  1.6753  1.1724
12291TIP3    H258289   4.460   5.360   0.696  2.1458 -0.0357 -1.2436
12292TIP3   OH258290   5.484   3.920   2.162 -0.3324 -0.2834 -0.2261
12292TIP3    H158291   5.562   3.972   2.182 -0.0188 -0.7211 -0.2986
12292TIP3    H258292   5.516   3.852   2.103 -0.4573 -1.3791  0.9375
12293TIP3   OH258293   3.863   3.765  15.461  0.1113  0.4113 -0.4248
12293TIP3    H158294   3.887   3.821  15.387 -1.1069 -0.6409 -1.6408
12293TIP3    H258295   3.802   3.702  15.424 -1.1430  0.3639  1.6636
12294TIP3   OH258296   3.680   3.734   1.131 -0.1448  0.5787 -0.4045
12294TIP3    H158297   3.637   3.746   1.216  0.9257  0.0478  0.2155
12294TIP3    H258298   3.708   3.643   1.131 -0.6515  0.4082 -1.5796
12295TIP3   OH258299   0.657   3.048  15.655  0.2111 -0.7229 -0.4372
12295TIP3    H158300   0.708   2.985  15.707 -0.4402  1.4470  2.9671
12295TIP3    H258301   0.675   3.133  15.695 -5.0634  0.2969  0.1558
12296TIP3   OH258302   5.206   4.184   0.688 -0.0763  0.0794  0.2007
12296TIP3    H158303   5.200   4.212   0.780  0.3732  0.8923 -0.0231
12296TIP3    H258304   5.150   4.245   0.640  0.2800  0.1117 -0.1748
12297TIP3   OH258305   6.356   2.332  13.848 -0.2943  0.2188 -0.0006
12297TIP3    H158306   6.358   2.427  13.842  2.0519  0.1940 -0.0722
12297TIP3    H258307   6.376   2.302  13.759 -0.9848 -0.3415  0.0261
12298TIP3   OH258308   5.155   3.668  14.502 -0.3082 -0.4547  0.0779
12298TIP3    H158309   5.079   3.658  14.560  0.9854  0.1279  1.9053
12298TIP3    H258310   5.223   3.707  14.557  0.2017  2.4248 -2.4640
12299TIP3   OH258311   3.953   3.700   2.445  0.1819  0.0043  0.4578
12299TIP3    H158312   3.895   3.631   2.478 -1.1209  1.7909  2.0056
12299TIP3    H258313   4.026   3.653   2.405 -0.1383 -2.2808  2.4558
12300TIP3   OH258314   5.129   0.231   0.327 -0.2195 -0.1240 -0.3526
12300TIP3    H158315   5.112   0.141   0.353  0.0354 -0.5749 -1.6819
12300TIP3    H258316   5.043   0.270   0.314 -0.3164 -1.0007 -2.4681
12301TIP3   OH258317   4.513   5.096   0.593 -0.3297  0.3140  0.4320
12301TIP3    H158318   4.541   5.035   0.661  1.8313 -3.3357 -3.4995
12301TIP3    H258319   4.428   5.063   0.564 -0.2825  0.6114 -0.0643
12302TIP3   OH258320   3.859   0.428  15.964  1.1282 -0.1178  0.1648
12302TIP3    H158321   3.856   0.507  16.019  0.9557 -1.1231  1.6205
12302TIP3    H258322   3.768   0.400  15.958  1.4742 -1.7355  1.9327
12303TIP3   OH258323   5.716   4.974   1.593  0.3505  0.2516 -0.5928
12303TIP3    H158324   5.797   5.001   1.637  1.1063 -1.1947 -1.0672
12303TIP3    H258325   5.657   4.950   1.665  1.4273 -1.6629 -0.2879
12304TIP3   OH258326   5.497   3.070  14.621  0.3249  0.7555 -0.4520
12304TIP3    H158327   5.586   3.091  14.652  0.0303  0.5231  0.5718
12304TIP3    H258328   5.507   2.986  14.577  0.2082 -0.3999  1.6665
12305TIP3   OH258329   3.753   5.510   2.974 -0.1035  0.0717 -0.5754
12305TIP3    H158330   3.745   5.549   3.061  1.9449  0.6583 -0.6260
12305TIP3    H258331   3.663   5.497   2.945 -0.8094  1.8973  0.7299
12306TIP3   OH258332   3.919   5.514   1.134  0.4832  0.3435 -0.2446
12306TIP3    H158333   3.883   5.566   1.206  0.4803 -0.0779  0.0619
12306TIP3    H258334   3.965   5.442   1.177  2.1776  1.1891 -0.6216
12307TIP3   OH258335   0.872   4.660   2.524  0.7216  0.0372 -0.9630
12307TIP3    H158336   0.838   4.739   2.567 -1.1393 -1.4715  0.4540
12307TIP3    H258337   0.948   4.635   2.576  0.6255  0.2458 -0.7225
12308TIP3   OH258338   4.958   5.003   0.880 -0.7808  0.1384 -0.4356
12308TIP3    H158339   4.909   5.082   0.906 -0.9122 -0.1035  0.0525
12308TIP3    H258340   4.936   4.991   0.787  0.0480  1.2692 -0.7934
12309TIP3   OH258341   3.863   4.607  14.258 -0.2889 -0.5770 -0.7933
12309TIP3    H158342   3.803   4.677  14.235  2.0059  1.9721  0.6076
12309TIP3    H258343   3.856   4.600  14.354  1.9923  0.1313 -0.5514
12310TIP3   OH258344   4.817   4.758   0.443 -0.6078  0.3482 -0.3139
12310TIP3    H158345   4.739   4.742   0.390  0.2335 -0.4823 -1.3331
12310TIP3    H258346   4.851   4.671   0.464  0.4581  0.7029 -0.5224
12311TIP3   OH258347   7.287   5.580  14.728 -0.7240  0.1194 -0.2158
12311TIP3    H158348   7.228   5.518  14.683  0.0863 -0.6809 -0.1877
12311TIP3    H258349   7.229   5.631  14.784 -1.2853 -1.2794  0.5007
12312TIP3   OH258350   4.823   4.995   0.643 -0.2707 -0.2750  0.2463
12312TIP3    H158351   4.805   4.914   0.596  0.1810 -0.2200 -0.0198
12312TIP3    H258352   4.759   4.996   0.714 -1.3889 -0.0343 -0.7576
12313TIP3   OH258353   5.008   3.388   1.978  0.2626 -0.2941  0.2170
12313TIP3    H158354   5.009   3.325   1.906 -0.0789  1.3016 -1.2369
12313TIP3    H258355   5.099   3.392   2.008  0.3740 -1.1102 -0.0114
12314TIP3   OH258356   4.724   3.693  13.137 -0.4645 -0.1608 -0.4300
12314TIP3    H158357   4.629   3.697  13.146 -0.5208 -1.5431 -0.3066
12314TIP3    H258358   4.738   3.651  13.052  0.0435  1.0650 -0.9685
12315TIP3   OH258359   3.371   6.007   1.056 -0.4447  0.4088 -0.3264
12315TIP3    H158360   3.299   6.011   0.994 -1.0499 -0.8436  0.2661
12315TIP3    H258361   3.395   5.914   1.058 -0.0846  0.5192  0.8950
12316TIP3   OH258362   6.404   4.551  15.464  0.4468  0.0410  0.2769
12316TIP3    H158363   6.419   4.486  15.395  0.8244 -0.8655  1.2098
12316TIP3    H258364   6.313   4.537  15.491  0.5259 -0.1028  0.4726
12317TIP3   OH258365   4.410   3.857   0.601 -0.4832 -0.7558  0.1098
12317TIP3    H158366   4.398   3.837   0.694 -0.1440  3.1801  1.0920
12317TIP3    H258367   4.322   3.882   0.570 -0.1837  0.1167 -0.0465
12318TIP3   OH258368   5.166   5.112   0.204 -0.3277 -0.4093  0.1407
12318TIP3    H158369   5.093   5.064   0.244 -2.3586  1.7328 -0.9094
12318TIP3    H258370   5.194   5.174   0.272 -0.3631 -0.2864  0.0413
12319TIP3   OH258371   3.624   4.701   0.032 -0.4688 -0.1463 -0.2733
12319TIP3    H158372   3.560   4.731  -0.033 -1.2737  0.3191  0.7217
12319TIP3    H258373   3.606   4.755   0.109  2.1531  1.1161 -0.4747
12320TIP3   OH258374   2.944   5.459   1.746  0.2811  0.0542 -0.0437
12320TIP3    H158375   2.919   5.400   1.818  0.7665  0.2251  0.2687
12320TIP3    H258376   2.861   5.496   1.716  0.1303  0.4586  0.8406
12321TIP3   OH258377   3.739   6.286   0.272 -0.0160 -0.1263 -0.6929
12321TIP3    H158378   3.729   6.240   0.188  1.1999 -0.9893 -0.3720
12321TIP3    H258379   3.712   6.222   0.337 -1.5206  0.7391 -0.4370
12322TIP3   OH258380   4.741   3.871   0.042  0.4265  0.0483 -0.1035
12322TIP3    H158381   4.751   3.777   0.026  1.7186  0.2453 -0.5263
12322TIP3    H258382   4.793   3.888   0.121  0.3742  0.4353 -0.1502
12323TIP3   OH258383   6.128   5.898  15.988 -0.3141  0.8110 -0.2524
12323TIP3    H158384   6.204   5.850  15.955 -0.7528  0.5516 -0.8973
12323TIP3    H258385   6.153   5.990  15.979  0.6105  0.7197  1.1830
12324TIP3   OH258386   3.687   2.703   0.847 -0.4257  0.0672 -0.0718
12324TIP3    H158387   3.631   2.632   0.878 -0.2340 -0.5109 -1.0521
12324TIP3    H258388   3.627   2.777   0.834 -0.4393  0.4854  2.1354
12325TIP3   OH258389   5.204   4.372   1.625 -0.1423  0.0054  0.6133
12325TIP3    H158390   5.122   4.392   1.671  0.6841  0.5114  1.8760
12325TIP3    H258391   5.181   4.379   1.532 -1.2802  1.1895  0.9647
12326TIP3   OH258392   2.239   4.987   1.390  0.0853 -0.0327 -0.0798
12326TIP3    H158393   2.148   4.971   1.365  0.6637 -1.3966 -1.3837
12326TIP3    H258394   2.291   4.932   1.330  1.6819 -0.6937  1.8576
12327TIP3   OH258395   6.627   4.037   0.510 -0.2317  0.2131  0.0949
12327TIP3    H158396   6.538   4.005   0.521 -0.2264  0.0450 -0.3516
12327TIP3    H258397   6.662   4.042   0.599 -0.0197 -1.6415  0.1409
12328TIP3   OH258398   4.330   5.836   0.014  0.0119 -0.2448 -0.4740
12328TIP3    H158399   4.346   5.840   0.108 -1.2280 -0.1652 -0.2510
12328TIP3    H258400   4.248   5.787   0.006 -1.5666  2.4219 -1.3121
12329TIP3   OH258401   6.116   6.386   0.611  0.3971  0.2839 -0.3658
12329TIP3    H158402   6.129   6.438   0.532 -1.2424 -0.5371 -1.2272
12329TIP3    H258403   6.079   6.303   0.579  1.8836 -0.9708  1.0602
12330TIP3   OH258404   2.604   5.607   2.584  0.5028  0.0545 -0.3476
12330TIP3    H158405   2.570   5.529   2.628 -1.2587  0.3747 -1.0785
12330TIP3    H258406   2.695   5.613   2.611 -0.3165 -0.2006  2.6104
12331TIP3   OH258407   3.841   5.015   0.809 -0.3107  0.0347 -0.6402
12331TIP3    H158408   3.873   4.966   0.885  0.5747  0.1368 -0.9349
12331TIP3    H258409   3.892   5.096   0.810 -2.7888  1.6179  0.6766
12332TIP3   OH258410   4.953   3.964  15.904 -0.9389 -0.5506 -0.1811
12332TIP3    H158411   4.867   3.928  15.926 -1.9709  0.5338 -2.2913
12332TIP3    H258412   4.967   3.939  15.812  0.6547 -0.0737 -0.0848
12333TIP3   OH258413   4.897   2.783  15.395  0.0941  0.1943 -0.4524
12333TIP3    H158414   4.888   2.690  15.374  0.5209 -0.1380  0.8123
12333TIP3    H258415   4.859   2.828  15.320 -2.3005 -1.0404 -0.0253
12334TIP3   OH258416   7.216   3.251  15.870 -0.5388 -0.2905  0.1468
12334TIP3    H158417   7.245   3.183  15.931  2.2514  0.2436 -0.4948
12334TIP3    H258418   7.225   3.333  15.919 -1.3470 -0.1438  0.0555
12335TIP3   OH258419   5.165   6.372   1.310  0.2055  0.1114 -0.3442
12335TIP3    H158420   5.195   6.442   1.368  1.3637 -0.1236 -0.6416
12335TIP3    H258421   5.175   6.409   1.222  2.0073 -0.8604 -0.5655
12336TIP3   OH258422   4.880   2.697   1.144  0.3674 -0.1282 -0.6624
12336TIP3    H158423   4.875   2.682   1.049  1.5368  1.1981 -0.9530
12336TIP3    H258424   4.966   2.663   1.169  0.1652 -0.2423 -0.1148
12337TIP3   OH258425   4.245   4.946   1.154 -0.2939 -0.0182 -0.1191
12337TIP3    H158426   4.226   4.880   1.220 -1.6386 -0.1159 -0.5897
12337TIP3    H258427   4.304   5.008   1.198  2.8570 -2.6977 -0.3688
12338TIP3   OH258428   5.282   5.154  14.558 -0.1582  0.5770  0.4230
12338TIP3    H158429   5.318   5.199  14.634  1.0595 -1.5333  1.1575
12338TIP3    H258430   5.360   5.127  14.508 -0.9407  2.4336 -1.9051
12339TIP3   OH258431   4.322   4.872   2.281  0.5161 -0.1808  0.1219
12339TIP3    H158432   4.302   4.794   2.229 -2.2662  0.7177 -0.2501
12339TIP3    H258433   4.342   4.939   2.217  1.2547 -0.1422  0.3873
12340TIP3   OH258434   3.768   3.971   2.113 -0.0511  0.2578 -0.0700
12340TIP3    H158435   3.726   3.892   2.079  0.8647 -1.0218  1.7116
12340TIP3    H258436   3.769   3.959   2.208  0.7545  2.0839  0.1696
12341TIP3   OH258437   6.471   3.626  15.922  0.0153 -0.2858 -0.3097
12341TIP3    H158438   6.454   3.720  15.931 -0.5178 -0.1059 -2.8008
12341TIP3    H258439   6.547   3.621  15.864 -0.0398 -1.3881 -0.3019
12342TIP3   OH258440   6.229   3.956  15.560  0.6432 -0.2465  0.1843
12342TIP3    H158441   6.141   3.993  15.553 -0.3419 -2.5032  0.1064
12342TIP3    H258442   6.242   3.909  15.478  1.0084 -1.7831  1.1011
12343TIP3   OH258443   4.102   4.820  13.830 -0.1290  0.1874  0.1897
12343TIP3    H158444   4.025   4.769  13.807  1.6413 -1.5325 -2.1962
12343TIP3    H258445   4.158   4.759  13.879 -0.0893  1.3155  1.6059
12344TIP3   OH258446   6.186   4.055   0.236 -0.0854 -0.1497 -0.1192
12344TIP3    H158447   6.271   4.077   0.274 -0.6997  1.5562  0.3321
12344TIP3    H258448   6.137   4.016   0.308  0.6105 -1.9622 -0.6145
12345TIP3   OH258449   4.395   3.896   1.401  0.5577  0.2382 -0.1596
12345TIP3    H158450   4.477   3.901   1.451 -0.8775  0.8626  2.2546
12345TIP3    H258451   4.403   3.964   1.335  1.5910  0.9252  0.6530
12346TIP3   OH258452   6.250   5.968  14.812  0.1227 -0.0203 -0.8360
12346TIP3    H158453   6.201   6.037  14.768 -1.1876 -0.5173 -0.1572
12346TIP3    H258454   6.279   6.008  14.895  1.4197  0.4704 -1.5062
12347TIP3   OH258455   3.984   2.058  15.879 -0.0760  0.2692  0.5617
12347TIP3    H158456   3.891   2.034  15.882 -0.4596  1.5518 -0.4307
12347TIP3    H258457   4.027   1.980  15.844 -1.0770  0.3925 -1.0149
12348TIP3   OH258458   6.206   6.084   3.223 -0.0522  0.1079  0.2714
12348TIP3    H158459   6.251   6.168   3.217 -1.4313  0.9530  1.2881
12348TIP3    H258460   6.186   6.075   3.316  0.6077 -1.6399  0.2518
12349TIP3   OH258461   6.885   5.395  15.533  0.3059 -1.0241 -0.0630
12349TIP3    H158462   6.859   5.430  15.448  0.8600 -0.0551  0.1625
12349TIP3    H258463   6.931   5.467  15.576  1.5791 -2.0701  0.3504
12350TIP3   OH258464   5.364   6.215  15.971  0.4936 -0.3384 -0.5059
12350TIP3    H158465   5.374   6.121  15.980 -0.2351 -0.4645 -0.9686
12350TIP3    H258466   5.273   6.227  15.943  0.7827  0.4494 -1.1240
12351TIP3   OH258467   7.222   5.785  14.006 -0.1787  0.0071  0.4090
12351TIP3    H158468   7.251   5.693  14.008 -3.0843 -0.9581  0.3960
12351TIP3    H258469   7.283   5.830  14.064  1.7045 -1.7919 -0.0913
12352TIP3   OH258470   3.789   2.035  14.085 -0.1537 -0.6512  0.3709
12352TIP3    H158471   3.755   2.034  13.996 -1.7907 -0.4377  0.9744
12352TIP3    H258472   3.716   2.005  14.139  0.3250  0.6838  1.7949
12353TIP3   OH258473   2.239   3.832  14.607 -0.3214 -0.0213 -0.4206
12353TIP3    H158474   2.261   3.901  14.670  0.1824  0.4946 -1.1604
12353TIP3    H258475   2.205   3.761  14.661 -0.1675  0.5316  0.4136
12354TIP3   OH258476   0.573   6.169   0.940  0.2925 -0.1363 -0.3036
12354TIP3    H158477   0.497   6.127   0.900  0.3038  0.3360 -0.8356
12354TIP3    H258478   0.542   6.198   1.026  0.3684 -1.4709  0.1872
12355TIP3   OH258479   5.654   2.896  15.278 -0.8598 -0.0363  0.2680
12355TIP3    H158480   5.602   2.933  15.349 -2.2096 -1.0638 -0.1540
12355TIP3    H258481   5.739   2.878  15.317 -0.7471  1.8620  0.9205
12356TIP3   OH258482   4.521   0.968   0.210 -0.4907 -0.7053 -0.1194
12356TIP3    H158483   4.452   0.905   0.191  0.2547 -1.6186  0.1522
12356TIP3    H258484   4.587   0.953   0.143 -0.7173  0.4211 -0.6024
12357TIP3   OH258485   3.767   5.679  13.699  0.1224  0.2094 -0.1649
12357TIP3    H158486   3.684   5.705  13.739  0.7809 -0.2476  1.5513
12357TIP3    H258487   3.743   5.616  13.632 -0.8123 -1.3137  1.5419
12358TIP3   OH258488   5.814   3.756  15.885  0.4981  0.6101  0.5783
12358TIP3    H158489   5.837   3.677  15.836 -2.1866  0.6998 -0.9829
12358TIP3    H258490   5.897   3.788  15.920  1.6316 -2.9676  1.3853
12359TIP3   OH258491   2.469   1.560   0.443 -0.0433  0.0433  0.2191
12359TIP3    H158492   2.405   1.491   0.427 -0.8825  0.9640 -0.4571
12359TIP3    H258493   2.518   1.530   0.519 -2.2803  0.0202  1.7003
12360TIP3   OH258494   4.576   3.010   2.729 -0.2793 -0.1152  0.3317
12360TIP3    H158495   4.646   2.999   2.794 -0.2345 -0.5994  0.1984
12360TIP3    H258496   4.503   2.959   2.764 -1.4910  2.5021  1.8299
12361TIP3   OH258497   3.434   4.634   1.475 -0.4059 -0.0785 -0.1141
12361TIP3    H158498   3.412   4.561   1.417 -0.3277  1.0965 -1.6493
12361TIP3    H258499   3.369   4.630   1.545  0.0359 -2.0430  0.1945
12362TIP3   OH258500   6.700   5.749   1.506  0.2235 -0.1002 -0.1178
12362TIP3    H158501   6.731   5.777   1.592 -0.0135  1.5114 -0.5497
12362TIP3    H258502   6.689   5.654   1.515 -0.0561  0.0808  1.7072
12363TIP3   OH258503   5.478   4.330  15.413  0.5158 -0.1697  0.1979
12363TIP3    H158504   5.413   4.275  15.370 -0.6371 -0.3205  2.0711
12363TIP3    H258505   5.552   4.332  15.352 -0.7427 -1.0188 -1.4010
12364TIP3   OH258506   4.202   3.843   1.589 -0.2307 -0.1899  0.9764
12364TIP3    H158507   4.242   3.908   1.647 -1.1253  0.1391  1.2365
12364TIP3    H258508   4.254   3.848   1.508  0.9200 -0.5366  1.6832
12365TIP3   OH258509   4.667   3.197   0.131 -0.2392  0.0807 -0.0626
12365TIP3    H158510   4.610   3.254   0.183  0.7594 -0.9440  2.2723
12365TIP3    H258511   4.608   3.156   0.068 -2.0467 -0.5776  1.9583
12366TIP3   OH258512   5.914   4.995  15.789 -0.3404  0.4524 -0.1631
12366TIP3    H158513   5.862   4.935  15.842  0.4801  0.5369  0.7434
12366TIP3    H258514   5.909   5.079  15.835  1.7479  0.1340  0.7364
12367TIP3   OH258515   6.329   3.006   0.465  0.2781 -0.2461 -0.5576
12367TIP3    H158516   6.402   3.063   0.440 -0.1531 -0.1256 -1.5183
12367TIP3    H258517   6.289   3.051   0.540  1.0871 -0.2341 -0.1178
12368TIP3   OH258518   5.101   6.117   2.585  0.2848  0.5779  0.3012
12368TIP3    H158519   5.142   6.033   2.566  2.0211  1.1922  1.2809
12368TIP3    H258520   5.057   6.141   2.503 -0.9483 -1.6561  0.2614
12369TIP3   OH258521   4.444   2.990   0.740 -0.1105 -0.2768  0.1790
12369TIP3    H158522   4.477   2.988   0.651  0.8826 -0.7767  0.5429
12369TIP3    H258523   4.508   3.042   0.788 -0.5787 -0.1059  0.6251
12370TIP3   OH258524   3.857   4.177   1.112 -0.2151 -0.1480 -0.2902
12370TIP3    H158525   3.893   4.100   1.156  0.5758  0.5376  0.2954
12370TIP3    H258526   3.925   4.244   1.123 -1.4046  0.9769  0.2394
12371TIP3   OH258527   4.861   5.054   1.439  0.1167  0.2354  0.2727
12371TIP3    H158528   4.951   5.079   1.460  0.0752  0.7405 -0.1342
12371TIP3    H258529   4.822   5.031   1.523  1.1509 -1.7244  0.2369
12372TIP3   OH258530   3.334   5.723   3.401 -0.0714 -0.6981  0.0214
12372TIP3    H158531   3.324   5.816   3.385  2.4206  0.2979  3.4568
12372TIP3    H258532   3.278   5.705   3.477 -0.3347 -1.9413 -0.4464
12373TIP3   OH258533   4.380   4.053  15.825 -0.0857  0.4479  0.1235
12373TIP3    H158534   4.423   4.034  15.908 -0.8966 -0.7614  0.2674
12373TIP3    H258535   4.302   4.103  15.849  0.2808  1.1039 -0.0123
12374TIP3   OH258536   2.645   5.162   4.676  0.2230  0.0955  0.1300
12374TIP3    H158537   2.706   5.172   4.602  1.5694  0.8551  1.2969
12374TIP3    H258538   2.701   5.167   4.753 -0.9016 -2.7359  1.1930
12375TIP3   OH258539   5.357   4.820  14.798  0.3018 -0.0702  0.2369
12375TIP3    H158540   5.334   4.730  14.822 -0.3226 -0.5501 -2.0341
12375TIP3    H258541   5.273   4.863  14.783  0.6445  0.4895 -0.0805
12376TIP3   OH258542   3.689   4.286  15.717 -0.4504  0.3284 -0.1501
12376TIP3    H158543   3.737   4.314  15.795 -1.8936  2.0299  0.1616
12376TIP3    H258544   3.750   4.303  15.645 -0.2430  1.7086  0.3232
12377TIP3   OH258545   5.273   4.517  14.854 -0.4051  0.2551 -0.3350
12377TIP3    H158546   5.237   4.545  14.938  1.5087 -0.8677  0.8936
12377TIP3    H258547   5.250   4.424  14.848  0.1382  0.1415 -0.6971
12378TIP3   OH258548   1.167   4.507   0.913  0.0709  0.1136  0.2821
12378TIP3    H158549   1.173   4.603   0.923 -0.4220  0.1295  0.4131
12378TIP3    H258550   1.080   4.492   0.877 -0.8450 -0.4827  2.6782
12379TIP3   OH258551   4.716   4.699   2.747  0.1900  0.4763 -0.6243
12379TIP3    H158552   4.670   4.685   2.829  0.4285  0.3073 -0.5177
12379TIP3    H258553   4.656   4.669   2.679  0.5030 -0.5915 -0.4302
12380TIP3   OH258554   3.866   3.162   0.086  0.7466  0.7184  0.7890
12380TIP3    H158555   3.807   3.121   0.023 -0.2091 -0.6449  2.5297
12380TIP3    H258556   3.926   3.214   0.032 -1.1639  1.0354 -1.1022
12381TIP3   OH258557   5.978   2.741   3.167 -0.0060  0.4502  0.3322
12381TIP3    H158558   6.025   2.800   3.226  2.2325 -2.2165  1.2957
12381TIP3    H258559   5.931   2.681   3.225  0.7569 -1.0650 -0.6093
12382TIP3   OH258560   4.738   4.941   1.214 -0.3945  0.2731  0.5598
12382TIP3    H158561   4.811   4.921   1.155 -0.8438  1.1211 -0.3043
12382TIP3    H258562   4.779   4.957   1.299  0.3477  0.0104  0.2572
12383TIP3   OH258563   4.214   6.432  15.139  0.1233  0.1432 -0.1317
12383TIP3    H158564   4.278   6.500  15.159  0.3026  0.2995 -1.1860
12383TIP3    H258565   4.200   6.439  15.045 -0.1386 -1.0378 -0.1956
12384TIP3   OH258566   6.108   1.119  15.167 -0.9024 -0.1221  0.2128
12384TIP3    H158567   6.115   1.027  15.191 -1.9990 -0.3902 -0.4486
12384TIP3    H258568   6.157   1.166  15.234 -0.2536 -1.1991  0.4923
12385TIP3   OH258569   4.687   5.528   0.540 -0.4459  0.2548  0.2170
12385TIP3    H158570   4.605   5.485   0.513 -2.5748  2.9424  2.1476
12385TIP3    H258571   4.723   5.471   0.608 -1.2683 -0.4080  0.1045
12386TIP3   OH258572   3.730   5.536   1.350 -0.3252  0.0179 -0.1909
12386TIP3    H158573   3.733   5.469   1.418 -0.9800  0.5813  0.3937
12386TIP3    H258574   3.650   5.586   1.368 -1.1812 -0.6122 -2.1153
12387TIP3   OH258575   0.228   2.906  15.575 -0.2151 -0.6377  0.1939
12387TIP3    H158576   0.224   2.957  15.656  2.3020  0.1952 -0.1635
12387TIP3    H258577   0.201   2.968  15.507  0.3087 -0.5540  0.0663
12388TIP3   OH258578   3.279   4.049  15.922 -0.1325 -0.0713  0.2507
12388TIP3    H158579   3.251   4.123  15.868  0.3187  1.0533  1.5275
12388TIP3    H258580   3.248   4.069  16.010 -0.1196 -1.4770  0.5973
12389TIP3   OH258581   5.081   5.762  14.980  0.5880  0.2311 -0.2758
12389TIP3    H158582   5.170   5.732  14.999  0.2103  0.8810  2.7431
12389TIP3    H258583   5.028   5.682  14.981  0.6850  0.1732  0.8585
12390TIP3   OH258584   3.675   4.157   1.615  0.2587  0.6213  0.1971
12390TIP3    H158585   3.713   4.116   1.693  0.1268  0.8918  0.4040
12390TIP3    H258586   3.706   4.247   1.618 -0.8276  0.9953  0.6576
12391TIP3   OH258587   4.297   5.517   1.037 -0.5600 -0.7317 -0.4803
12391TIP3    H158588   4.383   5.480   1.059 -0.2796  1.1674  1.8075
12391TIP3    H258589   4.235   5.458   1.079 -0.2632 -0.5934  0.1620
12392TIP3   OH258590   3.868   3.158  15.602  0.2447 -0.5411 -0.3431
12392TIP3    H158591   3.805   3.197  15.663 -0.0852 -0.8329 -0.4980
12392TIP3    H258592   3.943   3.135  15.658 -0.1244 -0.9611 -0.0165
12393TIP3   OH258593   4.761   1.329   2.135 -0.5826 -0.0003 -0.5641
12393TIP3    H158594   4.835   1.379   2.171 -0.4234 -0.5687 -0.0849
12393TIP3    H258595   4.721   1.387   2.070 -0.6308  0.9039  0.2593
12394TIP3   OH258596   6.073   1.809  14.709  0.1811 -0.4480 -0.0888
12394TIP3    H158597   6.070   1.814  14.614 -1.4505  0.2180 -0.0225
12394TIP3    H258598   6.063   1.715  14.729  0.6208 -0.5953 -0.5657
12395TIP3   OH258599   4.652   6.470   2.361  0.1325 -0.3382  0.4571
12395TIP3    H158600   4.569   6.498   2.400 -0.3679 -0.2018 -0.6760
12395TIP3    H258601   4.719   6.514   2.413 -0.5407  0.2285  0.8589
12396TIP3   OH258602   5.177   3.642  15.604  0.0818 -0.3335  0.7063
12396TIP3    H158603   5.268   3.670  15.592 -0.0781  0.5229  1.4489
12396TIP3    H258604   5.183   3.560  15.653  0.5250 -1.2545 -0.8677
12397TIP3   OH258605   2.843   4.456  15.567 -0.3830  0.3154 -0.1053
12397TIP3    H158606   2.907   4.527  15.561  0.9504 -0.9490 -1.3229
12397TIP3    H258607   2.783   4.471  15.494  0.7387 -0.5703 -1.2485
12398TIP3   OH258608   4.440   2.382   0.013  0.2151  0.2057  0.2316
12398TIP3    H158609   4.516   2.422   0.057  0.5999 -1.0906  0.7834
12398TIP3    H258610   4.469   2.294  -0.009 -0.6548  0.1880 -0.8728
12399TIP3   OH258611   4.709   4.751  15.428 -0.1509 -0.0708  0.5037
12399TIP3    H158612   4.639   4.710  15.478 -0.6927  0.3571  0.1008
12399TIP3    H258613   4.702   4.711  15.341  0.6113 -0.6102  0.6731
12400TIP3   OH258614   2.511   1.302  15.312 -0.5796  0.1614  0.5065
12400TIP3    H158615   2.488   1.210  15.314  0.4338 -0.1636 -1.3713
12400TIP3    H258616   2.431   1.348  15.335 -1.8532 -1.0992 -1.2976
12401TIP3   OH258617   6.549   4.115   1.173 -0.0310 -0.4426 -0.4424
12401TIP3    H158618   6.549   4.160   1.088 -0.1530 -0.7758 -0.6199
12401TIP3    H258619   6.459   4.125   1.206  0.9638  3.1383  1.4979
12402TIP3   OH258620   3.556   4.313   0.271 -0.2940  0.2952  0.1265
12402TIP3    H158621   3.549   4.408   0.283  0.0157  0.7227 -2.6705
12402TIP3    H258622   3.466   4.282   0.282 -0.5144  0.9959  0.3828
12403TIP3   OH258623   2.228   5.117   0.240 -0.1977  0.1812 -0.6114
12403TIP3    H158624   2.185   5.064   0.173  2.0592  0.3226 -2.2368
12403TIP3    H258625   2.234   5.059   0.316 -1.2864 -0.5487 -1.0731
12404TIP3   OH258626   4.954   3.919   1.276  0.2183 -0.3960  0.1908
12404TIP3    H158627   4.894   3.976   1.324 -4.0435 -3.9315 -0.5933
12404TIP3    H258628   4.918   3.917   1.187  1.7980 -2.1988 -0.4234
12405TIP3   OH258629   3.640   4.494  14.028  0.0607 -0.3045 -0.8289
12405TIP3    H158630   3.685   4.579  14.025  1.4218 -0.9494  0.3934
12405TIP3    H258631   3.583   4.500  14.104 -1.0892  0.0955 -1.7106
12406TIP3   OH258632   3.120   4.558   1.280 -0.6333  0.3720 -0.3182
12406TIP3    H158633   3.128   4.566   1.185  0.9245 -0.7395 -0.2956
12406TIP3    H258634   3.188   4.495   1.305 -1.7559 -0.1983  1.4043
12407TIP3   OH258635   2.813   4.541   2.066 -0.0557  0.3042 -0.1371
12407TIP3    H158636   2.846   4.459   2.030 -2.1564 -0.3104 -0.7445
12407TIP3    H258637   2.886   4.577   2.116  0.8884 -1.9273  0.1128
12408TIP3   OH258638   5.505   5.524   0.183  0.3920 -0.4594 -0.2612
12408TIP3    H158639   5.517   5.619   0.182  0.3670 -0.4520  0.1790
12408TIP3    H258640   5.579   5.491   0.233  0.2360 -0.6458 -0.1531
12409TIP3   OH258641   2.413   4.145  15.987 -0.1389  0.5531  0.7325
12409TIP3    H158642   2.419   4.071  16.047 -0.0190  0.8447  1.0826
12409TIP3    H258643   2.441   4.111  15.903  0.5232  0.3589  1.0290
12410TIP3   OH258644   5.236   5.858  15.668  0.2455 -0.0127 -0.1233
12410TIP3    H158645   5.201   5.929  15.615  0.9745 -1.2289 -2.3042
12410TIP3    H258646   5.158   5.816  15.707 -0.2120  1.5827  0.7289
12411TIP3   OH258647   4.434   3.899   1.780  0.9060 -0.6028  0.0796
12411TIP3    H158648   4.448   3.809   1.750  0.5785 -0.7194  0.2739
12411TIP3    H258649   4.512   3.920   1.831 -0.1463 -1.6754  2.1911
12412TIP3   OH258650   4.364   6.615   0.854 -0.3889  0.2302  0.2204
12412TIP3    H158651   4.309   6.694   0.855  0.4983  0.8414  2.2558
12412TIP3    H258652   4.304   6.543   0.872 -0.8457  0.6697  0.4553
12413TIP3   OH258653   4.942   6.408   1.488 -0.4918 -0.1688 -0.4179
12413TIP3    H158654   4.902   6.402   1.401 -1.5262  1.3391 -0.0584
12413TIP3    H258655   5.033   6.381   1.474 -0.8415 -0.6580 -1.8238
12414TIP3   OH258656   3.436   3.077  15.906  1.0034  0.0578 -0.0563
12414TIP3    H158657   3.376   3.148  15.930  0.9901  0.4778 -1.2670
12414TIP3    H258658   3.380   3.000  15.898  0.4797  0.6008 -1.9051
12415TIP3   OH258659   3.969   4.024   0.642  0.1731 -0.7014  0.4275
12415TIP3    H158660   3.984   4.082   0.717  2.3366 -0.6644  0.0106
12415TIP3    H258661   3.888   4.057   0.602 -1.6212 -1.3961  3.3285
12416TIP3   OH258662   4.693   7.056   1.090 -0.2406 -0.0504 -0.7452
12416TIP3    H158663   4.660   7.075   1.178 -0.9708 -1.8454 -0.6040
12416TIP3    H258664   4.629   7.095   1.031  0.7611  2.0105 -0.5030
12417TIP3   OH258665   3.493   6.282   4.082 -0.4842  0.1236 -0.4274
12417TIP3    H158666   3.548   6.218   4.127  0.5318  1.3116  0.0426
12417TIP3    H258667   3.477   6.349   4.148 -2.7689 -0.3420 -0.4552
12418TIP3   OH258668   4.607   4.144  15.664 -0.5148 -0.7005 -0.2343
12418TIP3    H158669   4.541   4.123  15.729 -1.0330  1.7042  0.0663
12418TIP3    H258670   4.667   4.203  15.709  1.0637 -1.7247 -0.9333
12419TIP3   OH258671   5.820   5.393  14.975 -0.4278  0.3266  0.0531
12419TIP3    H158672   5.829   5.463  14.911 -3.2434 -0.6391 -1.5015
12419TIP3    H258673   5.835   5.312  14.926 -2.3278 -0.4051  0.6042
12420TIP3   OH258674   3.500   6.278   1.315  0.6992 -0.4918  0.2060
12420TIP3    H158675   3.417   6.264   1.270  1.1226 -1.6080 -0.2481
12420TIP3    H258676   3.562   6.223   1.268  1.9528  1.2284 -0.1754
12421TIP3   OH258677   5.012   5.688  15.757  0.5617 -0.2224  0.2976
12421TIP3    H158678   5.087   5.656  15.809  1.3017 -0.6544 -1.0004
12421TIP3    H258679   4.951   5.722  15.822  1.2739 -1.1578  1.4924
12422TIP3   OH258680   4.984   4.530  15.763  0.0504  0.4521 -0.4603
12422TIP3    H158681   4.952   4.527  15.853  2.4009  1.3523  0.4229
12422TIP3    H258682   5.063   4.583  15.766 -1.4151  3.0003 -3.5817
12423TIP3   OH258683   5.283   3.503   2.107  0.5682  0.1295  0.1797
12423TIP3    H158684   5.210   3.552   2.070 -0.0543 -0.7154  0.2440
12423TIP3    H258685   5.286   3.530   2.199  1.1380  1.0928 -0.1216
12424TIP3   OH258686   3.152   5.884   1.340  0.5155 -0.2747  0.2814
12424TIP3    H158687   3.062   5.882   1.370  0.8331  2.3508  1.5009
12424TIP3    H258688   3.146   5.879   1.244 -0.8405 -1.4821  0.4326
12425TIP3   OH258689   4.314   3.167   1.031  0.3886 -0.1534  0.0984
12425TIP3    H158690   4.373   3.187   0.959  1.6370 -2.0327  0.5566
12425TIP3    H258691   4.271   3.086   1.005 -1.3727  0.7327  0.1630
12426TIP3   OH258692   3.538   3.699   2.589  0.5884  0.4683  0.3296
12426TIP3    H158693   3.467   3.648   2.629  0.1335 -0.9296 -2.1232
12426TIP3    H258694   3.600   3.632   2.559  1.8690  1.5716  0.5140
12427TIP3   OH258695   3.919   2.704   0.661  0.2138 -0.6052 -0.1765
12427TIP3    H158696   3.852   2.745   0.715  1.6505  0.0820  1.1410
12427TIP3    H258697   3.871   2.647   0.601 -1.5114 -0.2766  0.8702
12428TIP3   OH258698   3.835   5.886  15.728  0.2571 -0.0064 -0.0277
12428TIP3    H158699   3.799   5.898  15.640 -0.4910  1.1338  0.4229
12428TIP3    H258700   3.904   5.951  15.735 -0.7207  0.9604  0.7787
12429TIP3   OH258701   4.371   3.344   1.997 -0.0653  0.1790 -0.0131
12429TIP3    H158702   4.447   3.400   2.013 -0.2011  0.3350  0.0886
12429TIP3    H258703   4.332   3.331   2.084  0.4693 -0.7897  0.0843
12430TIP3   OH258704   3.888   3.265   2.744  0.0588  0.1539  0.8102
12430TIP3    H158705   3.925   3.352   2.760 -1.8896  0.9519  1.1999
12430TIP3    H258706   3.885   3.257   2.649 -1.4898  1.3187  0.7380
12431TIP3   OH258707   5.681   3.187   1.963 -0.2919  0.1831  0.5246
12431TIP3    H158708   5.668   3.108   2.014  0.6090 -2.2062 -2.7427
12431TIP3    H258709   5.639   3.169   1.879  2.7181  1.8161 -1.4612
12432TIP3   OH258710   5.213   2.937   2.692 -0.0201  0.6156  0.2707
12432TIP3    H158711   5.232   2.862   2.748 -0.7645 -0.0155 -0.3028
12432TIP3    H258712   5.186   3.006   2.752 -1.4090 -0.2451  0.6478
12433TIP3   OH258713   3.096   3.304   3.068 -0.2426  0.4389  0.0643
12433TIP3    H158714   3.018   3.332   3.020  0.9319  1.4389 -1.2845
12433TIP3    H258715   3.119   3.379   3.123  1.2826  1.1399 -1.4913
12434TIP3   OH258716   6.391   2.942   3.272  0.1457  0.4344 -0.1290
12434TIP3    H158717   6.418   2.872   3.332 -0.1608 -0.1559 -0.6787
12434TIP3    H258718   6.295   2.936   3.270  0.1703  0.2873 -0.8839
12435TIP3   OH258719   4.182   4.951   3.572 -0.6179  0.7057  0.1690
12435TIP3    H158720   4.140   4.954   3.486 -0.4863  2.7385  0.1462
12435TIP3    H258721   4.111   4.930   3.633 -0.7033 -0.7748 -0.4283
12436TIP3   OH258722   5.403   5.514   0.811  0.8383 -0.3486  0.1389
12436TIP3    H158723   5.405   5.555   0.724  1.1977 -1.6687 -0.4906
12436TIP3    H258724   5.353   5.575   0.865  2.4162  1.5367 -0.4575
12437TIP3   OH258725   3.265   4.313   0.206  0.0522  0.4074 -0.2148
12437TIP3    H158726   3.307   4.316   0.120 -0.0882 -0.6373 -0.3278
12437TIP3    H258727   3.234   4.223   0.214  1.0397  0.1849  1.3921
12438TIP3   OH258728   3.726   1.966  15.783 -0.1128 -0.2621  0.2998
12438TIP3    H158729   3.648   2.019  15.767 -0.0171 -0.0838  0.4185
12438TIP3    H258730   3.724   1.898  15.716 -0.2382 -0.1083  0.1492
12439TIP3   OH258731   3.375   3.536  15.486 -0.5276  0.0947 -0.2339
12439TIP3    H158732   3.336   3.617  15.456 -0.0389 -0.3275 -2.0797
12439TIP3    H258733   3.301   3.476  15.499 -0.7535  0.3335 -0.4410
12440TIP3   OH258734   5.500   5.616   1.228  0.0917 -0.0775 -0.0823
12440TIP3    H158735   5.425   5.606   1.287  0.9001  0.4072  1.0258
12440TIP3    H258736   5.563   5.668   1.277  0.9658 -0.0689 -1.1998
12441TIP3   OH258737   6.377   3.771   0.877  0.1301  0.1760 -0.0765
12441TIP3    H158738   6.393   3.783   0.971  1.0175  0.3195 -0.2471
12441TIP3    H258739   6.285   3.795   0.866  0.3492  1.3813  0.5563
12442TIP3   OH258740   5.948   5.088   2.389  0.4680 -0.0429 -0.1026
12442TIP3    H158741   5.953   5.009   2.443 -0.4143  2.7425  4.2353
12442TIP3    H258742   6.039   5.110   2.370  0.7831 -0.9420  0.3142
12443TIP3   OH258743   6.987   5.175  15.797  0.1967  0.1720  0.7337
12443TIP3    H158744   6.993   5.241  15.865  1.7215  0.8368 -0.0240
12443TIP3    H258745   7.076   5.166  15.764 -0.4824 -0.2766 -1.0323
12444TIP3   OH258746   4.172   5.232  14.741  0.3611 -0.3306  0.0413
12444TIP3    H158747   4.225   5.311  14.753 -0.8769  0.3506  1.0873
12444TIP3    H258748   4.190   5.179  14.819  1.0109 -0.9998 -0.5499
12445TIP3   OH258749   5.638   4.697   1.442 -0.5832  0.4320 -0.2738
12445TIP3    H158750   5.609   4.730   1.527 -1.5755  0.2357 -0.5340
12445TIP3    H258751   5.583   4.620   1.426  0.3044 -0.1407 -0.6213
12446TIP3   OH258752   6.303   5.413   1.200  0.1274  0.1186  0.4229
12446TIP3    H158753   6.272   5.426   1.111  2.2681  0.4693 -0.2818
12446TIP3    H258754   6.355   5.490   1.219  1.9014 -1.1957  1.0105
12447TIP3   OH258755   5.787   6.617  13.588  0.2081  0.3238 -0.1249
12447TIP3    H158756   5.829   6.602  13.672  0.8210 -2.3996 -0.8689
12447TIP3    H258757   5.855   6.660  13.535  0.2838  0.7527  0.3159
12448TIP3   OH258758   4.994   0.283  15.859  0.2569  0.2893 -0.6931
12448TIP3    H158759   4.969   0.343  15.930  0.6985  1.0561 -1.1767
12448TIP3    H258760   5.069   0.235  15.894 -1.2795 -1.3676  0.4125
12449TIP3   OH258761   6.349   3.364   1.224  0.2646  0.0724  0.1729
12449TIP3    H158762   6.426   3.414   1.250  0.7231 -1.5580  2.0440
12449TIP3    H258763   6.322   3.318   1.303 -3.5774  1.7791 -0.0464
12450TIP3   OH258764   4.219   4.612  15.061  0.0972  0.7773  0.6334
12450TIP3    H158765   4.132   4.603  15.099 -0.9982 -1.8870 -2.3051
12450TIP3    H258766   4.230   4.535  15.005  2.9858  2.7493 -1.7101
12451TIP3   OH258767   3.195   6.752  15.319  0.6270 -0.5087  0.1209
12451TIP3    H158768   3.186   6.799  15.235 -0.6754  1.0809  1.1164
12451TIP3    H258769   3.130   6.793  15.376  0.8198 -2.2512  1.6216
12452TIP3   OH258770   7.284   3.822   2.894 -0.1863 -0.0057 -0.4802
12452TIP3    H158771   7.298   3.743   2.842  0.2689  0.6549 -1.3628
12452TIP3    H258772   7.245   3.885   2.834 -0.5065  0.4637  0.2068
12453TIP3   OH258773   3.830   5.042  14.165  0.8209  0.1444  0.1731
12453TIP3    H158774   3.745   5.085  14.152  0.0986 -1.6618 -1.2796
12453TIP3    H258775   3.868   5.038  14.078  1.0438 -1.8021  0.3374
12454TIP3   OH258776   6.727   4.803   1.724 -0.1578 -0.6600 -0.4997
12454TIP3    H158777   6.701   4.715   1.695 -0.1057 -0.6978 -0.4344
12454TIP3    H258778   6.686   4.812   1.810  0.5236 -0.9530 -0.1364
12455TIP3   OH258779   5.090   3.684   2.076  0.2213 -0.1217  0.2909
12455TIP3    H158780   5.117   3.768   2.114  0.7805  0.0209 -0.4296
12455TIP3    H258781   5.029   3.648   2.141 -0.5846  1.1716  0.2785
12456TIP3   OH258782   5.049   4.208   0.282  0.1754  0.1965 -0.1174
12456TIP3    H158783   5.024   4.211   0.375 -1.5636  0.6629 -0.5753
12456TIP3    H258784   5.085   4.295   0.264  1.2305 -0.1440  0.2934
12457TIP3   OH258785   4.780   4.468   1.022  0.1629 -0.2134  0.7200
12457TIP3    H158786   4.826   4.553   1.023  0.9735 -0.6491  1.3219
12457TIP3    H258787   4.702   4.484   0.970  1.6398  0.2199 -1.4672
12458TIP3   OH258788   6.621   5.014  12.965 -0.3020 -0.6143 -0.2953
12458TIP3    H158789   6.683   5.085  12.950 -1.7463  0.8245  0.3836
12458TIP3    H258790   6.673   4.934  12.955  1.1804  0.5042 -1.8336
12459TIP3   OH258791   5.651   4.855  15.392  0.3453  0.6684 -0.0397
12459TIP3    H158792   5.561   4.859  15.358  0.3886 -0.2114 -0.2716
12459TIP3    H258793   5.641   4.822  15.481  0.6959 -2.9133 -1.2583
12460TIP3   OH258794   4.434   5.833   2.256 -0.1932  0.0261  0.8046
12460TIP3    H158795   4.522   5.867   2.238 -0.0857 -1.3645 -1.5460
12460TIP3    H258796   4.382   5.911   2.274  1.0526  1.0513  0.0979
12461TIP3   OH258797   6.637   5.271   1.904  0.1874 -0.1531  0.2258
12461TIP3    H158798   6.675   5.358   1.918  1.4178 -0.9926  2.3659
12461TIP3    H258799   6.700   5.211   1.945 -1.0545 -1.9894 -0.4981
12462TIP3   OH258800   5.991   4.064   0.433  0.1586 -0.2430  0.0345
12462TIP3    H158801   5.939   4.129   0.386  0.7319 -0.7817 -1.3738
12462TIP3    H258802   5.929   3.995   0.456  0.0640 -0.4355 -0.8010
12463TIP3   OH258803   5.350   4.785  12.913  0.0657 -0.4468 -0.1362
12463TIP3    H158804   5.293   4.800  12.988  0.9101  1.4854  0.1268
12463TIP3    H258805   5.292   4.795  12.837  0.2910  3.0540  0.0615
12464TIP3   OH258806   6.083   4.400   0.394 -0.4920  0.3080  0.1158
12464TIP3    H158807   6.055   4.315   0.427 -1.6267  0.6417  0.0314
12464TIP3    H258808   6.002   4.444   0.367 -0.0469  1.9156  1.3093
12465TIP3   OH258809   3.262   4.423   2.970 -0.8057 -0.2108  0.6185
12465TIP3    H158810   3.238   4.509   2.935  1.3401  0.2788  0.2873
12465TIP3    H258811   3.235   4.426   3.062 -2.2891  0.1719  0.1881
12466TIP3   OH258812   3.735   5.670   3.207  0.6926 -0.1261  0.4243
12466TIP3    H158813   3.686   5.748   3.235  0.6328 -0.5175  1.4340
12466TIP3    H258814   3.741   5.616   3.286  1.6440 -0.6658 -0.0123
12467TIP3   OH258815   4.990   3.283   1.161 -0.2019 -0.4318  0.1585
12467TIP3    H158816   4.988   3.194   1.125 -0.0263 -0.8907  1.2637
12467TIP3    H258817   4.977   3.271   1.255 -0.4370  0.7364  0.2798
12468TIP3   OH258818   6.048   6.577   2.268  0.1185  0.2045  0.4746
12468TIP3    H158819   6.047   6.670   2.247  0.5363 -0.0574 -0.7381
12468TIP3    H258820   5.956   6.555   2.283 -0.0322  0.7241  0.3033
12469TIP3   OH258821   4.339   7.229   1.393  0.0322  0.1738 -0.3226
12469TIP3    H158822   4.358   7.197   1.304 -2.0401 -0.1410 -0.6885
12469TIP3    H258823   4.251   7.195   1.412  0.5198  0.1061  1.9196
12470TIP3   OH258824   3.829   3.649   1.651 -0.6805  0.0314  0.1483
12470TIP3    H158825   3.788   3.564   1.639 -0.9722 -0.0367  1.5598
12470TIP3    H258826   3.916   3.630   1.685 -0.3288  0.2676 -0.5947
12471TIP3   OH258827   4.541   3.880   3.234  0.1907  0.3436 -0.2174
12471TIP3    H158828   4.528   3.850   3.144  1.4757  1.0456 -0.6597
12471TIP3    H258829   4.454   3.902   3.266 -0.2694  0.1378 -1.3175
12472TIP3   OH258830   3.270   5.882   1.775 -0.2838  0.0420 -0.4800
12472TIP3    H158831   3.339   5.817   1.781 -0.3835 -0.1120 -0.9752
12472TIP3    H258832   3.251   5.889   1.681 -0.9289  0.0894 -0.3523
12473TIP3   OH258833   4.628   5.219   0.119  0.2715  0.2312 -0.0031
12473TIP3    H158834   4.666   5.196   0.034  2.2137  1.0361  0.6309
12473TIP3    H258835   4.698   5.265   0.165 -1.7588  2.5422  0.8720
12474TIP3   OH258836   0.799   5.658   0.491 -0.0525  0.3819 -0.2649
12474TIP3    H158837   0.837   5.612   0.566 -1.2094  0.3530  0.3112
12474TIP3    H258838   0.799   5.592   0.421 -1.1620 -0.3304  0.3894
12475TIP3   OH258839   4.798   4.861   1.676  0.6780 -0.2830 -0.0121
12475TIP3    H158840   4.744   4.893   1.748  0.1763  1.0511 -0.9670
12475TIP3    H258841   4.886   4.855   1.712  0.8037  2.2737  0.1895
12476TIP3   OH258842   4.670   4.458   1.733 -0.3145  0.0251  0.2293
12476TIP3    H158843   4.628   4.487   1.652  1.6069 -0.4727 -0.9651
12476TIP3    H258844   4.638   4.369   1.747 -0.0147 -0.1909 -0.4402
12477TIP3   OH258845   6.284   4.253  15.505 -0.0039  0.0487  0.6372
12477TIP3    H158846   6.319   4.187  15.565  1.1169  1.5444  1.6679
12477TIP3    H258847   6.336   4.243  15.425  3.1679  2.4968  2.2779
12478TIP3   OH258848   3.752   4.422   1.679 -0.2242  0.5780 -0.2808
12478TIP3    H158849   3.833   4.436   1.630 -0.7105  0.2704 -1.1900
12478TIP3    H258850   3.758   4.481   1.754  1.1723  0.0273  0.0655
12479TIP3   OH258851   5.730   3.047   2.894  0.5476 -0.6042 -0.1771
12479TIP3    H158852   5.744   3.139   2.919  0.2871 -0.2189 -1.3840
12479TIP3    H258853   5.806   3.001   2.930  0.0044 -0.1492  1.5974
12480TIP3   OH258854   5.595   2.440  15.733  0.0535  0.0738  0.0762
12480TIP3    H158855   5.653   2.499  15.780 -2.2283  2.5068 -0.0116
12480TIP3    H258856   5.636   2.429  15.647  0.0746  2.3290 -0.2390
12481TIP3   OH258857   5.620   5.270   1.642 -0.0683 -0.5917  0.0206
12481TIP3    H158858   5.562   5.344   1.621 -1.1328 -1.0184  1.4227
12481TIP3    H258859   5.634   5.227   1.558  0.9878  1.4973 -0.9168
12482TIP3   OH258860   2.565   5.378   1.431 -0.3648 -0.4413 -0.1399
12482TIP3    H158861   2.500   5.402   1.497 -0.9284 -2.5949  0.1216
12482TIP3    H258862   2.521   5.314   1.376  1.1312 -1.0083 -0.7074
12483TIP3   OH258863   1.271   4.760   0.441 -0.1122  0.1599  0.2088
12483TIP3    H158864   1.307   4.768   0.529 -1.7313 -0.4963  0.9438
12483TIP3    H258865   1.327   4.816   0.387  1.2918  0.0336  1.5288
12484TIP3   OH258866   3.959   2.585   1.263  0.3243  1.1385 -0.2475
12484TIP3    H158867   3.997   2.505   1.301 -1.8368 -0.5577 -1.5491
12484TIP3    H258868   3.996   2.589   1.174 -0.2603  1.0822 -0.4949
12485TIP3   OH258869   3.890   3.906   0.278 -0.0082 -0.4524 -0.0622
12485TIP3    H158870   3.806   3.931   0.317  0.5470  0.8220  0.3361
12485TIP3    H258871   3.943   3.985   0.282  0.4132 -0.5717 -2.5170
12486TIP3   OH258872   3.527   3.723   0.864  0.5408  0.0904 -0.0876
12486TIP3    H158873   3.456   3.680   0.911 -0.0525 -1.0655 -1.9705
12486TIP3    H258874   3.589   3.749   0.932 -1.2958  0.4228  1.5155
12487TIP3   OH258875   3.622   0.169   0.508  0.1163  0.5734  0.0570
12487TIP3    H158876   3.679   0.142   0.437  0.6003  1.7604 -0.0234
12487TIP3    H258877   3.540   0.194   0.465 -0.0702 -0.0434  0.0562
12488TIP3   OH258878   4.625   3.491   1.084 -0.7727  0.3962 -0.3046
12488TIP3    H158879   4.699   3.457   1.034 -0.0371  1.3083  0.1480
12488TIP3    H258880   4.631   3.445   1.168  0.0893  1.4509  0.2250
12489TIP3   OH258881   5.335   3.795  14.650 -0.5732  0.0052 -0.3200
12489TIP3    H158882   5.385   3.873  14.671  0.9636 -1.4858  1.8484
12489TIP3    H258883   5.245   3.815  14.678 -1.3804  2.8060 -4.5291
12490TIP3   OH258884   4.610   6.540   1.122 -0.5763  0.2764 -0.4248
12490TIP3    H158885   4.561   6.461   1.098 -0.0784 -0.1699  0.0319
12490TIP3    H258886   4.543   6.603   1.149 -0.7885 -1.0032  2.1418
12491TIP3   OH258887   0.738   5.199   1.471 -0.1122 -0.3512 -0.6575
12491TIP3    H158888   0.748   5.126   1.532  0.1485 -0.8013 -1.2274
12491TIP3    H258889   0.691   5.266   1.520  1.1279 -0.2441  0.4125
12492TIP3   OH258890   5.107   2.600   0.136  0.2654  0.1249  0.7024
12492TIP3    H158891   5.020   2.575   0.167  0.1616 -0.5728 -0.1183
12492TIP3    H258892   5.119   2.690   0.167 -0.4482 -0.0279  1.4327
12493TIP3   OH258893   4.575   2.637   1.974 -0.4397  0.7202 -0.0700
12493TIP3    H158894   4.582   2.609   1.883  2.8002  0.2652  0.2704
12493TIP3    H258895   4.551   2.557   2.022 -1.1326  0.7471 -0.3594
12494TIP3   OH258896   4.630   4.526   2.007  0.2707 -0.5268  0.2177
12494TIP3    H158897   4.704   4.465   2.011 -0.6776 -1.6958  0.5066
12494TIP3    H258898   4.623   4.549   1.915  1.5617  0.3168  0.3178
12495TIP3   OH258899   3.243   5.637   1.570  0.2539 -0.0397  0.6356
12495TIP3    H158900   3.174   5.689   1.527 -0.5736 -2.3329 -0.8646
12495TIP3    H258901   3.301   5.612   1.499  1.8910  0.6567  1.6966
12496TIP3   OH258902   5.200   4.744   1.068 -0.1125  0.1352 -0.3549
12496TIP3    H158903   5.294   4.737   1.085 -0.2964 -1.5707  0.1098
12496TIP3    H258904   5.194   4.762   0.974  0.6484 -1.3861 -0.7104
12497TIP3   OH258905   6.039   2.650   2.137 -0.2566  0.1541 -0.2926
12497TIP3    H158906   6.094   2.589   2.088 -0.2595 -0.7353  0.7578
12497TIP3    H258907   5.962   2.598   2.161  0.7070 -0.0963  2.4366
12498TIP3   OH258908   5.771   4.891   1.029  0.2704  0.4177 -0.2673
12498TIP3    H158909   5.866   4.899   1.017  0.4611  2.2827  1.9418
12498TIP3    H258910   5.759   4.805   1.067  0.9616 -0.2335 -1.4843
12499TIP3   OH258911   6.415   4.223   0.217 -0.5971  0.4920  0.1881
12499TIP3    H158912   6.504   4.237   0.184 -0.1364 -0.9385  0.8117
12499TIP3    H258913   6.359   4.256   0.147  0.4110 -0.0693 -0.9097
12500TIP3   OH258914   1.055   5.887   1.163  0.1545  0.2249  0.3771
12500TIP3    H158915   0.971   5.842   1.168  1.4157 -2.0472  1.3273
12500TIP3    H258916   1.071   5.919   1.252  1.7113 -1.9735  0.9045
12501TIP3   OH258917   4.291   4.440   1.165 -0.0828 -0.2626 -0.1235
12501TIP3    H158918   4.361   4.506   1.161 -0.4142  0.2138  1.6899
12501TIP3    H258919   4.322   4.376   1.230 -0.8111 -0.6627 -0.1719
12502TIP3   OH258920   5.442   6.253  15.676  0.0301 -0.3046 -0.1381
12502TIP3    H158921   5.422   6.230  15.767  1.3486  2.1991  0.8276
12502TIP3    H258922   5.457   6.347  15.677  1.0904 -0.3896 -2.7780
12503TIP3   OH258923   6.536   4.456   1.416  0.3159 -0.3557  0.1496
12503TIP3    H158924   6.454   4.466   1.368  0.6729 -0.6328 -0.5342
12503TIP3    H258925   6.603   4.482   1.353  0.7878 -0.6575  0.5246
12504TIP3   OH258926   4.592   6.433   1.916 -0.4189  0.3864 -0.5444
12504TIP3    H158927   4.530   6.502   1.941  0.0428  0.6148 -0.0209
12504TIP3    H258928   4.640   6.471   1.843  1.0676  1.3312  0.8916
12505TIP3   OH258929   4.937   3.995  15.401 -0.3295 -0.0522 -0.3849
12505TIP3    H158930   4.879   3.980  15.476  0.3996 -0.4139  0.1015
12505TIP3    H258931   4.886   3.963  15.326 -1.2897  0.8419 -0.1280
12506TIP3   OH258932   1.220   5.323   0.242  0.4264  0.0625 -0.0398
12506TIP3    H158933   1.251   5.234   0.260  1.0847  0.6733  1.9665
12506TIP3    H258934   1.295   5.367   0.202 -0.4007 -0.7114 -2.5363
12507TIP3   OH258935   0.778   3.914   0.541  0.4078  0.0522 -0.0843
12507TIP3    H158936   0.774   3.820   0.524  4.0366 -0.0819 -0.5858
12507TIP3    H258937   0.724   3.953   0.473 -2.1591 -1.7030  0.8869
12508TIP3   OH258938   3.423   1.748  15.491  0.1106 -0.0418  0.0778
12508TIP3    H158939   3.396   1.819  15.433  0.0650 -0.2787 -0.1906
12508TIP3    H258940   3.495   1.785  15.542  1.3098 -0.3670 -1.3406
12509TIP3   OH258941   0.234   3.679   1.670  0.1655 -0.5407 -0.3831
12509TIP3    H158942   0.278   3.595   1.684 -0.2370 -0.8323 -0.8819
12509TIP3    H258943   0.150   3.670   1.716  0.5124 -0.0687  0.3627
12510TIP3   OH258944   5.189   4.755   0.786 -0.1107  0.1596 -0.9464
12510TIP3    H158945   5.283   4.746   0.774 -0.2534 -0.2721 -1.7643
12510TIP3    H258946   5.167   4.840   0.748  0.2283  1.0949  0.9092
12511TIP3   OH258947   1.353   5.860   2.197  0.5169  0.0688  0.0636
12511TIP3    H158948   1.369   5.829   2.286  3.0244 -0.6183 -0.5737
12511TIP3    H258949   1.334   5.780   2.147  1.4712  0.1666 -0.4720
12512TIP3   OH258950   0.859   2.742   0.681  0.2756 -0.4702 -0.2391
12512TIP3    H158951   0.886   2.651   0.691 -0.1244 -0.7642 -1.7739
12512TIP3    H258952   0.815   2.762   0.764  0.0031 -1.7901 -0.0440
12513TIP3   OH258953   5.262   5.629   1.031 -0.0859 -1.0089 -0.1283
12513TIP3    H158954   5.197   5.682   1.077  1.3853  0.6231  0.1080
12513TIP3    H258955   5.342   5.640   1.081  1.2505 -0.1536 -2.3938
12514TIP3   OH258956   1.519   5.272  15.296  0.2044  0.0523  0.1464
12514TIP3    H158957   1.446   5.213  15.276 -0.7206  0.4733  2.1282
12514TIP3    H258958   1.484   5.359  15.278  0.1374  0.2672  1.2679
12515TIP3   OH258959   5.645   4.252   1.491  0.0988 -0.1019 -0.5497
12515TIP3    H158960   5.675   4.286   1.575 -0.8386  0.1916 -0.3215
12515TIP3    H258961   5.578   4.315   1.463 -0.5268 -0.9141 -0.8798
12516TIP3   OH258962   1.422   4.374   2.723 -0.3035 -0.0043 -0.0079
12516TIP3    H158963   1.476   4.309   2.768 -1.8515  0.0038  1.9412
12516TIP3    H258964   1.483   4.443   2.698  1.0674 -1.3655 -0.5143
12517TIP3   OH258965   0.553   0.032  15.602  0.0285 -0.4985 -0.0786
12517TIP3    H158966   0.501  -0.029  15.653  0.9013  0.3248  1.8575
12517TIP3    H258967   0.641  -0.007  15.600  0.3694  0.2207  0.3936
12518TIP3   OH258968   0.262   4.309  14.755  0.3239  0.1567 -0.1876
12518TIP3    H158969   0.321   4.315  14.829 -0.1849  0.2317  0.2127
12518TIP3    H258970   0.175   4.327  14.791  0.2983  1.9859 -1.1335
12519TIP3   OH258971   6.907   4.631  15.566 -0.6782  0.3288  0.0281
12519TIP3    H158972   6.984   4.687  15.578 -0.4675 -0.2489  1.4643
12519TIP3    H258973   6.893   4.590  15.652 -2.8746  0.7807 -0.0854
12520TIP3   OH258974   6.285   4.830   1.723  0.3629  0.8947 -0.3106
12520TIP3    H158975   6.234   4.829   1.642  1.0314  0.3930 -0.7350
12520TIP3    H258976   6.320   4.919   1.728 -0.4827  1.2177 -0.0560
12521TIP3   OH258977   7.223   4.824  12.960  0.7391 -0.5422 -0.5452
12521TIP3    H158978   7.311   4.842  12.994  0.5446  0.0227 -0.3398
12521TIP3    H258979   7.191   4.908  12.929  0.8922 -1.0538 -2.1090
12522TIP3   OH258980   6.680   7.109   2.214 -0.4506 -0.1630  0.1818
12522TIP3    H158981   6.646   7.067   2.293 -1.5691  1.2566  0.4741
12522TIP3    H258982   6.624   7.185   2.201  1.0099  0.7735 -0.8254
12523TIP3   OH258983   1.891   4.869  15.306  0.2089  0.4232 -0.0816
12523TIP3    H158984   1.928   4.889  15.392 -2.0564 -0.9610  1.2448
12523TIP3    H258985   1.931   4.786  15.281  1.1425  1.0063 -0.5394
12524TIP3   OH258986   5.579   6.083   2.523 -0.0532  0.0862 -0.0034
12524TIP3    H158987   5.518   6.118   2.589  1.1206 -1.9614  2.2739
12524TIP3    H258988   5.646   6.150   2.515  0.9836 -0.5723  2.6196
12525TIP3   OH258989   7.127   4.195  13.921  0.1860  0.8921 -0.3602
12525TIP3    H158990   7.072   4.227  13.992  0.4170 -2.9349  1.6716
12525TIP3    H258991   7.151   4.274  13.872 -2.3528  3.2929  2.0549
12526TIP3   OH258992   0.426   4.991   1.340  0.6195 -0.3451  0.0509
12526TIP3    H158993   0.349   4.997   1.397  2.2922 -1.5396  2.5143
12526TIP3    H258994   0.406   5.049   1.267 -1.6587  1.1568  1.7834
12527TIP3   OH258995   6.856   4.376   2.255 -0.2238 -0.1200  0.1959
12527TIP3    H158996   6.945   4.343   2.267  0.4678  1.9362  0.9436
12527TIP3    H258997   6.847   4.388   2.160  0.3817 -0.1372  0.1347
12528TIP3   OH258998   3.665   5.211   0.605  0.3859 -0.1085 -0.2977
12528TIP3    H158999   3.604   5.282   0.623  2.4062  1.3499  0.9283
12528TIP3    H259000   3.656   5.152   0.681 -0.8994 -0.9468 -1.0647
12529TIP3   OH259001   7.187   7.259   0.448 -0.7519 -0.1046  0.2678
12529TIP3    H159002   7.165   7.214   0.529  0.6760  0.1989  0.8407
12529TIP3    H259003   7.263   7.313   0.470  0.6856 -1.2752 -1.6865
12530TIP3   OH259004   5.494   3.929   1.773 -0.0944  0.1012 -0.3332
12530TIP3    H159005   5.492   3.942   1.679 -0.0692  2.4441 -0.0401
12530TIP3    H259006   5.411   3.886   1.794 -0.1458 -0.3315 -1.3938
12531TIP3   OH259007   4.908   7.037  15.916  0.1343 -0.1291  0.1296
12531TIP3    H159008   4.841   7.023  15.850  0.4972  0.2632 -0.3294
12531TIP3    H259009   4.867   7.095  15.980 -0.6655 -1.5823  0.9561
12532TIP3   OH259010   5.364   4.711   0.475 -0.5178  1.1623 -0.2499
12532TIP3    H159011   5.458   4.710   0.461 -0.5036  1.5020 -0.1805
12532TIP3    H259012   5.333   4.789   0.428 -0.9948  0.0840 -1.7760
12533TIP3   OH259013   6.092   3.874   0.880 -0.0982 -0.7828  0.3921
12533TIP3    H159014   6.075   3.925   0.960  0.4595  0.1628 -0.0822
12533TIP3    H259015   6.015   3.819   0.870 -1.1518  0.6412  0.4108
12534TIP3   OH259016   7.277   6.257   2.590 -0.4143 -0.0506  0.2275
12534TIP3    H159017   7.182   6.251   2.585 -0.3349 -0.9276 -0.2228
12534TIP3    H259018   7.294   6.351   2.597 -1.3238  0.0887  0.6889
12535TIP3   OH259019   5.393   3.254   3.060  0.4082 -0.3084  0.3702
12535TIP3    H159020   5.483   3.232   3.037 -0.2466 -1.2342 -1.4345
12535TIP3    H259021   5.386   3.234   3.154  2.6854  1.9305  1.0676
12536TIP3   OH259022   5.993   5.337   2.958  0.5371  0.0972  0.2093
12536TIP3    H159023   6.043   5.418   2.965 -0.5335  0.8638 -0.8579
12536TIP3    H259024   5.982   5.307   3.048  0.1543  1.6202  0.6767
12537TIP3   OH259025   0.902   5.642   0.772 -0.0748  0.4556  0.3186
12537TIP3    H159026   0.982   5.595   0.750 -0.2638  0.2954 -0.0353
12537TIP3    H259027   0.931   5.720   0.818  0.2249 -0.2214  1.3012
12538TIP3   OH259028   5.339   5.029   2.049  0.2597  0.4342 -0.5972
12538TIP3    H159029   5.299   5.047   1.964 -0.1546  1.7130 -0.1441
12538TIP3    H259030   5.275   5.059   2.113  0.5332 -0.6050  0.1787
12539TIP3   OH259031   4.933   3.062   0.155  0.1752  0.1637 -0.4487
12539TIP3    H159032   4.863   3.126   0.145 -0.4241 -0.5698 -1.0555
12539TIP3    H259033   4.926   3.006   0.078  0.7030 -0.6203  0.0590
12540TIP3   OH259034   7.286   4.214   1.183 -0.2641 -0.6927  0.8365
12540TIP3    H159035   7.194   4.191   1.194 -0.3616 -0.3973  0.6413
12540TIP3    H259036   7.334   4.147   1.231 -0.5819 -0.8543  0.9248
12541TIP3   OH259037   7.071   5.092   0.525  0.0230  0.1514 -0.3198
12541TIP3    H159038   7.127   5.156   0.481  0.8526  0.7401  1.5155
12541TIP3    H259039   7.121   5.068   0.604 -1.5282 -0.6631  0.4264
12542TIP3   OH259040   4.046   4.649   0.872  0.1132 -0.1805  0.1558
12542TIP3    H159041   3.996   4.709   0.927  1.9085  0.2736  1.3395
12542TIP3    H259042   4.026   4.676   0.782  0.5220  1.8658  0.6759
12543TIP3   OH259043   0.606   5.108  15.746 -0.1935  0.3855 -0.1062
12543TIP3    H159044   0.510   5.106  15.751 -0.2412  1.8901 -0.4098
12543TIP3    H259045   0.635   5.055  15.820 -1.2550  0.0997  0.1096
12544TIP3   OH259046   2.680   2.679   2.801 -0.1388 -0.2626 -0.8306
12544TIP3    H159047   2.678   2.667   2.706 -0.0565 -0.8971 -0.7526
12544TIP3    H259048   2.768   2.712   2.819  0.3831 -1.6048 -0.8119
12545TIP3   OH259049   0.024   6.239   2.110  0.4790 -0.5124  0.5437
12545TIP3    H159050  -0.017   6.321   2.083  0.4908 -0.5407  0.4416
12545TIP3    H259051   0.064   6.259   2.195  0.6600 -0.3548  0.4218
12546TIP3   OH259052   0.216   7.068   1.758  0.0866 -0.4175  0.4605
12546TIP3    H159053   0.129   7.043   1.727 -0.2284  0.4475  0.6401
12546TIP3    H259054   0.241   7.141   1.702 -0.5805  1.3028  2.3538
12547TIP3   OH259055   5.069   4.855   1.716 -0.3011  0.0424  0.0035
12547TIP3    H159056   5.074   4.806   1.799 -2.9077  1.9763  1.3754
12547TIP3    H259057   5.094   4.944   1.739 -0.7944  0.5372 -1.3445
12548TIP3   OH259058   6.229   5.423   3.772 -0.1901 -0.4834 -0.2061
12548TIP3    H159059   6.221   5.515   3.746  0.6556 -0.4527 -0.3724
12548TIP3    H259060   6.218   5.374   3.691 -0.3619 -0.5208 -0.1618
12549TIP3   OH259061   5.129   4.273   0.931 -0.2987 -0.3026  0.1184
12549TIP3    H159062   5.152   4.362   0.905  1.2813 -1.3050 -2.0678
12549TIP3    H259063   5.174   4.260   1.015  2.1300 -0.0812 -1.0923
12550TIP3   OH259064   0.060   5.693   0.022  0.0305  0.0186  0.5264
12550TIP3    H159065   0.132   5.630   0.013 -1.6016 -1.6925 -1.0167
12550TIP3    H259066   0.013   5.664   0.100 -1.2360 -1.2562 -0.6823
12551TIP3   OH259067   5.654   3.922  14.131  0.3557 -0.6856 -0.3553
12551TIP3    H159068   5.575   3.871  14.143  0.2173 -0.4616 -0.3011
12551TIP3    H259069   5.649   3.991  14.197  0.1451 -0.1289 -0.9477
12552TIP3   OH259070   2.428   3.795   3.901 -0.4995  0.7974 -0.1582
12552TIP3    H159071   2.337   3.814   3.924 -0.0770  1.6205  0.8693
12552TIP3    H259072   2.467   3.759   3.981  0.3488  1.3878 -0.2977
12553TIP3   OH259073   1.210   5.720   3.094  0.2718  0.0724 -0.2201
12553TIP3    H159074   1.279   5.718   3.160  0.7865 -0.1778 -0.7604
12553TIP3    H259075   1.129   5.708   3.143  0.5689  0.9611  0.4802
12554TIP3   OH259076   5.945   3.266   1.354 -0.7222 -0.0632  0.1622
12554TIP3    H159077   5.896   3.339   1.316  1.7486  1.1099 -0.9465
12554TIP3    H259078   5.930   3.193   1.293 -3.7511 -0.7286  1.6388
12555TIP3   OH259079   4.814   4.337   1.378 -0.3230  0.0579  0.3287
12555TIP3    H159080   4.907   4.336   1.356 -0.6846 -0.0602 -1.2599
12555TIP3    H259081   4.792   4.430   1.385 -0.7616  0.2038 -2.4047
12556TIP3   OH259082   5.852   3.382   1.111 -0.4554 -0.8901  0.3935
12556TIP3    H159083   5.849   3.340   1.025 -1.4700  0.5115 -0.2832
12556TIP3    H259084   5.944   3.404   1.123 -0.2944 -1.1491 -0.3100
12557TIP3   OH259085   5.972   3.651   0.640  0.2304  0.1226  0.1108
12557TIP3    H159086   5.964   3.702   0.720  0.3671 -0.0621  0.2435
12557TIP3    H259087   5.890   3.603   0.632  0.3493 -0.1162  0.3193
12558TIP3   OH259088   6.468   5.347  15.698  0.1836  0.0558 -0.0540
12558TIP3    H159089   6.389   5.297  15.676  0.6508 -0.8510  0.3244
12558TIP3    H259090   6.540   5.286  15.686  0.5550 -0.1180  2.7682
12559TIP3   OH259091   7.232   3.760   0.233 -0.5658 -0.1617 -1.0716
12559TIP3    H159092   7.327   3.760   0.247 -0.6762  1.0530 -0.3123
12559TIP3    H259093   7.223   3.747   0.139  0.3516 -0.2795 -1.1554
12560TIP3   OH259094   6.338   2.246  14.392 -0.2693  0.1510  0.3337
12560TIP3    H159095   6.264   2.186  14.380  0.7586 -1.0217 -0.2847
12560TIP3    H259096   6.405   2.193  14.436  2.1181 -0.3430 -3.6638
12561TIP3   OH259097   6.166   5.299  15.333  0.2912 -0.0511  0.1827
12561TIP3    H159098   6.201   5.278  15.419 -1.4479 -0.6493  0.7669
12561TIP3    H259099   6.088   5.243  15.324  0.9668 -0.7101 -2.1552
12562TIP3   OH259100   6.082   3.347   2.099  0.7087 -0.2545  0.7495
12562TIP3    H159101   5.987   3.353   2.095  0.6648 -0.1284  2.0678
12562TIP3    H259102   6.107   3.391   2.180  2.0961  2.1718 -0.9211
12563TIP3   OH259103   4.011   5.385   0.640  0.1736  0.2534  0.6611
12563TIP3    H159104   3.922   5.420   0.641  0.5529  1.2469  0.3769
12563TIP3    H259105   4.064   5.454   0.681  1.2098  0.7744 -1.4864
12564TIP3   OH259106   6.924   5.515  14.372  0.0665 -0.2762 -0.2028
12564TIP3    H159107   6.983   5.530  14.298 -1.2706  2.8225 -0.7078
12564TIP3    H259108   6.972   5.454  14.428  1.6059 -1.7741 -3.0113
12565TIP3   OH259109   3.318   3.150   0.773  0.5569 -0.4861  0.2070
12565TIP3    H159110   3.363   3.213   0.830  0.5057 -0.6400  0.4183
12565TIP3    H259111   3.256   3.105   0.831  0.6018 -0.7392  0.0590
12566TIP3   OH259112   5.153   4.186  14.609 -0.2681  0.4176  0.2736
12566TIP3    H159113   5.075   4.132  14.596  0.5284 -0.6245 -0.2847
12566TIP3    H259114   5.174   4.220  14.522  0.4302 -0.0622  0.2489
12567TIP3   OH259115   6.567   3.561   1.428 -0.1480  0.5107 -0.2629
12567TIP3    H159116   6.628   3.572   1.501  0.5758  1.6515 -1.0245
12567TIP3    H259117   6.507   3.634   1.436 -0.3048  0.4158 -0.5819
12568TIP3   OH259118   0.193   3.517   1.126  0.5587 -0.0311 -0.1442
12568TIP3    H159119   0.140   3.482   1.055  3.0772 -0.8729 -1.6761
12568TIP3    H259120   0.180   3.455   1.198 -1.5218  0.4849 -0.0617
12569TIP3   OH259121   1.340   4.566   3.405 -0.1501  0.1619  0.1000
12569TIP3    H159122   1.277   4.592   3.338 -0.0199 -0.0948 -0.1224
12569TIP3    H259123   1.286   4.528   3.475 -0.2545  0.0745 -0.0271
12570TIP3   OH259124   0.621   3.620   0.599  0.1153 -0.0096 -0.4685
12570TIP3    H159125   0.671   3.539   0.586  2.1997  1.4955 -2.1732
12570TIP3    H259126   0.649   3.652   0.684  1.0880  0.1275 -0.8300
12571TIP3   OH259127   6.257   5.242   1.399  0.6769 -0.1610  0.1418
12571TIP3    H159128   6.267   5.293   1.319 -1.1990 -0.3518 -0.2391
12571TIP3    H259129   6.180   5.279   1.442 -1.5674 -3.4903 -0.8120
12572TIP3   OH259130   5.102   3.253  15.446 -0.3737  0.0971 -0.1930
12572TIP3    H159131   5.090   3.229  15.354 -2.5282 -0.9327  0.3305
12572TIP3    H259132   5.077   3.345  15.450 -0.2648  0.1472 -0.6415
12573TIP3   OH259133   2.882   5.410  15.562 -0.2203  0.0774 -0.6776
12573TIP3    H159134   2.929   5.328  15.542  2.3750  1.0713  1.1076
12573TIP3    H259135   2.830   5.390  15.640  1.0753  0.3304  0.2707
12574TIP3   OH259136   5.810   6.059   0.135  0.2609  0.0078  0.6197
12574TIP3    H159137   5.783   6.151   0.132  0.9280  0.2024  0.5956
12574TIP3    H259138   5.876   6.056   0.204 -0.3448 -0.6070  1.1654
12575TIP3   OH259139   1.440   4.297   2.054  0.2904 -0.1603 -0.4735
12575TIP3    H159140   1.411   4.269   2.141 -2.0235 -2.1517 -1.8018
12575TIP3    H259141   1.383   4.372   2.033  1.6140  1.0428  0.1563
12576TIP3   OH259142   7.295   2.719   1.540 -0.3765  0.4011 -0.5420
12576TIP3    H159143   7.349   2.742   1.464  0.6671  0.9754  0.3507
12576TIP3    H259144   7.291   2.799   1.591 -2.3571  0.4436 -0.7323
12577TIP3   OH259145   6.215   3.154   0.658  0.0479 -0.3217 -0.0754
12577TIP3    H159146   6.221   3.226   0.596 -1.0177 -1.5502 -1.6626
12577TIP3    H259147   6.267   3.182   0.733 -0.2664  2.0293 -0.7064
12578TIP3   OH259148   3.970   5.410  15.907 -0.3080 -0.0603  0.5515
12578TIP3    H159149   3.912   5.383  15.836  0.9750 -1.2213 -0.0860
12578TIP3    H259150   3.949   5.502  15.922 -0.3624  0.3054 -1.5894
12579TIP3   OH259151   4.210   4.539   0.341 -0.4096 -0.3353  0.0158
12579TIP3    H159152   4.162   4.462   0.371 -0.6951  0.3213  1.2597
12579TIP3    H259153   4.238   4.584   0.421  1.6753 -0.3200 -0.6873
12580TIP3   OH259154   5.525   4.436   0.360 -0.4594  0.6381 -0.1618
12580TIP3    H159155   5.433   4.423   0.339 -0.2809 -0.8995 -0.0598
12580TIP3    H259156   5.541   4.529   0.343 -1.4233  0.3949 -2.4950
12581TIP3   OH259157   4.647   6.490  13.864  0.5243  0.3234 -0.0272
12581TIP3    H159158   4.625   6.487  13.957  1.2361  0.8285  0.1588
12581TIP3    H259159   4.661   6.583  13.846 -2.4350  0.5598 -1.3030
12582TIP3   OH259160   6.707   5.070   2.975  0.5140 -0.4962  0.1302
12582TIP3    H159161   6.652   4.992   2.980  0.3787 -0.3688  0.6131
12582TIP3    H259162   6.659   5.137   3.024  1.5292 -0.6371  1.3348
12583TIP3   OH259163   5.934   5.030   1.849 -0.2992  0.4354  0.9631
12583TIP3    H159164   5.993   4.989   1.912 -1.0915 -2.2224  0.0369
12583TIP3    H259165   5.977   5.017   1.764 -0.6588  1.3910  0.6286
12584TIP3   OH259166   0.967   5.026  14.237  0.0255  0.0992 -0.3915
12584TIP3    H159167   1.004   5.114  14.232 -0.8198  0.6307  2.0411
12584TIP3    H259168   0.944   5.004  14.146  1.4870  1.8299 -1.2016
12585TIP3   OH259169   6.946   5.161   1.764 -0.6883 -0.0773 -0.6941
12585TIP3    H159170   6.995   5.233   1.724 -1.0989  0.5940  0.0166
12585TIP3    H259171   6.873   5.146   1.703 -1.2757  0.9017 -0.2478
12586TIP3   OH259172   4.971   5.516  15.024  0.0862 -0.1682 -0.3559
12586TIP3    H159173   5.014   5.444  15.069  1.3808  0.4531 -0.5829
12586TIP3    H259174   4.878   5.502  15.041  0.5048 -0.1758  2.1782
12587TIP3   OH259175   5.170   3.850   0.026  0.0732 -0.1385 -0.4229
12587TIP3    H159176   5.112   3.903  -0.028 -1.4190  1.7877  2.9317
12587TIP3    H259177   5.122   3.768   0.040  0.2055 -0.3998 -1.4638
12588TIP3   OH259178   0.012   5.113   1.757 -0.2975 -0.0889  0.1559
12588TIP3    H159179   0.032   5.203   1.731 -0.7986 -0.4765 -1.6716
12588TIP3    H259180  -0.058   5.086   1.697 -1.7542 -0.9390  2.1758
12589TIP3   OH259181   0.044   4.874  15.674  0.0945 -0.2177  0.3447
12589TIP3    H159182   0.010   4.825  15.599  2.6381  0.9073 -1.6247
12589TIP3    H259183   0.021   4.965  15.656  1.5256  0.1734  0.4528
12590TIP3   OH259184   3.086   5.750   2.026 -0.2369  0.3073  0.4102
12590TIP3    H159185   3.150   5.779   1.961 -0.2543  2.1907  1.2037
12590TIP3    H259186   3.002   5.750   1.979 -0.0642  0.4804  0.1002
12591TIP3   OH259187   6.729   4.310   1.679  0.6191 -0.1513 -0.3368
12591TIP3    H159188   6.638   4.292   1.656  0.2865 -0.7312  1.3803
12591TIP3    H259189   6.780   4.253   1.621 -0.0943  0.3413 -1.4583
12592TIP3   OH259190   6.194   4.619   0.559 -0.0659 -0.1755 -0.3201
12592TIP3    H159191   6.275   4.578   0.588 -0.0900  0.2281  0.3197
12592TIP3    H259192   6.158   4.558   0.495  0.3586 -0.7176 -0.0443
12593TIP3   OH259193   4.270   4.629   2.111 -0.2692  0.2084 -0.2871
12593TIP3    H159194   4.321   4.654   2.034 -1.0757 -1.5632 -1.4071
12593TIP3    H259195   4.193   4.584   2.076 -0.6498 -0.6049  1.5532
12594TIP3   OH259196   0.445   5.851  15.780 -0.3414  0.3050 -0.1901
12594TIP3    H159197   0.538   5.830  15.776 -0.0895  1.6384 -2.7959
12594TIP3    H259198   0.401   5.776  15.739 -0.3692 -0.1093  0.5998
12595TIP3   OH259199   5.119   4.977  15.930 -0.0504 -0.0207 -0.1399
12595TIP3    H159200   5.126   5.071  15.915  0.0082 -0.0103 -0.0490
12595TIP3    H259201   5.144   4.965  16.021  1.1267 -0.2613 -0.4796
12596TIP3   OH259202   5.217   2.103   0.565 -0.5649  0.8375  0.3133
12596TIP3    H159203   5.214   2.031   0.502  2.6479  0.2428  0.7855
12596TIP3    H259204   5.155   2.079   0.633  0.0739 -1.2182  0.1855
12597TIP3   OH259205   5.174   3.056  15.621  0.2434  0.5140 -0.5322
12597TIP3    H159206   5.108   2.987  15.608 -1.6211  1.8292  1.5501
12597TIP3    H259207   5.141   3.131  15.572  0.6047  0.9180 -0.1637
12598TIP3   OH259208   6.904   4.498   0.649 -0.1217  0.6294 -0.2001
12598TIP3    H159209   6.956   4.424   0.616  0.0520  1.2944 -1.4393
12598TIP3    H259210   6.907   4.563   0.579  1.1222  2.5229  1.5342
12599TIP3   OH259211   5.903   2.779   1.045  0.1943 -0.2763  0.0631
12599TIP3    H159212   5.897   2.871   1.019  0.2117 -0.0425  0.8763
12599TIP3    H259213   5.925   2.733   0.964 -2.0803  0.1391 -0.8432
12600TIP3   OH259214   5.930   4.507   1.004 -0.7577  0.1054  0.4259
12600TIP3    H159215   5.931   4.554   0.920 -1.4105 -3.4402 -1.6758
12600TIP3    H259216   6.022   4.502   1.030 -0.3879 -0.0538 -0.8625
12601TIP3   OH259217   1.078   4.329   0.316  0.4494 -0.2988  0.4984
12601TIP3    H159218   1.073   4.304   0.223  1.7153  0.6389  0.1548
12601TIP3    H259219   1.002   4.384   0.331 -0.1047 -0.9725  0.1833
12602TIP3   OH259220   6.079   7.122   1.945 -0.7619  0.3216 -0.2573
12602TIP3    H159221   6.032   7.145   1.865 -2.6668 -0.7011  0.5415
12602TIP3    H259222   6.022   7.151   2.016 -0.6548 -1.8114  0.7340
12603TIP3   OH259223   5.586   5.168  14.971  0.0718  0.6243 -0.2715
12603TIP3    H159224   5.611   5.247  15.019  2.8756  0.6889 -1.7318
12603TIP3    H259225   5.650   5.102  14.998 -0.4350 -0.3051 -1.3082
12604TIP3   OH259226   0.083   4.878   2.626  0.2332 -0.2289  0.1578
12604TIP3    H159227   0.099   4.954   2.683  1.5295 -1.0683  0.9535
12604TIP3    H259228   0.013   4.906   2.567  2.2810  2.4129 -1.1298
12605TIP3   OH259229   0.210   2.679   0.655  0.2513  0.0872  0.1132
12605TIP3    H159230   0.197   2.600   0.603 -0.0547 -0.8187  1.5337
12605TIP3    H259231   0.156   2.666   0.733  2.5056  0.3453  1.7919
12606TIP3   OH259232   5.190   0.393   0.712  0.4055  0.1047  0.1512
12606TIP3    H159233   5.180   0.300   0.692  1.0139  0.2547 -0.8603
12606TIP3    H259234   5.157   0.401   0.802 -1.0657 -0.8064 -0.2829
12607TIP3   OH259235   0.122   4.510   0.300 -0.9874  0.0338  0.4808
12607TIP3    H159236   0.180   4.475   0.232 -1.1540 -0.0405  0.3771
12607TIP3    H259237   0.053   4.445   0.309 -2.4290  1.2851 -1.1574
12608TIP3   OH259238   0.862   4.487   1.852 -0.2130  0.7283  0.4389
12608TIP3    H159239   0.913   4.409   1.873  0.8708  0.6644 -2.1617
12608TIP3    H259240   0.793   4.456   1.794 -0.8840  1.4359  0.8379
12609TIP3   OH259241   4.703   3.951   1.897  0.8548 -0.0300 -0.5635
12609TIP3    H159242   4.721   3.860   1.873  0.9191 -0.2033  0.1330
12609TIP3    H259243   4.753   3.965   1.977 -1.3556 -0.2376  0.8763
12610TIP3   OH259244   6.865   3.447  15.175  0.3262 -0.0299  0.2097
12610TIP3    H159245   6.889   3.538  15.159 -1.1666  0.2791 -0.3509
12610TIP3    H259246   6.858   3.408  15.088 -1.8680  0.0831  0.2909
12611TIP3   OH259247   5.493   6.451   1.981 -0.6530 -0.1313 -0.4144
12611TIP3    H159248   5.527   6.437   2.069 -0.8271 -0.3760 -0.3890
12611TIP3    H259249   5.405   6.486   1.993 -1.0540 -1.0944 -0.5003
12612TIP3   OH259250   0.792   6.556   1.702  0.7818 -0.4716  0.3832
12612TIP3    H159251   0.761   6.491   1.638 -1.1181 -0.3166  1.1102
12612TIP3    H259252   0.823   6.628   1.648 -0.7586 -0.3632 -0.3979
12613TIP3   OH259253   5.746   4.275   1.103 -0.4406 -0.2680 -0.1822
12613TIP3    H159254   5.821   4.334   1.105 -1.9890  1.7863  0.0100
12613TIP3    H259255   5.755   4.222   1.183  0.9806 -0.3079 -0.3591
12614TIP3   OH259256   0.958   6.165   1.756 -0.3953  0.1368 -0.0019
12614TIP3    H159257   0.921   6.238   1.806  0.1004 -0.0667  0.6750
12614TIP3    H259258   1.025   6.128   1.814 -0.1855 -0.4415 -0.6066
12615TIP3   OH259259   0.610   5.035   0.242  0.1438 -0.4296 -0.3771
12615TIP3    H159260   0.537   4.983   0.276  0.1475 -0.1283  0.0912
12615TIP3    H259261   0.677   5.030   0.309  0.7340 -1.0605 -0.9964
12616TIP3   OH259262   4.565   6.235   1.419  0.3351  0.7495 -0.3453
12616TIP3    H159263   4.516   6.161   1.453 -0.1885  0.1749 -2.2921
12616TIP3    H259264   4.610   6.271   1.495 -0.7227 -0.5448  0.9164
12617TIP3   OH259265   1.207   3.779   0.190  0.4224  0.0620 -0.2787
12617TIP3    H159266   1.130   3.724   0.178  1.2159 -0.9490 -0.7611
12617TIP3    H259267   1.246   3.749   0.272  0.5294  0.3014 -0.2404
12618TIP3   OH259268   1.404   3.164   2.192  0.5956 -0.0914 -0.3418
12618TIP3    H159269   1.351   3.113   2.254  0.6186 -0.8437 -0.9246
12618TIP3    H259270   1.341   3.192   2.125  0.2832  1.9687  0.7605
12619TIP3   OH259271   1.619   4.885   3.342  0.1245 -0.2189 -0.0628
12619TIP3    H159272   1.556   4.845   3.283 -1.6238 -0.1032  1.6753
12619TIP3    H259273   1.621   4.828   3.419  2.1422 -0.2156 -0.0730
12620TIP3   OH259274   0.554   6.883   0.372 -0.4868 -0.1783 -0.4363
12620TIP3    H159275   0.484   6.820   0.356 -2.1300  1.3555  0.5217
12620TIP3    H259276   0.573   6.874   0.465 -1.2542  1.2290 -0.1260
12621TIP3   OH259277   5.265   5.021  15.552 -0.3590  0.0280  0.6019
12621TIP3    H159278   5.265   4.966  15.474  0.9872 -0.7814  1.1451
12621TIP3    H259279   5.271   4.959  15.625  0.4183  0.8447  1.2478
12622TIP3   OH259280   6.936   4.000   1.339  0.5880  0.3952  0.6716
12622TIP3    H159281   6.908   3.915   1.374  2.6589 -0.7255 -0.3490
12622TIP3    H259282   6.923   4.061   1.412  2.2399 -1.4124  2.5400
12623TIP3   OH259283   7.118   5.767   1.671  0.0577  0.1196 -0.0783
12623TIP3    H159284   7.161   5.818   1.739 -0.2920 -1.4187  1.3091
12623TIP3    H259285   7.189   5.718   1.629  0.1580  0.4644 -0.3197
12624TIP3   OH259286   0.189   3.459   2.056 -0.3522  0.3102  0.7911
12624TIP3    H159287   0.114   3.512   2.082  0.9432  2.4558  0.2117
12624TIP3    H259288   0.259   3.522   2.040  1.2374 -1.5784  0.1480
12625TIP3   OH259289   5.805   5.454   3.724  0.2306 -0.5410  1.2779
12625TIP3    H159290   5.787   5.371   3.680  0.7321 -0.5993  1.1842
12625TIP3    H259291   5.728   5.508   3.704  0.4081 -0.5999  0.4140
12626TIP3   OH259292   5.772   3.603   1.713  0.4440  0.2586 -0.2738
12626TIP3    H159293   5.796   3.536   1.650  1.6830  0.4044  0.0354
12626TIP3    H259294   5.685   3.632   1.685 -0.6290 -2.2881  0.2842
12627TIP3   OH259295   5.981   4.672   1.691 -0.2869  0.0703  0.4369
12627TIP3    H159296   5.964   4.581   1.714 -0.2703 -0.0304  0.0547
12627TIP3    H259297   5.971   4.720   1.773  0.5617 -0.3886  0.8093
12628TIP3   OH259298   6.706   0.939   0.929 -0.2915 -0.0503 -0.0550
12628TIP3    H159299   6.796   0.959   0.905  0.0286 -1.1350  0.2311
12628TIP3    H259300   6.656   1.016   0.900  0.7246  0.5873 -0.1401
12629TIP3   OH259301   6.858   3.402   1.324  0.1361 -0.3265 -0.1186
12629TIP3    H159302   6.822   3.368   1.242 -1.9390  1.0361  0.2137
12629TIP3    H259303   6.857   3.497   1.313 -0.0931 -0.1384  1.4874
12630TIP3   OH259304   3.723   6.333   1.963 -0.3154 -0.9992  0.5142
12630TIP3    H159305   3.634   6.362   1.946 -0.2313 -0.7099  0.5760
12630TIP3    H259306   3.715   6.239   1.979 -0.5409 -1.0720 -0.0065
12631TIP3   OH259307   4.789   6.064   1.971  0.2426  0.1121  0.2850
12631TIP3    H159308   4.761   6.133   2.032  2.0754 -0.1088  1.4233
12631TIP3    H259309   4.810   5.990   2.028 -2.2613 -1.6216 -0.9626
12632TIP3   OH259310   5.544   5.561   1.845  0.7552 -0.1538  0.5055
12632TIP3    H159311   5.586   5.510   1.914  0.9112 -1.7088 -0.7101
12632TIP3    H259312   5.461   5.517   1.829  0.7391  0.1732 -0.3378
12633TIP3   OH259313   0.353   1.019   1.399 -0.0495 -0.0778 -0.1793
12633TIP3    H159314   0.351   0.924   1.414  2.0676 -0.4300 -1.8188
12633TIP3    H259315   0.329   1.057   1.483 -0.0711 -2.0636  0.7474
12634TIP3   OH259316   7.225   5.759   3.358  0.2673  0.3391  0.0398
12634TIP3    H159317   7.186   5.742   3.272 -1.4771 -1.4948  1.1665
12634TIP3    H259318   7.291   5.691   3.368  0.7156  0.7689  0.0031
12635TIP3   OH259319   1.176   5.651   0.262 -0.0327  0.1648  0.6076
12635TIP3    H159320   1.193   5.705   0.340  3.3344 -1.8662  1.3686
12635TIP3    H259321   1.136   5.572   0.296 -1.3599  0.5310 -0.0848
12636TIP3   OH259322   1.136   6.621   3.004  0.1443 -0.1736  0.5472
12636TIP3    H159323   1.097   6.644   2.920 -0.6420  0.1750  1.0045
12636TIP3    H259324   1.225   6.593   2.983  0.1773  0.5885 -0.3167
12637TIP3   OH259325   4.948   3.108   2.928  0.3361  0.3707  0.2577
12637TIP3    H159326   4.951   3.173   2.999 -1.0917  3.2485 -2.1976
12637TIP3    H259327   5.034   3.113   2.887  0.3781  0.3949  0.3492
12638TIP3   OH259328   6.201   4.476  14.527 -0.9684  0.1059  0.2322
12638TIP3    H159329   6.119   4.460  14.480 -1.1971 -1.1723  1.0539
12638TIP3    H259330   6.174   4.486  14.618 -0.3028  0.6046  0.3771
12639TIP3   OH259331   5.691   5.404  14.091 -0.7742  0.2720 -0.0135
12639TIP3    H159332   5.631   5.479  14.092 -1.5783 -0.3821  1.0069
12639TIP3    H259333   5.641   5.334  14.050 -0.7036 -0.2753  0.8292
12640TIP3   OH259334   4.387   6.257   0.608 -0.5563 -0.3666  0.2326
12640TIP3    H159335   4.294   6.267   0.631 -0.0141  0.6084  2.0923
12640TIP3    H259336   4.430   6.240   0.691  0.9912 -0.4781 -0.5821
12641TIP3   OH259337   4.433   4.789   1.018  0.3747  0.2843  0.5502
12641TIP3    H159338   4.384   4.710   0.994 -0.6432  1.2067 -0.4395
12641TIP3    H259339   4.366   4.852   1.044  0.9034  1.9191 -1.8493
12642TIP3   OH259340   1.804   4.212   1.637  0.1953 -0.1184 -0.0355
12642TIP3    H159341   1.718   4.233   1.675  0.2932  1.4297 -0.6426
12642TIP3    H259342   1.860   4.196   1.713  0.2547  2.4349  0.4954
12643TIP3   OH259343   5.312   3.705   0.546  1.1972 -0.0762 -0.0478
12643TIP3    H159344   5.257   3.745   0.613  0.8184 -0.6926  0.0157
12643TIP3    H259345   5.309   3.611   0.566  2.5511 -0.0881  0.1714
12644TIP3   OH259346   6.120   3.348   0.479  0.2701 -0.1063  0.1842
12644TIP3    H159347   6.121   3.307   0.393 -0.7752  1.9527 -0.8219
12644TIP3    H259348   6.030   3.335   0.511 -0.0915  1.4390 -0.1760
12645TIP3   OH259349   6.061   4.430  15.370 -0.4653 -0.3069 -0.1369
12645TIP3    H159350   6.127   4.369  15.402 -0.1681 -0.0460 -0.2504
12645TIP3    H259351   6.087   4.515  15.405 -1.2733 -0.3635  0.5982
12646TIP3   OH259352   6.497   4.718   1.900 -0.0109  0.0906  0.2143
12646TIP3    H159353   6.545   4.691   1.822  0.8528  1.7921  0.1377
12646TIP3    H259354   6.412   4.747   1.867 -1.1373 -2.8749  0.3462
12647TIP3   OH259355   4.342   5.156   1.308  0.2288  0.1397  0.2133
12647TIP3    H159356   4.314   5.110   1.387 -0.8440 -1.1965 -0.9061
12647TIP3    H259357   4.320   5.248   1.323 -0.7271 -0.2387  1.1255
12648TIP3   OH259358   5.638   3.570   1.035 -0.5004  0.5109  0.6791
12648TIP3    H159359   5.665   3.622   1.110  0.0403  0.0790  0.7839
12648TIP3    H259360   5.688   3.489   1.042  0.1156  0.7760 -0.5581
12649TIP3   OH259361   2.796   4.852   3.502 -0.3194 -0.1827 -0.3671
12649TIP3    H159362   2.830   4.879   3.587  0.6778 -0.2042 -0.7534
12649TIP3    H259363   2.838   4.910   3.439 -1.1263 -0.1064 -0.8376
12650TIP3   OH259364   5.498   4.377   1.099  0.7672  0.0781  0.1629
12650TIP3    H159365   5.584   4.335   1.107  1.3426  1.4812  1.6808
12650TIP3    H259366   5.510   4.444   1.031  0.8329  0.1414  0.2361
12651TIP3   OH259367   0.729   3.979   2.385 -0.3880 -0.2919  0.2940
12651TIP3    H159368   0.727   4.071   2.358  0.0796 -0.1628  0.6894
12651TIP3    H259369   0.667   3.936   2.327  2.2411 -0.4325 -2.5532
12652TIP3   OH259370   4.603   5.515  14.836 -0.4403  0.4458  0.4293
12652TIP3    H159371   4.595   5.472  14.750  3.1123 -1.6748  1.0323
12652TIP3    H259372   4.599   5.609  14.816 -2.5411 -0.0293 -1.6570
12653TIP3   OH259373   6.834   5.640  14.971 -0.0199 -0.8542  0.0117
12653TIP3    H159374   6.769   5.577  15.004 -0.5227 -1.7778 -2.6011
12653TIP3    H259375   6.888   5.589  14.911  1.2442  0.6298 -0.1286
12654TIP3   OH259376   4.935   6.249   2.297  0.2893 -0.5262  0.5188
12654TIP3    H159377   5.004   6.187   2.271 -0.3986 -1.7144  1.4863
12654TIP3    H259378   4.883   6.261   2.217 -0.5425 -2.4919  0.7316
12655TIP3   OH259379   0.789   4.073   1.714 -0.5495  0.3901  0.9765
12655TIP3    H159380   0.729   4.025   1.658  1.1347 -0.2739 -0.3189
12655TIP3    H259381   0.817   4.009   1.780  0.9073 -0.1797 -0.1430
12656TIP3   OH259382   5.584   2.318   0.940 -0.1160 -0.0655 -0.2940
12656TIP3    H159383   5.501   2.289   0.902 -0.4144 -0.1624  0.4178
12656TIP3    H259384   5.559   2.378   1.010  0.4947  1.9678 -1.7682
12657TIP3   OH259385   7.032   6.133   1.115 -0.0249  0.2692  0.4759
12657TIP3    H159386   7.125   6.112   1.126 -0.4319 -1.6785  0.2999
12657TIP3    H259387   6.989   6.048   1.109 -1.8015  1.1678  0.3352
12658TIP3   OH259388   6.818   7.262   3.582 -0.7692  0.4472 -1.0626
12658TIP3    H159389   6.828   7.350   3.618 -1.8719  0.0483  0.2779
12658TIP3    H259390   6.725   7.256   3.560 -0.8660 -0.6257 -0.4255
12659TIP3   OH259391   3.048   6.204   1.529  0.3212 -0.3375 -0.0959
12659TIP3    H159392   2.962   6.235   1.559 -0.0565  0.5585 -2.0301
12659TIP3    H259393   3.110   6.267   1.567 -0.2231  1.2905 -1.8221
12660TIP3   OH259394   4.795   4.528   2.222  0.3804  0.6230 -0.0023
12660TIP3    H159395   4.809   4.602   2.281  2.5056 -0.9967  1.6247
12660TIP3    H259396   4.703   4.535   2.195 -0.2516  2.1992  2.4105
12661TIP3   OH259397   1.511   3.713   2.291 -0.8326  0.4224  0.2055
12661TIP3    H159398   1.454   3.637   2.301 -2.0191  1.3102  0.1995
12661TIP3    H259399   1.571   3.688   2.221 -2.5851  0.3145 -1.2739
12662TIP3   OH259400   6.875   5.585   0.424  0.4838 -0.3199 -0.7613
12662TIP3    H159401   6.828   5.501   0.431  0.1102 -0.1243 -0.9414
12662TIP3    H259402   6.908   5.600   0.513  0.5505 -0.6571 -0.7266
12663TIP3   OH259403   6.330   5.815   2.792 -0.5990  0.0318 -0.3794
12663TIP3    H159404   6.312   5.809   2.698 -0.4740 -0.2327 -0.3838
12663TIP3    H259405   6.363   5.904   2.804  1.0456 -0.5025 -0.8576
12664TIP3   OH259406   3.838   5.407   0.239 -0.1381 -0.0768 -0.1480
12664TIP3    H159407   3.756   5.450   0.214 -0.0106 -0.9805 -2.2511
12664TIP3    H259408   3.811   5.325   0.280 -0.3134 -0.5974 -1.2695
12665TIP3   OH259409   5.965   5.586   1.300  0.2412 -0.1781 -0.0816
12665TIP3    H159410   5.914   5.536   1.363  1.9507 -0.9843  0.6910
12665TIP3    H259411   5.941   5.549   1.215  1.8589 -2.7209  0.5038
12666TIP3   OH259412   5.419   4.425  15.669  0.2769  0.4765  0.1549
12666TIP3    H159413   5.436   4.380  15.587  0.8259  1.5029 -0.3112
12666TIP3    H259414   5.370   4.362  15.722  2.0565 -1.1028 -0.0095
12667TIP3   OH259415   6.010   4.278   2.479 -0.7470  0.1962  0.2731
12667TIP3    H159416   6.004   4.354   2.537 -1.3853  1.8594 -1.8945
12667TIP3    H259417   6.103   4.258   2.474 -0.4021  1.9274 -0.4850
12668TIP3   OH259418   0.814   3.938   1.341 -0.6658  0.0929 -0.6082
12668TIP3    H159419   0.726   3.976   1.349 -0.2146  1.2929 -1.1666
12668TIP3    H259420   0.845   3.968   1.256  0.6036  0.3735 -0.0602
12669TIP3   OH259421   4.947   5.112  13.530  0.2763 -0.3805 -0.2485
12669TIP3    H159422   4.963   5.042  13.467  0.5542  0.8013 -1.4990
12669TIP3    H259423   4.986   5.190  13.491 -1.7267  0.8955  0.2119
12670TIP3   OH259424   0.424   2.241   0.886  0.1487  0.2389 -0.2681
12670TIP3    H159425   0.353   2.247   0.823 -0.2607  0.4724  0.2161
12670TIP3    H259426   0.460   2.152   0.874  0.0545  0.2733 -0.8018
12671TIP3   OH259427   1.905   4.696   1.464  0.0199 -0.4091 -0.1790
12671TIP3    H159428   1.826   4.746   1.481  0.1370  0.8600 -2.9881
12671TIP3    H259429   1.874   4.608   1.441 -0.3638 -0.8033  1.8060
12672TIP3   OH259430   7.156   2.533   1.696  0.2825 -0.2550  0.6243
12672TIP3    H159431   7.215   2.557   1.625  0.9030  0.9718  1.5376
12672TIP3    H259432   7.163   2.605   1.759 -0.5838 -1.1080  1.7294
12673TIP3   OH259433   7.093   3.809   1.614 -0.5965  0.4423  0.3277
12673TIP3    H159434   7.186   3.788   1.626 -0.3053  1.5703  0.1154
12673TIP3    H259435   7.070   3.860   1.691 -1.1681 -0.2384  0.6065
12674TIP3   OH259436   5.807   5.771   0.967  0.6690 -0.4097 -0.3126
12674TIP3    H159437   5.796   5.834   1.037 -2.0359  0.1514 -1.1793
12674TIP3    H259438   5.830   5.824   0.890 -0.0282 -0.6271 -0.6769
12675TIP3   OH259439   6.366   3.867   0.495 -0.5184 -0.6255 -0.5675
12675TIP3    H159440   6.299   3.801   0.515 -2.0497  1.2473  0.6441
12675TIP3    H259441   6.348   3.939   0.555  2.7705 -0.1679 -0.0560
12676TIP3   OH259442   7.159   3.517   0.385 -0.0120  0.6530  0.3429
12676TIP3    H159443   7.203   3.449   0.334  0.5903  0.6331  0.8937
12676TIP3    H259444   7.149   3.590   0.323  0.1441  0.3944  0.0094
12677TIP3   OH259445   5.616   4.692   0.408  0.2688 -0.4109  0.2362
12677TIP3    H159446   5.682   4.666   0.473  1.5588  1.0102 -0.4728
12677TIP3    H259447   5.659   4.760   0.356 -2.2278  1.5637  0.6390
12678TIP3   OH259448   4.886   3.953   2.098  0.6736  0.2072 -0.1198
12678TIP3    H159449   4.948   3.987   2.034  0.4741 -0.5047 -0.7066
12678TIP3    H259450   4.907   3.998   2.179  1.2366  0.7754 -0.5803
12679TIP3   OH259451   4.842   4.060   1.474 -0.3653 -0.8869 -0.0554
12679TIP3    H159452   4.845   4.155   1.459 -2.7656 -1.0452 -1.8673
12679TIP3    H259453   4.926   4.040   1.516  0.1236  2.0458  0.5058
12680TIP3   OH259454   5.851   5.077  15.311  0.0384 -0.1415  0.0056
12680TIP3    H159455   5.786   5.009  15.328  2.3389 -1.3593  4.4577
12680TIP3    H259456   5.827   5.149  15.370 -0.1922  1.5156 -2.0210
12681TIP3   OH259457   0.204   5.126   0.413 -0.4802 -0.0805 -0.0246
12681TIP3    H159458   0.127   5.184   0.408  0.0416  0.5142 -1.8237
12681TIP3    H259459   0.258   5.164   0.482 -0.9551  0.5639  0.0050
12682TIP3   OH259460   2.394   5.510   2.401 -0.1042 -0.2508 -0.5826
12682TIP3    H159461   2.475   5.538   2.443  1.0688  0.5098 -3.2180
12682TIP3    H259462   2.338   5.587   2.402 -1.0449 -0.9096  1.6712
12683TIP3   OH259463   2.399   2.260   1.160  0.4271 -0.2597  0.3193
12683TIP3    H159464   2.466   2.292   1.220  0.9213 -0.3968 -0.1565
12683TIP3    H259465   2.330   2.327   1.162  1.1625  0.5245 -0.1818
12684TIP3   OH259466   0.846   0.219  15.978  0.1340  0.3011  0.1425
12684TIP3    H159467   0.941   0.208  15.977  0.0439 -0.5653  0.2118
12684TIP3    H259468   0.812   0.131  15.994 -0.6502  0.8449  1.5497
12685TIP3   OH259469   0.113   6.484   1.173 -0.4697 -0.2841 -0.2155
12685TIP3    H159470   0.179   6.538   1.217 -2.2953  1.7043  0.1788
12685TIP3    H259471   0.153   6.461   1.090  0.5275  1.3381 -0.2082
12686TIP3   OH259472   4.060   7.105   1.167 -0.9289 -0.2206  0.3986
12686TIP3    H159473   4.097   7.022   1.139 -1.6585 -0.5756  0.4721
12686TIP3    H259474   3.973   7.108   1.125 -1.0475  0.3452  0.6732
12687TIP3   OH259475   2.558   4.697   0.046  0.7719  0.6165 -0.4096
12687TIP3    H159476   2.601   4.631   0.100 -1.8233 -1.0034 -0.2260
12687TIP3    H259477   2.540   4.653  -0.037  0.0547  1.4552 -0.7126
12688TIP3   OH259478   1.618   6.663   0.763  0.2083  0.0927  0.0978
12688TIP3    H159479   1.676   6.712   0.820 -0.7796  0.7294  0.5690
12688TIP3    H259480   1.632   6.701   0.676 -0.8215  1.5065  0.5202
12689TIP3   OH259481   0.608   5.909   0.093 -0.2830 -0.0537  0.3754
12689TIP3    H159482   0.524   5.907   0.049  0.6714 -1.3322 -1.4370
12689TIP3    H259483   0.659   5.975   0.046  0.0543  0.0098  0.8242
12690TIP3   OH259484   0.278   7.046   1.406  0.3379  0.1109 -0.0516
12690TIP3    H159485   0.249   7.092   1.484  1.6650 -0.8503  1.0378
12690TIP3    H259486   0.370   7.069   1.397 -0.4548  2.3832 -2.9286
12691TIP3   OH259487   1.855   0.791   1.685  0.2375 -0.0805 -0.1021
12691TIP3    H159488   1.786   0.797   1.751  0.4005 -1.1108  0.1805
12691TIP3    H259489   1.925   0.742   1.729  0.8823  0.3923 -0.6022
12692TIP3   OH259490   1.175   6.959  15.927  0.0509  0.3322  0.6024
12692TIP3    H159491   1.176   6.891  15.859  1.9415  0.9692 -0.0399
12692TIP3    H259492   1.083   6.969  15.950 -0.6541  0.2956 -2.0687
12693TIP3   OH259493   2.514   3.495   1.538 -0.0427  0.3992 -1.2194
12693TIP3    H159494   2.421   3.482   1.523  0.2410 -0.5979 -2.1674
12693TIP3    H259495   2.532   3.582   1.500 -0.5993  0.6261 -0.9611
12694TIP3   OH259496   0.939   5.154  15.436 -0.0923 -0.4881 -1.3422
12694TIP3    H159497   0.932   5.232  15.382 -0.7573  0.1748 -0.3251
12694TIP3    H259498   1.021   5.113  15.409  1.1305  1.4938 -0.7015
12695TIP3   OH259499   1.374   6.300   2.576  0.1619 -0.4051 -0.1410
12695TIP3    H159500   1.320   6.331   2.503  0.2006  1.5707  0.6496
12695TIP3    H259501   1.405   6.380   2.619 -0.9850 -1.5002  2.8823
12696TIP3   OH259502   1.369   6.245  14.115  0.0484  0.4737  0.1021
12696TIP3    H159503   1.447   6.191  14.099  0.3942  0.6947  1.0171
12696TIP3    H259504   1.304   6.211  14.054  0.6477 -0.1721 -0.1878
12697TIP3   OH259505   0.627   4.721   0.241  0.0802  0.3113 -0.0842
12697TIP3    H159506   0.654   4.754   0.156  0.8550  1.0707  0.4516
12697TIP3    H259507   0.549   4.772   0.264 -1.7675 -1.7661 -1.5547
12698TIP3   OH259508   2.234   3.406   1.744  0.1771  0.2721 -0.1907
12698TIP3    H159509   2.243   3.436   1.654 -0.6359  0.7904 -0.1083
12698TIP3    H259510   2.305   3.343   1.756  0.9889  1.0550 -0.8307
12699TIP3   OH259511   0.792   0.873  13.986 -0.1836  0.4877 -0.1887
12699TIP3    H159512   0.805   0.964  14.013  0.3545 -0.1317  1.7235
12699TIP3    H259513   0.697   0.863  13.982 -0.2460  1.3744 -1.3380
12700TIP3   OH259514   1.866   7.079   0.057  0.5776 -0.8266 -0.5767
12700TIP3    H159515   1.930   7.150   0.056 -2.6052  2.2469  1.2153
12700TIP3    H259516   1.819   7.087  -0.026  1.0176 -1.6480 -0.9106
12701TIP3   OH259517   6.559   4.934   0.010 -0.1761 -0.6618 -0.1219
12701TIP3    H159518   6.519   4.988  -0.058  2.8340 -0.0624 -1.4942
12701TIP3    H259519   6.643   4.905  -0.028  0.9265 -1.4787  2.7925
12702TIP3   OH259520   0.494   5.282   0.148  0.0619 -0.4739 -0.3138
12702TIP3    H159521   0.519   5.211   0.207 -1.1312 -0.6852 -0.0427
12702TIP3    H259522   0.498   5.361   0.202 -0.1651 -0.5514 -0.1811
12703TIP3   OH259523   0.171   7.039   2.026 -0.1822 -0.0172 -0.7687
12703TIP3    H159524   0.236   7.102   2.057  0.7526 -0.9906 -0.7225
12703TIP3    H259525   0.191   7.028   1.933  1.7305 -2.6339 -0.1162
12704TIP3   OH259526   5.798   6.158   1.588  0.1500 -0.3310 -0.1633
12704TIP3    H159527   5.770   6.248   1.568 -0.1711 -0.3297  0.2972
12704TIP3    H259528   5.775   6.146   1.680 -0.6701 -1.2166 -0.4804
12705TIP3   OH259529   0.697   0.937   1.662  0.0339 -0.5535  0.0901
12705TIP3    H159530   0.675   0.847   1.639  1.1552 -1.1827  1.4027
12705TIP3    H259531   0.768   0.929   1.726  1.5301  1.3153 -1.2683
12706TIP3   OH259532   1.854   6.457   1.057  0.0334  0.0159 -0.1946
12706TIP3    H159533   1.916   6.398   1.014  0.0718 -0.6591  0.7714
12706TIP3    H259534   1.769   6.434   1.019  0.0838 -0.4727 -0.0061
12707TIP3   OH259535   7.063   3.110  14.967 -0.0316 -0.3550 -0.4441
12707TIP3    H159536   6.972   3.086  14.949 -0.2252  1.0292 -1.3846
12707TIP3    H259537   7.066   3.205  14.953  2.0621 -0.7035 -2.6060
12708TIP3   OH259538   1.492   6.301   2.242  0.8985  0.5400  0.2539
12708TIP3    H159539   1.473   6.305   2.148  2.2539  1.0465 -0.0048
12708TIP3    H259540   1.409   6.274   2.282  0.7146 -1.2299 -1.2364
12709TIP3   OH259541   3.695   4.763  14.090  0.4592  0.7133 -0.2155
12709TIP3    H159542   3.626   4.718  14.139  0.6497  1.0372  0.3559
12709TIP3    H259543   3.689   4.854  14.118  0.7454  0.8505 -0.5969
12710TIP3   OH259544   3.287   6.178   1.723 -0.4651  0.5495 -0.0060
12710TIP3    H159545   3.279   6.085   1.743  0.5558  0.8313  1.7588
12710TIP3    H259546   3.356   6.182   1.657 -1.5780 -0.0564 -1.2602
12711TIP3   OH259547   1.853   1.425  14.851 -0.4249 -0.1167 -0.2542
12711TIP3    H159548   1.945   1.444  14.831 -0.5205 -1.0864 -1.6635
12711TIP3    H259549   1.847   1.433  14.947  1.1825 -0.2625 -0.1320
12712TIP3   OH259550   6.578   5.805   1.088  0.0996  0.0807 -0.5062
12712TIP3    H159551   6.614   5.874   1.144 -0.9418 -0.7427  1.2109
12712TIP3    H259552   6.496   5.841   1.054 -0.3115 -0.1979  0.1795
12713TIP3   OH259553   2.821   6.291   0.935 -0.1143 -0.5215  0.4355
12713TIP3    H159554   2.843   6.334   0.852  0.1155 -1.3317  0.0725
12713TIP3    H259555   2.847   6.355   1.002  0.8762 -0.3751 -0.0749
12714TIP3   OH259556   1.998   6.836  15.331  0.1170  0.3474  0.4208
12714TIP3    H159557   2.019   6.876  15.415  0.6075  0.9267  0.0223
12714TIP3    H259558   2.071   6.858  15.274  0.2179 -0.8025  0.0818
12715TIP3   OH259559   2.055   5.235  15.465  0.1030  0.1766 -0.4344
12715TIP3    H159560   1.961   5.224  15.451  0.1101  0.4624 -0.7131
12715TIP3    H259561   2.088   5.146  15.478 -0.2314  0.0890 -0.1595
12716TIP3   OH259562   1.876   6.159   2.090 -0.9028 -0.5973  0.6285
12716TIP3    H159563   1.848   6.189   2.176 -0.3870  0.1747  0.5238
12716TIP3    H259564   1.962   6.198   2.077 -0.5186 -1.5598  0.2013
12717TIP3   OH259565   0.328   6.515   1.601  0.2195 -0.2775  0.3100
12717TIP3    H159566   0.366   6.578   1.662 -2.8584  0.9840  1.0338
12717TIP3    H259567   0.330   6.431   1.648  2.0691 -0.2414  0.3136
12718TIP3   OH259568   2.495   5.501   1.889  0.0334 -0.0464  0.0180
12718TIP3    H159569   2.421   5.553   1.920 -0.0867 -0.0743 -0.2227
12718TIP3    H259570   2.514   5.441   1.961  1.4037  1.6240  1.0882
12719TIP3   OH259571   1.574   0.959   1.432 -0.6909 -0.3229 -0.1911
12719TIP3    H159572   1.537   0.877   1.399 -3.5997  0.6408  0.5798
12719TIP3    H259573   1.499   1.010   1.461  1.2556  1.6025  1.6992
12720TIP3   OH259574   1.919   3.001   2.654 -0.1075  0.2453  0.0947
12720TIP3    H159575   1.992   3.002   2.716 -0.0767 -0.7483  0.0814
12720TIP3    H259576   1.946   3.061   2.585  0.2273  0.7072  0.6187
12721TIP3   OH259577   0.855   0.635  15.784  0.5273 -0.4564 -0.2436
12721TIP3    H159578   0.861   0.596  15.872  0.7985  1.0846  0.4379
12721TIP3    H259579   0.912   0.711  15.788  0.3521 -0.2380 -1.7003
12722TIP3   OH259580   6.526   5.253   1.299 -0.2666 -0.9093  0.6497
12722TIP3    H159581   6.515   5.159   1.310 -0.3481 -1.2374 -1.8873
12722TIP3    H259582   6.440   5.291   1.315 -0.3540 -1.3186  1.1304
12723TIP3   OH259583   6.333   6.750   1.640  0.7779 -0.1575  0.1634
12723TIP3    H159584   6.377   6.818   1.691  2.1438 -1.0100  0.1390
12723TIP3    H259585   6.283   6.798   1.574  2.4031  0.7999 -0.3940
12724TIP3   OH259586   2.357   4.959   3.174  0.3106 -0.3949 -0.0808
12724TIP3    H159587   2.397   5.007   3.247  2.0431 -2.1325  0.1650
12724TIP3    H259588   2.314   5.026   3.122 -0.0483  1.0180  1.9693
12725TIP3   OH259589   2.035   5.938  14.466  0.3988  0.1715 -0.0430
12725TIP3    H159590   2.121   5.933  14.426  0.5029  0.2308  0.1704
12725TIP3    H259591   2.046   5.996  14.542  0.0601  0.5784 -0.3010
12726TIP3   OH259592   0.981   6.748   1.006 -0.5239 -0.6433  0.7527
12726TIP3    H159593   1.001   6.682   0.940 -0.3977 -3.1812  3.2796
12726TIP3    H259594   1.067   6.782   1.033 -0.5151 -0.4574  0.4969
12727TIP3   OH259595   2.427   1.108  14.263  0.1210  0.0967  1.0370
12727TIP3    H159596   2.505   1.158  14.240  0.0439 -0.9058 -1.5615
12727TIP3    H259597   2.363   1.175  14.290  0.3448  1.3455 -1.3917
12728TIP3   OH259598   1.583   0.140   3.843 -0.2173  0.0831 -0.1528
12728TIP3    H159599   1.490   0.147   3.821 -0.1487  2.2327  0.1050
12728TIP3    H259600   1.585   0.131   3.938 -0.1211  2.1008  0.0648
12729TIP3   OH259601   1.695   6.317   2.473  0.0255  0.5370  0.2617
12729TIP3    H159602   1.601   6.318   2.492  0.1769  0.2363  1.0601
12729TIP3    H259603   1.703   6.258   2.397 -0.2706 -0.6900  1.1605
12730TIP3   OH259604   2.729   0.692   2.569  0.1153  0.2576  0.2594
12730TIP3    H159605   2.766   0.608   2.598 -0.3304 -0.3977 -1.0141
12730TIP3    H259606   2.700   0.735   2.649 -0.6612 -1.3093  0.8455
12731TIP3   OH259607   1.868   1.256   3.531 -0.2928 -0.4171  0.4013
12731TIP3    H159608   1.901   1.174   3.568 -0.0771 -0.6364 -0.2786
12731TIP3    H259609   1.815   1.294   3.602 -1.5575 -1.8390  0.2379
12732TIP3   OH259610   3.881   6.327   2.294 -0.3014 -0.3111  0.1926
12732TIP3    H159611   3.889   6.372   2.210 -1.3118  0.3831  0.4530
12732TIP3    H259612   3.817   6.379   2.342 -0.4858 -1.2831  1.0025
12733TIP3   OH259613   2.311   6.010   2.152  0.3072 -0.1325 -0.5298
12733TIP3    H159614   2.370   5.935   2.142 -0.8837 -1.3583  1.2554
12733TIP3    H259615   2.277   6.026   2.064  3.5773  0.8820 -1.6898
12734TIP3   OH259616   7.022   4.276  15.309  0.0760  0.1596  0.1255
12734TIP3    H159617   7.031   4.335  15.383  0.1348  0.0975  0.1674
12734TIP3    H259618   6.954   4.316  15.255  0.7966  0.7774 -0.3328
12735TIP3   OH259619   2.694   4.598   3.464 -0.3879 -0.4951 -0.5411
12735TIP3    H159620   2.775   4.553   3.438  0.9222  0.5280  1.5886
12735TIP3    H259621   2.722   4.687   3.483 -1.8375 -0.3578  1.0571
12736TIP3   OH259622   2.357   5.034   2.733 -0.3545  0.6402 -0.5511
12736TIP3    H159623   2.295   4.977   2.688 -0.2118  0.0491 -0.0079
12736TIP3    H259624   2.305   5.110   2.760 -0.1546  1.6710 -2.9076
12737TIP3   OH259625   0.934   6.632   0.017 -0.2304  0.3465  0.4822
12737TIP3    H159626   0.906   6.646   0.107 -0.4075  2.6319  0.0924
12737TIP3    H259627   0.876   6.688  -0.035  0.6451 -0.0509 -0.9457
12738TIP3   OH259628   6.972   6.527  15.478  0.8807 -0.1267  0.1667
12738TIP3    H159629   7.025   6.450  15.458  0.5977 -0.0402 -0.9597
12738TIP3    H259630   7.013   6.565  15.556  0.0261 -2.3459  1.7716
12739TIP3   OH259631   1.228   6.370   0.929 -0.3983 -0.0498 -0.4411
12739TIP3    H159632   1.247   6.457   0.895  0.1213 -0.9568 -2.5379
12739TIP3    H259633   1.136   6.375   0.956 -0.0131  1.5057  0.6522
12740TIP3   OH259634   1.364   6.390  14.500  0.7408  0.6504 -0.1248
12740TIP3    H159635   1.291   6.408  14.560 -0.1525  1.4820 -1.4289
12740TIP3    H259636   1.435   6.446  14.530  0.5318  0.5303  0.5941
12741TIP3   OH259637   1.188   0.343  15.273 -0.4462  0.7987  0.0292
12741TIP3    H159638   1.201   0.307  15.185 -1.3556 -0.0458  0.2301
12741TIP3    H259639   1.169   0.436  15.258 -2.2535  0.3218 -0.7944
12742TIP3   OH259640   3.386   5.244   2.442 -0.0801  0.6513  0.1285
12742TIP3    H159641   3.469   5.201   2.421 -2.0377 -2.7143 -1.1076
12742TIP3    H259642   3.359   5.205   2.525  1.0599  4.1123  2.2467
12743TIP3   OH259643   1.231   6.877   0.961 -0.0673  0.3617 -0.1197
12743TIP3    H159644   1.253   6.868   0.869  1.1345 -0.2393  0.2189
12743TIP3    H259645   1.312   6.858   1.008 -1.1956 -1.5775  1.1316
12744TIP3   OH259646   3.166   5.364   2.925  0.0526  0.0893 -0.0170
12744TIP3    H159647   3.249   5.319   2.910 -0.5559 -1.8255  2.1501
12744TIP3    H259648   3.099   5.305   2.891 -0.5838  0.5670  0.3833
12745TIP3   OH259649   1.784   5.081   0.323 -0.0400 -0.3677  0.3299
12745TIP3    H159650   1.744   5.062   0.238 -0.4316 -1.4164  0.7453
12745TIP3    H259651   1.811   5.173   0.317  1.7570 -0.9785 -1.6562
12746TIP3   OH259652   7.247   6.149   0.769  0.2777  0.2574  0.0808
12746TIP3    H159653   7.198   6.217   0.816 -0.4428  0.5382 -1.0515
12746TIP3    H259654   7.200   6.139   0.686  0.3156 -1.7200  0.2884
12747TIP3   OH259655   6.549   6.762   0.069  0.0508  0.7098  0.1512
12747TIP3    H159656   6.496   6.689   0.039 -1.2259  1.7769 -0.2481
12747TIP3    H259657   6.616   6.772   0.002  0.1079  0.0307  0.1063
12748TIP3   OH259658   6.988   6.573   1.787 -0.7002 -0.3303 -0.2076
12748TIP3    H159659   7.045   6.564   1.711  0.3445 -0.9076  0.6402
12748TIP3    H259660   6.907   6.528   1.762 -0.0263 -1.3116 -0.6352
12749TIP3   OH259661   1.842   6.392   1.789 -0.0544  0.1898  0.1621
12749TIP3    H159662   1.794   6.310   1.797  1.7555 -0.7917  1.2741
12749TIP3    H259663   1.849   6.406   1.694 -0.2544 -1.0158 -0.0462
12750TIP3   OH259664   2.058   4.988  14.682 -0.2184  0.1076 -0.2463
12750TIP3    H159665   2.121   4.948  14.742 -1.7626 -0.0910  1.2659
12750TIP3    H259666   2.078   4.949  14.597  4.4817  3.1651 -0.7091
12751TIP3   OH259667   2.273   6.994   0.966 -0.0002  0.4569  0.1455
12751TIP3    H159668   2.258   7.000   1.060 -0.8526 -0.5762  0.0876
12751TIP3    H259669   2.218   7.063   0.928  0.2387  0.7823  0.3842
12752TIP3   OH259670   1.657   5.986   1.160  0.0478 -0.0699  0.2248
12752TIP3    H159671   1.631   6.073   1.127 -0.1915 -0.8969 -1.8517
12752TIP3    H259672   1.732   6.004   1.216 -0.8535  1.6405  0.9332
12753TIP3   OH259673   0.191   5.316  15.622 -0.1199 -0.3798 -0.4541
12753TIP3    H159674   0.142   5.298  15.541 -0.6088 -0.2148 -0.1955
12753TIP3    H259675   0.268   5.260  15.616  0.5243  0.6121 -1.6570
12754TIP3   OH259676   1.283   0.087   3.083  0.1093  0.0888  0.2105
12754TIP3    H159677   1.193   0.081   3.053  0.3420  1.6473 -0.8951
12754TIP3    H259678   1.330   0.020   3.033 -0.1438  0.3950 -0.4457
12755TIP3   OH259679   1.496   5.107   0.648 -0.0073 -0.1091  0.8687
12755TIP3    H159680   1.435   5.123   0.720 -1.6144 -0.8563 -0.3149
12755TIP3    H259681   1.556   5.182   0.650 -1.2320  0.8559  1.7621
12756TIP3   OH259682   6.854   5.856   0.578 -0.1176 -0.0365  0.3354
12756TIP3    H159683   6.850   5.829   0.670 -1.0047 -0.1643  0.2641
12756TIP3    H259684   6.913   5.931   0.578 -0.5536  0.3220  1.1054
12757TIP3   OH259685   0.518   6.606   0.951  0.0708  0.2006 -0.1833
12757TIP3    H159686   0.534   6.630   0.859  0.2948 -0.2557 -0.2645
12757TIP3    H259687   0.588   6.651   0.999  1.1858 -1.2081 -0.4627
12758TIP3   OH259688   2.650   6.655   1.142  0.1553 -0.3956 -0.0150
12758TIP3    H159689   2.676   6.596   1.212  3.5587  1.2382  0.1567
12758TIP3    H259690   2.558   6.675   1.161  0.3331 -1.8266  2.5994
12759TIP3   OH259691   1.343   5.065  15.792  0.0341  0.2609  0.8788
12759TIP3    H159692   1.276   5.131  15.776 -1.4391 -0.9872  1.7519
12759TIP3    H259693   1.341   5.009  15.715 -0.5894 -0.3319  1.3265
12760TIP3   OH259694   5.832   6.621  15.967 -0.1852  0.2123  0.3342
12760TIP3    H159695   5.869   6.562  15.901  1.8043  0.9686  0.7381
12760TIP3    H259696   5.876   6.596  16.049 -1.5634  0.2470  1.0996
12761TIP3   OH259697   2.785   6.042   1.209  0.3465  0.5526 -0.4971
12761TIP3    H159698   2.829   6.125   1.225  0.9521  0.2298 -0.4849
12761TIP3    H259699   2.731   6.028   1.288 -1.7853  2.1949 -1.5955
12762TIP3   OH259700   2.054   6.676   1.465  0.5304  0.2436  0.6335
12762TIP3    H159701   2.099   6.758   1.482  0.7716  0.0401  0.9812
12762TIP3    H259702   2.048   6.671   1.369  0.4735  0.6841  0.6120
12763TIP3   OH259703   2.027   7.097   0.740 -0.1508  0.1816  0.2624
12763TIP3    H159704   2.072   7.115   0.657 -0.0717 -0.6003  0.1306
12763TIP3    H259705   2.059   7.165   0.800 -1.3652  1.7039 -0.7481
12764TIP3   OH259706   6.380   7.106   1.369 -0.3270 -0.1278  0.2985
12764TIP3    H159707   6.454   7.064   1.326  0.5892  2.2463 -0.5442
12764TIP3    H259708   6.304   7.084   1.315  0.2766  0.0434 -0.6178
12765TIP3   OH259709   1.012   6.164   0.423 -0.2631  0.2686  0.1565
12765TIP3    H159710   1.039   6.132   0.509  0.4493  0.4630  0.0073
12765TIP3    H259711   1.094   6.187   0.379 -0.6691  0.8171 -0.3190
12766TIP3   OH259712   6.918   6.712  15.112 -0.2119 -0.0196 -0.1288
12766TIP3    H159713   6.881   6.625  15.113  0.7351 -0.4307  0.1670
12766TIP3    H259714   7.012   6.698  15.098 -0.0352  0.9372  0.0490
12767TIP3   OH259715   2.761   1.354   3.093  0.3920 -0.0900  0.1714
12767TIP3    H159716   2.770   1.385   3.003  2.5783 -0.5558  0.1826
12767TIP3    H259717   2.784   1.430   3.147  1.1126 -0.3731  0.2771
12768TIP3   OH259718   6.365   6.470  13.000 -0.4102 -0.0016 -0.1398
12768TIP3    H159719   6.348   6.478  12.906  1.0407  2.6239 -0.2180
12768TIP3    H259720   6.302   6.529  13.041  0.9628  1.1746  0.3150
12769TIP3   OH259721   2.702   0.828   2.810 -0.8623  0.7238  0.0610
12769TIP3    H159722   2.706   0.877   2.892 -0.2019 -1.2546  1.2404
12769TIP3    H259723   2.646   0.753   2.830 -0.1023 -0.1590 -1.0786
12770TIP3   OH259724   2.039   5.003   0.026 -0.2444  0.4744 -0.1488
12770TIP3    H159725   1.959   4.994   0.080 -0.2594 -0.6239 -0.3444
12770TIP3    H259726   2.036   4.928  -0.033  0.4252  0.9958 -0.8443
12771TIP3   OH259727   2.708   6.534   1.419  0.3986  0.6611 -0.2923
12771TIP3    H159728   2.714   6.446   1.456 -0.7662 -0.6973 -3.2546
12771TIP3    H259729   2.799   6.561   1.406  0.7471 -0.3455  0.0689
12772TIP3   OH259730   1.678   0.358   1.335  0.4621 -0.0735  0.2195
12772TIP3    H159731   1.672   0.376   1.241 -0.5841 -2.6205 -0.2462
12772TIP3    H259732   1.641   0.436   1.377 -1.4510  0.0260 -1.5834
12773TIP3   OH259733   6.689   6.561  15.392 -0.8048  0.1720  0.1545
12773TIP3    H159734   6.780   6.553  15.423 -0.4713  4.0632  0.3686
12773TIP3    H259735   6.696   6.566  15.297 -0.4873  3.0100  0.2738
12774TIP3   OH259736   1.135   5.828  14.692 -0.5841 -0.0981  0.6032
12774TIP3    H159737   1.148   5.735  14.672 -0.7586 -0.5280  2.3758
12774TIP3    H259738   1.187   5.875  14.627 -0.8284 -1.4240 -0.5669
12775TIP3   OH259739   5.704   6.861  15.843  0.3075 -0.1273 -0.1760
12775TIP3    H159740   5.780   6.814  15.879  2.4889  1.4017 -2.6592
12775TIP3    H259741   5.706   6.946  15.887 -0.7383 -0.5136  0.6527
12776TIP3   OH259742   2.079   6.840   2.929  0.1144 -0.4184  0.3068
12776TIP3    H159743   2.022   6.767   2.907  0.4168 -0.3225 -0.8337
12776TIP3    H259744   2.140   6.846   2.855  0.0160  1.0620  0.3328
12777TIP3   OH259745   3.010   0.154   0.212  0.6892  0.0497 -0.9379
12777TIP3    H159746   2.928   0.168   0.164 -0.2474  0.7602  0.8036
12777TIP3    H259747   3.072   0.214   0.170  0.2887 -0.3745 -2.1689
12778TIP3   OH259748   0.314   5.300   2.291 -0.1300 -0.1889  0.3630
12778TIP3    H159749   0.397   5.297   2.339  0.4926  0.6297 -0.6432
12778TIP3    H259750   0.340   5.316   2.200 -1.3736 -0.3275 -0.0195
12779TIP3   OH259751   6.899   1.323  14.533  0.0754 -0.1346 -0.2067
12779TIP3    H159752   6.940   1.391  14.480 -0.3953  0.0837 -0.2881
12779TIP3    H259753   6.877   1.254  14.470 -1.3107  0.5094 -0.4412
12780TIP3   OH259754   1.182   0.706  14.808 -0.3516 -0.0284  0.0648
12780TIP3    H159755   1.105   0.732  14.857 -1.2518  0.0046 -1.3436
12780TIP3    H259756   1.168   0.741  14.720  1.8671  1.1036  0.1093
12781TIP3   OH259757   1.517   6.510  15.420 -0.5583 -0.2168  0.1642
12781TIP3    H159758   1.554   6.550  15.341  1.1417 -2.5508 -0.2659
12781TIP3    H259759   1.424   6.502  15.401 -0.3904  0.5571 -1.0202
12782TIP3   OH259760   6.724   1.590   0.252  0.1938 -0.3987  0.6482
12782TIP3    H159761   6.651   1.582   0.313 -0.5639 -0.0020 -0.1886
12782TIP3    H259762   6.730   1.684   0.235 -0.0780 -0.5641 -0.4381
12783TIP3   OH259763   1.401   5.416   0.607  0.3005  0.6942 -0.3199
12783TIP3    H159764   1.464   5.376   0.546 -0.8044  0.1449 -1.1070
12783TIP3    H259765   1.448   5.492   0.642  0.8830  1.1697 -2.0431
12784TIP3   OH259766   0.540   0.159  15.032 -0.2430  0.4863  0.0274
12784TIP3    H159767   0.497   0.206  15.103 -0.4117 -0.7992  0.7676
12784TIP3    H259768   0.477   0.093  15.005  0.5556 -0.2260 -0.0951
12785TIP3   OH259769   1.981   0.564   0.598  0.4227 -0.0171  0.0313
12785TIP3    H159770   1.941   0.651   0.604  0.2691 -0.1583  1.2638
12785TIP3    H259771   2.051   0.574   0.534 -0.2461  0.7557 -0.6012
12786TIP3   OH259772   1.877   5.591   0.986  1.0467  0.0363 -0.1902
12786TIP3    H159773   1.908   5.657   0.924  1.8826  0.5937  0.8063
12786TIP3    H259774   1.932   5.603   1.064 -0.0215 -0.6143  0.6814
12787TIP3   OH259775   2.274   0.371  15.225 -0.4691 -0.1906  0.1169
12787TIP3    H159776   2.233   0.421  15.154 -2.1569  0.8115  1.7577
12787TIP3    H259777   2.274   0.431  15.300  1.4043 -1.1870  0.9420
12788TIP3   OH259778   1.922   1.246   1.517  0.4576 -0.4102  0.1536
12788TIP3    H159779   1.918   1.227   1.423 -1.0785 -1.5022  0.4158
12788TIP3    H259780   1.869   1.177   1.558 -2.9364  2.7334  1.4121
12789TIP3   OH259781   7.145   1.873   0.854  0.0170  0.0058 -0.4734
12789TIP3    H159782   7.109   1.802   0.908 -0.3120  1.1174  0.7901
12789TIP3    H259783   7.129   1.844   0.764 -0.4515 -1.3528  0.0235
12790TIP3   OH259784   2.441   6.549   1.720  0.1236 -0.4112 -0.2278
12790TIP3    H159785   2.507   6.609   1.684  0.3025 -0.5288 -0.0918
12790TIP3    H259786   2.358   6.587   1.691  0.2064  0.2608  0.3816
12791TIP3   OH259787   3.234   5.058   0.140 -0.0682  0.4555  0.0308
12791TIP3    H159788   3.247   5.152   0.130  0.6764  0.2953 -0.4924
12791TIP3    H259789   3.322   5.021   0.143 -0.3406 -0.1518  0.9592
12792TIP3   OH259790   2.412   4.910  13.056  0.0152 -0.0433  0.7239
12792TIP3    H159791   2.362   4.991  13.065 -0.1644 -0.1199  0.3979
12792TIP3    H259792   2.396   4.882  12.966 -0.4566 -0.8006  1.0436
12793TIP3   OH259793   5.957   6.871   1.044 -0.0910 -0.1889 -0.4391
12793TIP3    H159794   5.955   6.940   0.978 -1.2838  0.9271  0.7370
12793TIP3    H259795   6.024   6.900   1.107  0.2784 -0.7090 -0.5902
12794TIP3   OH259796   2.328   6.190  15.299 -0.2764 -0.3683  0.1477
12794TIP3    H159797   2.350   6.140  15.221 -0.2231 -1.1511  0.6582
12794TIP3    H259798   2.409   6.238  15.321 -1.1706  2.2811 -2.0346
12795TIP3   OH259799   1.298   7.085   3.631  0.0139 -0.3272 -0.0062
12795TIP3    H159800   1.262   7.097   3.719  0.1325 -1.2173  0.1669
12795TIP3    H259801   1.261   7.157   3.580  1.1686  1.1049  1.1349
12796TIP3   OH259802   3.616   2.103   1.971 -0.2398  0.3749  0.1636
12796TIP3    H159803   3.556   2.031   1.991 -1.1863  1.2196  0.3965
12796TIP3    H259804   3.589   2.133   1.884 -0.8930  1.4679  0.7236
12797TIP3   OH259805   0.941   7.302   2.479 -0.5648  0.0670  0.2595
12797TIP3    H159806   0.992   7.223   2.465 -1.3352 -0.1038 -1.6991
12797TIP3    H259807   0.866   7.293   2.420 -1.8651  1.1841  1.7099
12798TIP3   OH259808   2.688   1.923   1.993 -0.3642  0.7373  0.3472
12798TIP3    H159809   2.690   2.005   2.042  0.2038 -0.1736  1.8709
12798TIP3    H259810   2.726   1.858   2.052 -1.2990 -0.7397 -0.6311
12799TIP3   OH259811   1.886   5.469   3.229 -0.4092 -0.2994 -0.5458
12799TIP3    H159812   1.964   5.517   3.260 -1.0397  0.4114 -0.0454
12799TIP3    H259813   1.917   5.419   3.154  0.1280  1.3590 -1.4623
12800TIP3   OH259814   1.051   0.015   1.613 -0.0042 -0.2035  0.4197
12800TIP3    H159815   1.011  -0.045   1.549 -1.0029  0.5846  0.2737
12800TIP3    H259816   1.125  -0.033   1.648 -0.9839 -1.6651  0.5633
12801TIP3   OH259817   1.721   5.904   2.660 -0.4941  0.3719 -0.1966
12801TIP3    H159818   1.681   5.906   2.748  0.9684  1.4483  0.4654
12801TIP3    H259819   1.767   5.820   2.657 -0.0185  0.6037  0.3280
12802TIP3   OH259820   0.772   6.929   2.176 -0.0244 -0.0266 -0.3352
12802TIP3    H159821   0.712   6.938   2.250  0.0767 -0.2680 -0.2223
12802TIP3    H259822   0.775   6.835   2.158  0.0194  0.0213 -0.5902
12803TIP3   OH259823   7.160   4.526   1.242  0.0321  0.1883  0.3745
12803TIP3    H159824   7.077   4.567   1.219 -0.0604 -0.4314 -0.4041
12803TIP3    H259825   7.190   4.484   1.162 -0.6977 -2.7211  1.5611
12804TIP3   OH259826   2.180   0.418   1.724  0.4762  0.2569 -0.0342
12804TIP3    H159827   2.150   0.508   1.729  0.2922  0.2532 -1.0565
12804TIP3    H259828   2.210   0.398   1.813 -1.6385  0.5644  0.7725
12805TIP3   OH259829   6.917   6.137   1.685 -0.1137 -0.6914 -0.5017
12805TIP3    H159830   6.898   6.229   1.666 -0.8956 -0.3785  1.6958
12805TIP3    H259831   7.008   6.126   1.660  0.3479  1.0172  0.3473
12806TIP3   OH259832   0.211   1.924   0.726 -0.0770  0.4510  0.4087
12806TIP3    H159833   0.245   1.834   0.729  2.9984  1.5151 -1.3809
12806TIP3    H259834   0.208   1.951   0.818  0.4645 -0.9033  0.8432
12807TIP3   OH259835   0.866   4.982   3.329  0.2406  0.4852  0.0997
12807TIP3    H159836   0.846   4.920   3.259  1.1453  0.9793 -0.6109
12807TIP3    H259837   0.960   4.973   3.343  0.3191  1.4476  0.2319
12808TIP3   OH259838   1.535   5.804  13.985  0.4305  0.2714 -0.1483
12808TIP3    H159839   1.549   5.822  13.893 -0.6027 -1.7263 -0.7339
12808TIP3    H259840   1.553   5.710  13.994 -0.1293  0.3028  1.5386
12809TIP3   OH259841   1.958   4.188   4.557  0.5025 -0.2660  0.4184
12809TIP3    H159842   1.955   4.104   4.510  1.0620  0.9702 -1.9181
12809TIP3    H259843   2.044   4.190   4.598 -0.2950 -1.7174  2.2251
12810TIP3   OH259844   2.384   0.769   1.570 -0.4011 -0.2370 -0.1717
12810TIP3    H159845   2.440   0.707   1.523 -0.1278 -0.3827  0.3395
12810TIP3    H259846   2.411   0.762   1.662  1.6112  2.6839 -0.4524
12811TIP3   OH259847   0.304   0.545   0.916  0.1737  0.0602 -0.1090
12811TIP3    H159848   0.283   0.458   0.950  0.7458 -0.2477 -0.5245
12811TIP3    H259849   0.375   0.577   0.972  0.7462 -0.2218 -0.6673
12812TIP3   OH259850   1.035   6.412   0.598  0.1609  0.5141  0.1549
12812TIP3    H159851   1.043   6.320   0.574 -0.9993  0.3796  0.2573
12812TIP3    H259852   1.096   6.458   0.539 -0.2238 -0.1721 -0.7886
12813TIP3   OH259853   2.901   5.394   1.302  0.0807  0.2127  0.6197
12813TIP3    H159854   2.899   5.447   1.222 -0.0531  1.9932  1.7680
12813TIP3    H259855   2.809   5.386   1.327  0.1647  0.1015  0.8850
12814TIP3   OH259856   2.991   0.159   2.504  0.3647 -0.1029  0.4250
12814TIP3    H159857   2.997   0.112   2.587  0.3202 -1.3519 -0.2533
12814TIP3    H259858   2.927   0.108   2.453  1.8152 -0.4669 -1.0742
12815TIP3   OH259859   2.922   6.629   0.358  0.1490  0.0176 -0.2406
12815TIP3    H159860   2.906   6.662   0.447 -1.1580  0.3107 -0.5645
12815TIP3    H259861   3.007   6.587   0.363  1.4107  2.5542  0.4526
12816TIP3   OH259862   6.464   7.041   4.030  0.5131  0.6853  0.4238
12816TIP3    H159863   6.470   6.950   4.057 -1.9581  1.2239  3.0684
12816TIP3    H259864   6.417   7.038   3.946  0.1796 -0.4606  0.6463
12817TIP3   OH259865   0.589   6.118   1.493 -0.2194 -0.2204  0.5479
12817TIP3    H159866   0.531   6.141   1.421 -0.6487  0.3418  1.0673
12817TIP3    H259867   0.538   6.056   1.546 -0.3835  0.3475  1.0555
12818TIP3   OH259868   2.430   5.607   0.737 -0.3871 -0.0237 -0.0451
12818TIP3    H159869   2.347   5.621   0.690 -0.1015 -1.1031 -0.9121
12818TIP3    H259870   2.497   5.621   0.670  0.0544 -0.8933  0.2119
12819TIP3   OH259871   0.553   0.536   3.495 -0.3462 -0.4492 -0.1772
12819TIP3    H159872   0.621   0.503   3.554  1.0009  0.5735 -1.1360
12819TIP3    H259873   0.475   0.485   3.518  1.0459 -2.5309  0.0659
12820TIP3   OH259874   1.503   7.042   3.202 -0.0855  0.4433 -0.0814
12820TIP3    H159875   1.572   7.101   3.232  0.9124 -0.5571 -0.3641
12820TIP3    H259876   1.485   7.069   3.112 -0.4403  1.0359  0.1620
12821TIP3   OH259877   2.534   1.988   2.634  0.6292  0.2853 -0.9079
12821TIP3    H159878   2.513   1.896   2.614  0.0001  0.1018  0.5444
12821TIP3    H259879   2.603   1.982   2.699 -1.1109  0.7975  1.0385
12822TIP3   OH259880   0.087   5.199  15.885 -0.9515 -0.2778  0.3296
12822TIP3    H159881   0.049   5.113  15.901 -0.8205 -0.2656  0.7368
12822TIP3    H259882   0.023   5.244  15.830  0.0610 -1.4479 -1.8603
12823TIP3   OH259883   2.848   5.780   1.869  0.2473 -0.1635  0.0401
12823TIP3    H159884   2.815   5.865   1.894  1.5281  0.3767 -0.0555
12823TIP3    H259885   2.785   5.748   1.804  0.1046  0.9860 -0.3955
12824TIP3   OH259886   7.022   7.284   0.210  0.2517 -0.3291 -0.3767
12824TIP3    H159887   7.075   7.269   0.289  0.8920  2.7361 -0.1525
12824TIP3    H259888   7.080   7.261   0.137  0.4472 -0.9716 -0.0252
12825TIP3   OH259889   2.492   7.109   2.030  0.4844 -0.3067  0.0323
12825TIP3    H159890   2.538   7.025   2.027  0.6168 -0.2186 -0.5167
12825TIP3    H259891   2.408   7.089   2.071 -0.3740 -1.1449 -2.0685
12826TIP3   OH259892   1.106   6.033  14.888  0.1395 -0.2377 -0.8431
12826TIP3    H159893   1.016   6.026  14.920  0.3043 -0.8406 -0.4982
12826TIP3    H259894   1.104   5.994  14.801  0.2865 -1.2822 -0.3949
12827TIP3   OH259895   2.627   0.280  15.331 -0.3019  0.3208  0.2310
12827TIP3    H159896   2.605   0.235  15.249 -0.1875  1.6967 -0.5723
12827TIP3    H259897   2.543   0.302  15.370 -0.3618 -1.4600  1.1163
12828TIP3   OH259898   0.660   0.693   3.060  0.1511  0.1004  0.0656
12828TIP3    H159899   0.725   0.662   3.124  0.9423 -1.1277 -1.3064
12828TIP3    H259900   0.707   0.693   2.976 -1.0667  1.0557 -0.6287
12829TIP3   OH259901   2.394   0.692   1.206 -1.0264  0.7635 -0.0551
12829TIP3    H159902   2.307   0.702   1.243 -0.3892  0.5745  1.5394
12829TIP3    H259903   2.405   0.767   1.148 -1.9082  1.2755  0.4359
12830TIP3   OH259904   2.362   6.636   1.174  0.2451 -0.5761  0.0731
12830TIP3    H159905   2.322   6.578   1.239 -0.6482 -0.7998 -0.6730
12830TIP3    H259906   2.364   6.585   1.094  1.7167 -0.4299  0.0140
12831TIP3   OH259907   2.691   7.184  15.155 -0.1752 -0.3284  0.2665
12831TIP3    H159908   2.729   7.203  15.069 -0.3645  2.3116  0.7223
12831TIP3    H259909   2.739   7.108  15.187  2.1480  0.6540 -0.7740
12832TIP3   OH259910   3.349   5.905  15.149  0.5153 -0.9866  0.1719
12832TIP3    H159911   3.316   5.820  15.176  1.3626 -1.4697 -0.3043
12832TIP3    H259912   3.373   5.948  15.231 -2.9370  0.1122  0.7148
12833TIP3   OH259913   1.120   5.991  15.704  0.6624 -0.2932 -0.0359
12833TIP3    H159914   1.104   6.039  15.785 -0.2009  0.7639 -0.8162
12833TIP3    H259915   1.182   6.045  15.656  0.3158 -0.3617 -0.5616
12834TIP3   OH259916   1.704   6.729   2.787  0.8007  0.3390 -0.0114
12834TIP3    H159917   1.750   6.664   2.841  1.3977 -0.4833 -1.4925
12834TIP3    H259918   1.767   6.753   2.719 -0.7478 -0.4625 -1.7810
12835TIP3   OH259919   0.941   6.398   0.227 -0.0846 -0.0867 -0.1251
12835TIP3    H159920   0.937   6.346   0.147  1.0016  0.9399 -0.8537
12835TIP3    H259921   0.967   6.335   0.295  1.6181 -0.4219 -1.0758
12836TIP3   OH259922   1.437   5.189  14.695  0.5080 -0.6306  0.1985
12836TIP3    H159923   1.423   5.111  14.642 -1.3348  0.1774 -0.5660
12836TIP3    H259924   1.505   5.238  14.649 -1.5056  0.3653 -1.8374
12837TIP3   OH259925   0.837   6.545   1.324  0.0921 -0.3798 -0.3327
12837TIP3    H159926   0.913   6.493   1.300  0.6615  0.3511 -0.1134
12837TIP3    H259927   0.791   6.492   1.390  0.2621 -0.9334 -0.6589
12838TIP3   OH259928   2.916   5.423   0.586 -0.4558 -0.3092  0.0996
12838TIP3    H159929   2.872   5.461   0.510 -0.9289  0.9129  0.9682
12838TIP3    H259930   2.845   5.403   0.647 -0.0335 -0.8596  0.4206
12839TIP3   OH259931   6.205   6.054   1.332  0.1403 -0.7716 -0.2934
12839TIP3    H159932   6.152   6.131   1.352 -0.3011 -0.2372 -3.2873
12839TIP3    H259933   6.142   5.981   1.330  0.5108 -1.2035  2.2340
12840TIP3   OH259934   2.290   4.019   2.477 -0.3495 -0.5315 -0.4179
12840TIP3    H159935   2.235   3.980   2.410  0.2895  0.4516 -1.5475
12840TIP3    H259936   2.236   4.089   2.514  0.5919  1.3634 -2.5020
12841TIP3   OH259937   3.620   0.040   0.752  0.3148  0.0787  0.0705
12841TIP3    H159938   3.709   0.020   0.782  0.4882 -1.2211 -1.2596
12841TIP3    H259939   3.633   0.082   0.667 -0.3416 -0.1307 -0.1304
12842TIP3   OH259940   7.117   0.024  14.780  0.5574  0.5575  0.2384
12842TIP3    H159941   7.053   0.049  14.846  1.3210  0.4039  1.0531
12842TIP3    H259942   7.068  -0.029  14.717 -0.0321  0.1154  1.0599
12843TIP3   OH259943   1.495   6.293   0.346 -0.1060 -0.0909  0.1983
12843TIP3    H159944   1.556   6.303   0.273 -0.1820 -2.7743 -0.2800
12843TIP3    H259945   1.537   6.228   0.403 -1.1611  0.2195  1.3417
12844TIP3   OH259946   1.140   7.083   1.971  0.2294 -0.3537  0.3979
12844TIP3    H159947   1.079   7.151   2.000 -0.3099 -1.5290  2.0872
12844TIP3    H259948   1.093   7.034   1.904  0.5573  0.8149 -0.7030
12845TIP3   OH259949   1.490   6.059   0.035  0.8564  0.3876  0.1071
12845TIP3    H159950   1.552   6.118   0.079  0.4294 -0.3927  1.8148
12845TIP3    H259951   1.533   5.974   0.036 -0.8948 -0.5095  2.8050
12846TIP3   OH259952   2.010   6.079   1.739  0.1523 -0.1194  0.0094
12846TIP3    H159953   2.002   6.130   1.659  1.6417 -1.5523 -1.0748
12846TIP3    H259954   1.929   6.029   1.743 -0.3547  0.6810 -0.0735
12847TIP3   OH259955   5.392   6.194   1.962  0.3767  0.3008 -0.3331
12847TIP3    H159956   5.452   6.247   2.015  1.5528  0.3177 -1.6423
12847TIP3    H259957   5.350   6.135   2.025  1.1805  0.8457  0.7232
12848TIP3   OH259958   1.313   4.933   3.148  0.2722  0.3141 -0.3619
12848TIP3    H159959   1.344   5.024   3.155  0.3838  0.2058  0.6766
12848TIP3    H259960   1.379   4.890   3.094  0.7896  0.6063  0.0273
12849TIP3   OH259961   0.423   5.023   1.063  0.2053 -0.0139  0.1760
12849TIP3    H159962   0.478   4.962   1.013  1.6707  1.0868  0.3965
12849TIP3    H259963   0.466   5.108   1.052 -1.4102  0.8633  0.4512
12850TIP3   OH259964   4.522   5.689  15.884  0.5300 -0.1363  0.0342
12850TIP3    H159965   4.444   5.740  15.905  1.6461  1.6084  0.0244
12850TIP3    H259966   4.533   5.630  15.958  0.1020  0.7039  0.7712
12851TIP3   OH259967   0.482   4.962   2.672 -0.2857 -0.0132  0.1971
12851TIP3    H159968   0.445   5.043   2.706 -0.4348  0.2615 -0.6114
12851TIP3    H259969   0.500   4.980   2.580 -0.3555 -0.9056  0.0025
12852TIP3   OH259970   2.712   7.211  15.732 -0.1159 -0.2358  0.7229
12852TIP3    H159971   2.620   7.193  15.751  0.0489 -3.2890 -1.0664
12852TIP3    H259972   2.719   7.205  15.637  1.6047  1.6715  0.7059
12853TIP3   OH259973   0.803   5.483   0.226  0.0427 -0.2606  0.2032
12853TIP3    H159974   0.730   5.488   0.165 -0.5329 -0.0506  0.8925
12853TIP3    H259975   0.878   5.515   0.177 -0.2553 -0.8237 -0.6253
12854TIP3   OH259976   1.931   5.740   0.243  0.3499 -0.2350 -0.2657
12854TIP3    H159977   2.021   5.715   0.225 -0.0965 -1.0763 -1.4569
12854TIP3    H259978   1.887   5.658   0.266 -0.4191 -0.0608 -1.0676
12855TIP3   OH259979   2.727   4.777   0.612 -0.5733 -0.2217 -0.0885
12855TIP3    H159980   2.669   4.701   0.617 -1.7040  0.3463 -3.5113
12855TIP3    H259981   2.673   4.850   0.641  0.6422 -0.7064  3.6235
12856TIP3   OH259982   6.602   6.026  12.284  0.3177  0.3297 -0.7800
12856TIP3    H159983   6.689   6.065  12.269  1.0663 -1.5718 -1.5726
12856TIP3    H259984   6.564   6.079  12.354  2.9619 -0.1049  1.0522
12857TIP3   OH259985   6.555   5.775   0.378 -0.3533 -0.9117  0.2029
12857TIP3    H159986   6.538   5.724   0.456 -0.1113 -1.9018 -0.3877
12857TIP3    H259987   6.485   5.752   0.317  0.6555 -1.7711 -0.6581
12858TIP3   OH259988   3.786   7.176   1.095  0.6468 -0.0952 -0.0376
12858TIP3    H159989   3.737   7.253   1.124  0.6998 -0.4496  1.0024
12858TIP3    H259990   3.727   7.103   1.113  0.0960 -0.1984 -2.1661
12859TIP3   OH259991   3.113   4.747   2.098 -0.2739  0.0706  0.5174
12859TIP3    H159992   3.110   4.654   2.123  1.1515  0.0683  0.7373
12859TIP3    H259993   3.044   4.756   2.033  0.8187 -1.6039 -0.9234
12860TIP3   OH259994   7.172   7.048   2.136  0.0929 -0.3736  0.5882
12860TIP3    H159995   7.091   7.085   2.171 -0.5653 -0.6799 -0.5896
12860TIP3    H259996   7.185   6.966   2.184  0.5664  0.4580  1.8979
12861TIP3   OH259997   1.223   5.797  14.978  0.5051  0.1163  0.8156
12861TIP3    H159998   1.177   5.748  14.910 -1.0009 -0.1291  1.9836
12861TIP3    H259999   1.220   5.888  14.949  2.7258 -0.3606 -1.0350
12862TIP3   OH260000   1.156   4.816   3.595 -0.1167 -0.0227 -0.1842
12862TIP3    H160001   1.147   4.877   3.668  1.4779  0.3430 -0.2760
12862TIP3    H260002   1.083   4.755   3.606 -1.4285  1.5783  0.2069
12863TIP3   OH260003   0.936   5.241   0.062 -1.0962 -0.0066 -0.6472
12863TIP3    H160004   1.014   5.276   0.019 -1.3607  0.1545 -0.9920
12863TIP3    H260005   0.902   5.315   0.113 -1.4305  0.1294 -1.0643
12864TIP3   OH260006   2.275   6.996   0.062  0.2071 -0.0675 -0.0759
12864TIP3    H160007   2.367   7.020   0.059  0.0485  0.4122 -1.3840
12864TIP3    H260008   2.239   7.047   0.135  0.5101  1.4505 -0.9666
12865TIP3   OH260009   2.299   0.363   1.475 -0.3601  0.4866 -0.2229
12865TIP3    H160010   2.344   0.445   1.455  1.9733 -0.3628  1.3232
12865TIP3    H260011   2.242   0.384   1.549 -0.5086  0.9255 -0.4583
12866TIP3   OH260012   3.244   7.026  14.881 -0.0349  0.4437 -0.5368
12866TIP3    H160013   3.237   7.083  14.805  2.1910  2.1626  0.5008
12866TIP3    H260014   3.300   6.954  14.851  0.1667  0.6911 -0.7600
12867TIP3   OH260015   2.264   5.170   1.584  0.0138 -0.7449  0.3057
12867TIP3    H160016   2.251   5.259   1.551 -0.2634 -0.8364  0.1661
12867TIP3    H260017   2.256   5.115   1.506  0.8524 -0.8417  0.2735
12868TIP3   OH260018   2.747   4.988  15.484  0.0850 -0.1603 -0.2582
12868TIP3    H160019   2.825   5.042  15.478  0.3965 -0.5572  0.1686
12868TIP3    H260020   2.696   5.010  15.406  0.2644  0.6488 -0.1444
12869TIP3   OH260021   1.117   7.220   1.166 -0.3870 -0.1754 -0.0520
12869TIP3    H160022   1.211   7.218   1.150 -0.1008 -1.4633  1.6824
12869TIP3    H260023   1.081   7.157   1.103 -0.3449  1.7207 -2.0534
12870TIP3   OH260024   3.005   6.862  15.502  0.0030  0.0537  0.2586
12870TIP3    H160025   2.987   6.952  15.474 -1.8408  0.1714  1.7714
12870TIP3    H260026   2.987   6.861  15.595  1.4433 -1.5526  0.5509
12871TIP3   OH260027   0.188   6.189  15.845 -0.2181 -0.3679  0.1438
12871TIP3    H160028   0.131   6.181  15.769  0.8111 -0.7095 -0.5888
12871TIP3    H260029   0.195   6.284  15.860 -2.6223 -0.3540  1.4982
12872TIP3   OH260030   7.300   0.599   0.684 -0.4536 -0.0303  0.1317
12872TIP3    H160031   7.252   0.662   0.629 -1.8210 -0.0223  1.3079
12872TIP3    H260032   7.244   0.521   0.684  0.8487 -0.9854 -0.6655
12873TIP3   OH260033   3.080   1.595   2.376  0.5415 -0.6273  0.3280
12873TIP3    H160034   3.138   1.664   2.346  1.2732 -0.8373  1.2345
12873TIP3    H260035   3.129   1.550   2.445 -0.0581 -1.8219  0.0023
12874TIP3   OH260036   2.204   7.154  15.654  0.0435  0.6280 -0.2175
12874TIP3    H160037   2.172   7.095  15.586  0.0700 -0.9341  1.0936
12874TIP3    H260038   2.125   7.196  15.689 -0.2902 -0.7623  0.7589
12875TIP3   OH260039   1.183   6.347   2.382  0.3031  0.3621  0.5713
12875TIP3    H160040   1.187   6.261   2.339  0.0824 -0.4577  2.1312
12875TIP3    H260041   1.108   6.340   2.441 -0.4464  2.0612 -0.1481
12876TIP3   OH260042   1.917   5.528  15.981  0.3340  0.2859 -0.1388
12876TIP3    H160043   1.955   5.614  15.965 -0.8198  0.3884 -2.5151
12876TIP3    H260044   1.992   5.469  15.986  1.0886  1.2891  0.7725
12877TIP3   OH260045   5.291   5.250  15.397 -1.3108  0.2309 -0.0206
12877TIP3    H160046   5.355   5.290  15.456 -2.1822  1.5577  0.0347
12877TIP3    H260047   5.250   5.181  15.449  1.1475 -1.6881 -0.5456
12878TIP3   OH260048   3.192   5.660   2.644 -0.1570 -0.1553  0.4421
12878TIP3    H160049   3.242   5.589   2.604 -0.3454  0.7481 -1.4274
12878TIP3    H260050   3.251   5.697   2.710  1.3150  0.2878 -1.0831
12879TIP3   OH260051   2.586   6.686  13.915 -0.0200 -0.4380  0.1506
12879TIP3    H160052   2.623   6.641  13.839  1.5868  0.6119  0.2894
12879TIP3    H260053   2.589   6.779  13.891 -0.0137 -0.1474  1.2721
12880TIP3   OH260054   3.512   2.715   0.212 -0.0807  0.0558 -0.0379
12880TIP3    H160055   3.444   2.762   0.261 -0.4748  0.1734 -0.6910
12880TIP3    H260056   3.591   2.766   0.227  0.1662 -0.8151  1.8300
12881TIP3   OH260057   2.438   6.534   0.913 -0.2281  0.5023 -0.7750
12881TIP3    H160058   2.403   6.481   0.842  0.6689  0.4323 -1.1738
12881TIP3    H260059   2.532   6.537   0.897 -0.0530  0.7390  0.2395
12882TIP3   OH260060   1.650   7.269   1.820 -0.1278 -0.3096  0.0583
12882TIP3    H160061   1.696   7.311   1.893 -0.7870 -0.8632  0.7984
12882TIP3    H260062   1.578   7.223   1.861 -0.3618 -0.8280 -0.9312
12883TIP3   OH260063   2.935   5.575   1.091  0.0839  0.0292  0.4481
12883TIP3    H160064   2.871   5.594   1.023  0.7577 -0.5135 -0.3319
12883TIP3    H260065   2.961   5.662   1.124  0.5905  0.3329 -0.7482
12884TIP3   OH260066   2.974   5.062  15.183  0.0747  0.3502 -0.2822
12884TIP3    H160067   2.920   4.984  15.171  1.4600 -0.5229 -0.9395
12884TIP3    H260068   3.031   5.064  15.106  0.2921  1.8206 -0.0998
12885TIP3   OH260069   2.175   6.392   0.352 -0.4626 -0.2871 -0.6161
12885TIP3    H160070   2.118   6.469   0.356 -0.3432 -0.0633 -2.5839
12885TIP3    H260071   2.264   6.428   0.348 -0.4116 -0.5024 -1.6639
12886TIP3   OH260072   1.563   0.381  14.531 -0.0551 -0.3924  0.1030
12886TIP3    H160073   1.610   0.320  14.588 -0.2237  0.4908  1.2211
12886TIP3    H260074   1.629   0.444  14.503 -0.5296  0.8358  1.6569
12887TIP3   OH260075   2.857   6.825  12.986 -0.4365  0.8231 -0.3467
12887TIP3    H160076   2.843   6.789  12.899  0.9138  0.1720 -0.3064
12887TIP3    H260077   2.782   6.795  13.037 -0.1725 -0.5344 -0.7476
12888TIP3   OH260078   3.154   6.508   1.611 -0.2305 -0.9555 -0.3063
12888TIP3    H160079   3.111   6.474   1.690 -1.3143 -3.9427 -2.1169
12888TIP3    H260080   3.084   6.553   1.563  0.4647  0.9971  0.4352
12889TIP3   OH260081   2.583   5.305   3.722  0.0908  0.0598 -0.2227
12889TIP3    H160082   2.592   5.230   3.780  1.8832  0.9804  0.7231
12889TIP3    H260083   2.627   5.277   3.641  1.5682  0.3875  0.4427
12890TIP3   OH260084   6.653   6.420   1.903  0.3740 -0.1253  0.2560
12890TIP3    H160085   6.652   6.512   1.931 -0.4566  0.0537 -0.3429
12890TIP3    H260086   6.746   6.396   1.903  0.5417  0.4834  1.1597
12891TIP3   OH260087   2.660   6.029  14.301  0.2915 -0.0570  0.3963
12891TIP3    H160088   2.732   6.002  14.245 -0.1398  1.3434 -0.8670
12891TIP3    H260089   2.701   6.061  14.381  1.0129 -0.1954  0.0800
12892TIP3   OH260090   4.174   2.238   1.163  0.3489  0.2865 -0.3796
12892TIP3    H160091   4.106   2.280   1.216  0.4784  1.6636 -1.2980
12892TIP3    H260092   4.255   2.254   1.211  0.2729  0.2317 -0.2312
12893TIP3   OH260093   3.763   6.100   0.060  0.2689 -0.1274 -0.2495
12893TIP3    H160094   3.830   6.035   0.082  1.6593  1.3691  0.0779
12893TIP3    H260095   3.768   6.108  -0.035  1.5930  1.0204 -0.1052
12894TIP3   OH260096   2.453   7.104   1.662 -0.2526  0.0341 -0.2873
12894TIP3    H160097   2.514   7.138   1.727 -1.6761  1.8893  0.1034
12894TIP3    H260098   2.497   7.120   1.578  1.2500 -1.6858  0.1358
12895TIP3   OH260099   2.257   4.786  15.311 -0.2481  0.0653 -0.3377
12895TIP3    H160100   2.180   4.736  15.288 -0.6782  0.1834  0.7968
12895TIP3    H260101   2.314   4.781  15.234 -0.6116 -1.5205 -0.5054
12896TIP3   OH260102   3.240   0.025   0.036  0.3372  0.1100  0.2917
12896TIP3    H160103   3.320   0.077   0.032  0.8725 -0.5881  1.7439
12896TIP3    H260104   3.267  -0.064   0.012 -0.0106 -0.1299  0.7834
12897TIP3   OH260105   3.626   6.072   1.192  0.1109 -0.1448 -0.3813
12897TIP3    H160106   3.677   6.000   1.154  0.6870  0.3155 -0.4938
12897TIP3    H260107   3.542   6.068   1.146  0.8487  0.4778 -1.8100
12898TIP3   OH260108   3.926   3.876   1.471  0.2336 -0.5366  0.0024
12898TIP3    H160109   4.013   3.892   1.509  1.6760 -1.4148 -2.8367
12898TIP3    H260110   3.897   3.794   1.511  1.1512 -0.7699  0.1915
12899TIP3   OH260111   1.160   6.566  15.876  0.0406  0.2063 -0.0890
12899TIP3    H160112   1.066   6.561  15.896  0.0705  2.3138  0.6725
12899TIP3    H260113   1.203   6.568  15.961  0.7934 -0.6102 -0.4389
12900TIP3   OH260114   1.942   0.526   0.889 -0.3258  0.1014  0.2610
12900TIP3    H160115   1.961   0.518   0.795 -1.3192  1.3516 -0.0569
12900TIP3    H260116   1.989   0.605   0.916  0.6161 -0.6998  1.0110
12901TIP3   OH260117   2.881   0.018  15.935 -0.0123  0.2348  0.0662
12901TIP3    H160118   2.815  -0.024  15.879 -0.8734  1.6775 -0.0354
12901TIP3    H260119   2.937   0.066  15.875  0.4646 -0.0795  0.2546
12902TIP3   OH260120   2.216   2.761   0.995  0.7787 -0.0110  0.3110
12902TIP3    H160121   2.237   2.820   1.066  0.5787  0.4443 -0.0047
12902TIP3    H260122   2.164   2.814   0.934  1.5549 -0.1995 -0.5186
12903TIP3   OH260123   1.206   7.219   2.842  0.4593 -0.0849 -0.2049
12903TIP3    H160124   1.122   7.265   2.851 -0.0428 -1.1274  0.5409
12903TIP3    H260125   1.203   7.151   2.910  1.3382 -1.0026 -1.0760
12904TIP3   OH260126   2.942   1.461  15.536  0.1783 -0.5365 -0.0120
12904TIP3    H160127   2.922   1.487  15.446 -0.6034  0.1220  0.3448
12904TIP3    H260128   2.930   1.366  15.538 -1.5983 -0.3180 -0.1479
12905TIP3   OH260129   5.632   6.074   0.913 -0.2173 -0.2932 -0.8766
12905TIP3    H160130   5.566   6.007   0.899 -0.4928 -0.3084  0.4620
12905TIP3    H260131   5.712   6.038   0.874 -0.4804 -1.1739 -0.5926
12906TIP3   OH260132   4.037   1.250   0.585  0.4692  0.2654 -0.2178
12906TIP3    H160133   3.976   1.183   0.555  1.2023 -0.6625  0.3436
12906TIP3    H260134   4.115   1.239   0.530  1.5425 -0.9804  1.4808
12907TIP3   OH260135   2.611   7.245   1.122  0.2390 -0.1344  0.1686
12907TIP3    H160136   2.586   7.284   1.039 -0.3745 -0.6246  0.1163
12907TIP3    H260137   2.695   7.286   1.144 -0.6552  1.6015  0.3913
12908TIP3   OH260138   4.023   0.310   0.846 -0.3854 -0.0696 -0.7001
12908TIP3    H160139   4.071   0.293   0.927  0.8327 -1.4479 -1.6784
12908TIP3    H260140   3.931   0.296   0.869  0.0083 -1.0870  0.2909
12909TIP3   OH260141   1.770   6.762   1.025 -0.2101  0.5626  0.5688
12909TIP3    H160142   1.812   6.681   1.055 -1.8741 -0.4191  0.2903
12909TIP3    H260143   1.767   6.817   1.103  0.8473  0.3484  0.7795
12910TIP3   OH260144   2.369   6.570   0.342  0.1709  0.0098  0.4474
12910TIP3    H160145   2.424   6.604   0.272  2.6716  1.4225  2.9696
12910TIP3    H260146   2.375   6.636   0.411 -1.3074 -1.8383  2.4233
12911TIP3   OH260147   1.523   3.335   2.782 -0.0195  0.5639 -0.1350
12911TIP3    H160148   1.564   3.395   2.720 -0.3981 -2.0786 -3.0683
12911TIP3    H260149   1.440   3.377   2.805  0.0087  1.4776 -1.6463
12912TIP3   OH260150   3.089   1.257   0.374 -0.4036  0.0874 -0.1612
12912TIP3    H160151   3.126   1.307   0.302 -1.7639  1.8595  0.3419
12912TIP3    H260152   3.033   1.192   0.332  1.0138 -0.7591 -0.7919
12913TIP3   OH260153   4.711   2.219   1.595  0.2719  0.2629 -0.4020
12913TIP3    H160154   4.778   2.154   1.614  1.0740  1.2976  0.3540
12913TIP3    H260155   4.751   2.303   1.617 -1.3093  0.8910  0.1596
12914TIP3   OH260156   4.558   1.725   0.323  0.5941 -0.7545 -0.0322
12914TIP3    H160157   4.568   1.812   0.362  0.7111 -0.4936 -0.6359
12914TIP3    H260158   4.540   1.742   0.230 -1.3957 -1.3078  0.2149
12915TIP3   OH260159   4.140   5.286   2.211 -0.5656  0.2288 -0.0661
12915TIP3    H160160   4.136   5.353   2.142  0.5660 -0.4111 -0.7623
12915TIP3    H260161   4.229   5.252   2.206 -1.2120 -1.5163  0.1223
12916TIP3   OH260162   3.872   0.012   0.850  0.2168 -0.3935 -0.1958
12916TIP3    H160163   3.886   0.080   0.915  1.2407 -0.2250 -0.5772
12916TIP3    H260164   3.845  -0.065   0.900  0.3175 -0.0677  0.3573
12917TIP3   OH260165   3.142   6.501  15.305  0.2204  0.1532  0.1352
12917TIP3    H160166   3.141   6.595  15.323 -0.6379  0.0433  0.7043
12917TIP3    H260167   3.229   6.473  15.334  0.2874  0.6774  0.4581
12918TIP3   OH260168   2.873   5.578   0.084  0.5026 -0.3167 -0.3231
12918TIP3    H160169   2.934   5.649   0.064  0.1974 -0.0575 -0.3393
12918TIP3    H260170   2.881   5.566   0.178 -0.3863  0.6109 -0.1238
12919TIP3   OH260171   6.273   7.125  15.646  0.3350 -0.4774 -0.0923
12919TIP3    H160172   6.351   7.180  15.642  0.2350 -0.4226 -1.9961
12919TIP3    H260173   6.302   7.044  15.687  0.7398  0.5748  1.7232
12920TIP3   OH260174   5.614   0.630   0.880 -0.6267  0.1166  0.1068
12920TIP3    H160175   5.671   0.553   0.879 -0.4986  0.2186 -0.5730
12920TIP3    H260176   5.563   0.621   0.961 -2.2492 -1.8679 -1.0850
12921TIP3   OH260177   5.478   5.178   1.428  0.1922 -0.2265 -0.4054
12921TIP3    H160178   5.442   5.229   1.501 -0.0509  0.2122 -0.8290
12921TIP3    H260179   5.434   5.212   1.351  0.1333 -0.9897 -0.7113
12922TIP3   OH260180   4.288   6.960   0.881  0.1697 -0.3506  0.0408
12922TIP3    H160181   4.265   6.913   0.801 -1.5444 -1.3318  1.0897
12922TIP3    H260182   4.205   6.985   0.919  0.9061 -1.4177  2.4157
12923TIP3   OH260183   3.306   0.489   2.291  0.1724 -0.5275 -0.4883
12923TIP3    H160184   3.231   0.470   2.346 -0.2370 -1.5076 -1.3635
12923TIP3    H260185   3.346   0.403   2.273  0.6980 -0.1598 -1.1450
12924TIP3   OH260186   2.911   1.047   2.465  0.3177 -0.3128 -0.2926
12924TIP3    H160187   2.972   1.097   2.411 -2.2238  2.8141 -0.4265
12924TIP3    H260188   2.840   1.022   2.404 -1.4126  1.2467  1.0109
12925TIP3   OH260189   2.008   0.948   0.969 -0.1285 -0.0500  0.0672
12925TIP3    H160190   2.081   0.942   1.031 -0.1105  0.3033  0.0837
12925TIP3    H260191   1.936   0.903   1.012  0.4034 -1.4167 -0.4409
12926TIP3   OH260192   3.134   6.653  14.892 -0.2614  0.4083 -0.6646
12926TIP3    H160193   3.101   6.569  14.925 -0.1705 -0.0914 -1.8089
12926TIP3    H260194   3.213   6.670  14.943 -0.3208 -0.1627 -0.3787
12927TIP3   OH260195   2.246   5.759   2.430 -0.2086  0.3270  0.1991
12927TIP3    H160196   2.225   5.842   2.388 -1.7918  0.6364  1.5343
12927TIP3    H260197   2.216   5.770   2.521 -2.1215 -2.3419 -0.0573
12928TIP3   OH260198   2.661   7.042   0.304 -0.0826 -0.1493 -0.0575
12928TIP3    H160199   2.721   7.060   0.231 -1.4179 -0.2461 -1.1934
12928TIP3    H260200   2.574   7.056   0.267 -0.7338  0.6138  1.7621
12929TIP3   OH260201   1.300   5.501  15.176 -0.3169  0.0232 -0.1637
12929TIP3    H160202   1.382   5.528  15.216  0.7441  1.1440 -3.0114
12929TIP3    H260203   1.242   5.576  15.186 -0.8398 -0.5508  1.3062
12930TIP3   OH260204   1.372   6.809  14.826  0.4273  0.5497  0.0905
12930TIP3    H160205   1.384   6.868  14.900  2.0602  0.2959  0.0529
12930TIP3    H260206   1.398   6.860  14.749  2.6563 -0.4452  0.1466
12931TIP3   OH260207   2.362   0.195  14.828  0.0449  0.2390 -0.5246
12931TIP3    H160208   2.296   0.218  14.762  0.3887  2.1300 -0.2429
12931TIP3    H260209   2.444   0.229  14.792  0.3448  0.6806  0.5560
12932TIP3   OH260210   1.468   6.989   1.614 -0.2966  0.3116 -0.1425
12932TIP3    H160211   1.488   6.896   1.609 -0.7372  0.2377 -0.5901
12932TIP3    H260212   1.553   7.033   1.608 -0.1388 -0.0435 -0.5160
12933TIP3   OH260213   2.557   0.022   0.860  0.6594  0.0674 -0.1936
12933TIP3    H160214   2.513  -0.056   0.827 -0.5862  0.6059  0.1760
12933TIP3    H260215   2.638   0.027   0.809  0.5136 -1.1791 -0.5680
12934TIP3   OH260216   0.907   5.555  15.566  0.0301 -0.0314 -0.2708
12934TIP3    H160217   0.956   5.505  15.500  1.4946  0.9597  0.0400
12934TIP3    H260218   0.968   5.624  15.594 -0.9160  0.1576  1.4082
12935TIP3   OH260219   2.644   6.417   2.362  0.2829  0.1244  0.0392
12935TIP3    H160220   2.632   6.405   2.456  1.5793  0.4174  0.2533
12935TIP3    H260221   2.658   6.328   2.328 -0.2631  0.0116  0.1132
12936TIP3   OH260222   3.559   5.600  14.348  0.0783 -0.9275 -0.8620
12936TIP3    H160223   3.501   5.618  14.275 -0.5133 -0.7178 -0.3412
12936TIP3    H260224   3.579   5.506  14.340  0.0833 -0.8878 -1.3365
12937TIP3   OH260225   0.817   0.956   0.032  0.1492 -0.4415 -0.0112
12937TIP3    H160226   0.855   0.939   0.117 -0.1679 -0.1236  0.1976
12937TIP3    H260227   0.799   0.870  -0.005  0.8704 -0.5875 -0.0246
12938TIP3   OH260228   3.963   7.292   1.858 -0.6065 -0.0938  0.5157
12938TIP3    H160229   3.896   7.286   1.926 -1.8426 -1.6464 -0.7906
12938TIP3    H260230   3.942   7.372   1.811 -1.3745 -0.4052  0.3168
12939TIP3   OH260231   1.725   0.063   1.281 -0.1196  0.2014 -0.3029
12939TIP3    H160232   1.753   0.122   1.211 -1.2965 -0.3508 -1.2543
12939TIP3    H260233   1.744   0.110   1.362  2.3083  0.4009 -0.9477
12940TIP3   OH260234   1.625   6.432   0.894 -0.2288 -0.5870 -0.0840
12940TIP3    H160235   1.636   6.388   0.809 -1.0348 -2.5072  0.7537
12940TIP3    H260236   1.599   6.521   0.872 -0.3061 -1.0317 -1.8715
12941TIP3   OH260237   3.580   0.332  15.297  0.4864 -0.1101 -0.0810
12941TIP3    H160238   3.508   0.387  15.326  2.2410  3.3587 -1.9527
12941TIP3    H260239   3.539   0.263  15.246 -1.6789  0.1927  1.1743
12942TIP3   OH260240   5.757   6.351   0.081  0.2528 -0.0872  0.1831
12942TIP3    H160241   5.678   6.405   0.087  1.5194  1.7556  0.8002
12942TIP3    H260242   5.809   6.375   0.158  0.9428 -2.0806  0.3769
12943TIP3   OH260243   4.083   1.195   2.101  0.0994 -0.0778 -0.0872
12943TIP3    H160244   4.009   1.142   2.130 -0.4466  1.3754  1.2285
12943TIP3    H260245   4.043   1.272   2.060  0.8914 -0.0855 -0.9028
12944TIP3   OH260246   2.797   0.226   3.074 -0.2020 -0.6230 -0.4104
12944TIP3    H160247   2.733   0.203   3.141 -0.2349 -0.3014 -0.3321
12944TIP3    H260248   2.832   0.142   3.045  0.2412 -0.7307  0.4327
12945TIP3   OH260249   1.482   1.323  15.977  0.4891  0.6256  0.0260
12945TIP3    H160250   1.463   1.284  15.891 -0.3927  1.2358 -0.0633
12945TIP3    H260251   1.544   1.263  16.017 -1.1418 -1.0867  0.0453
12946TIP3   OH260252   3.367   0.673   0.676 -0.1193 -0.3124 -0.1509
12946TIP3    H160253   3.389   0.634   0.761 -0.0815  0.7160  0.3235
12946TIP3    H260254   3.434   0.740   0.663 -0.2803 -0.2918 -0.8669
12947TIP3   OH260255   2.469   5.320  14.456 -0.6239  0.3684 -0.2691
12947TIP3    H160256   2.564   5.316  14.469 -0.3836  2.7347 -1.0249
12947TIP3    H260257   2.458   5.350  14.366 -2.0718  1.0916  0.1226
12948TIP3   OH260258   3.591   6.037   0.859  0.1325  0.4906  0.2590
12948TIP3    H160259   3.578   6.067   0.769 -1.2731 -1.7560 -0.3173
12948TIP3    H260260   3.503   6.038   0.898  0.6258  0.7727  1.4087
12949TIP3   OH260261   2.861   6.200   0.646 -0.0027  0.0358  0.0718
12949TIP3    H160262   2.939   6.255   0.647  0.4766 -0.6068 -1.2205
12949TIP3    H260263   2.879   6.131   0.710 -0.7384  1.5209  1.9370
12950TIP3   OH260264   6.199   6.431   2.440 -0.4031 -0.3910 -0.0356
12950TIP3    H160265   6.196   6.463   2.350  0.3293  1.0180  0.4234
12950TIP3    H260266   6.172   6.505   2.493 -0.0988 -0.9766  0.9613
12951TIP3   OH260267   1.583   7.155  14.739 -0.0737  0.0870 -0.2728
12951TIP3    H160268   1.491   7.144  14.764 -0.2368  0.0061 -0.9079
12951TIP3    H260269   1.583   7.227  14.676  0.1930 -0.4448 -0.8866
12952TIP3   OH260270   4.814   6.082   4.141 -0.5737 -0.3168  0.0319
12952TIP3    H160271   4.784   6.127   4.061  2.4621 -0.4425 -1.2461
12952TIP3    H260272   4.828   5.992   4.113 -0.8045 -0.6682  1.0589
12953TIP3   OH260273   4.082   1.719  15.608  0.1637  0.3582 -0.8568
12953TIP3    H160274   4.104   1.797  15.659  0.5210  0.1261 -0.6593
12953TIP3    H260275   4.077   1.751  15.517 -2.9196  1.2878 -0.4248
12954TIP3   OH260276   3.487   1.090   1.667 -0.0465 -0.7779 -0.7021
12954TIP3    H160277   3.569   1.088   1.618 -0.9059 -2.0837 -2.1377
12954TIP3    H260278   3.440   1.013   1.637 -1.9262  0.1199 -0.1143
12955TIP3   OH260279   1.951   0.101  13.873 -0.0455 -0.4301  0.6535
12955TIP3    H160280   1.947   0.111  13.778  0.1341 -1.8820  0.4910
12955TIP3    H260281   2.043   0.083  13.891 -0.1268 -0.4071  1.0859
12956TIP3   OH260282   1.416   6.056  14.882  0.3127  0.3724  0.3870
12956TIP3    H160283   1.353   6.056  14.810 -2.0484 -0.3058  2.3842
12956TIP3    H260284   1.398   6.137  14.929 -0.6312 -0.8852  2.2507
12957TIP3   OH260285   2.158   0.841   0.224  0.4893 -0.1992  0.4251
12957TIP3    H160286   2.237   0.866   0.177 -1.0061 -0.6738 -2.4325
12957TIP3    H260287   2.132   0.920   0.271  0.8408  0.9573 -1.2766
12958TIP3   OH260288   3.197   0.839  15.911  0.5095  0.0248  0.4012
12958TIP3    H160289   3.213   0.879  15.826  1.1311  0.5516  0.7579
12958TIP3    H260290   3.123   0.889  15.947 -0.6502 -1.0851 -0.3903
12959TIP3   OH260291   1.454   1.955  15.011  0.0645 -0.0656  0.4191
12959TIP3    H160292   1.498   1.886  15.060 -1.3654  0.1264  2.0390
12959TIP3    H260293   1.455   2.030  15.069 -0.6603  0.5071 -0.2946
12960TIP3   OH260294   3.613   7.234   3.066 -0.0732  0.2435 -0.0352
12960TIP3    H160295   3.621   7.262   3.157 -0.9715 -0.8391  0.3918
12960TIP3    H260296   3.519   7.239   3.048  0.1426  0.8411 -1.0364
12961TIP3   OH260297   2.012   5.690  15.271  0.0280 -0.3255 -0.1426
12961TIP3    H160298   1.942   5.631  15.297 -0.9737  1.1496  0.5976
12961TIP3    H260299   1.986   5.720  15.183 -1.0716  1.3793  0.7403
12962TIP3   OH260300   4.893   0.082   0.892 -0.0528  0.1359  0.2406
12962TIP3    H160301   4.827   0.099   0.825  0.5443  1.7855  0.0405
12962TIP3    H260302   4.848   0.099   0.975 -0.8645 -2.1488  0.3105
12963TIP3   OH260303   0.703   2.535  15.253  0.4092 -0.0980  0.5113
12963TIP3    H160304   0.678   2.452  15.214  1.4733 -0.2140  0.0558
12963TIP3    H260305   0.696   2.599  15.182 -0.6726  0.2565  0.9304
12964TIP3   OH260306   3.131   7.032   2.007  0.0519  0.4300 -0.5503
12964TIP3    H160307   3.113   7.116   1.965  0.8609  0.5872 -0.5850
12964TIP3    H260308   3.226   7.029   2.014  0.0080 -0.3663 -0.3051
12965TIP3   OH260309   2.146   7.259   0.911  0.0768  0.4177  0.6372
12965TIP3    H160310   2.124   7.346   0.878  2.0856  0.5856 -0.3526
12965TIP3    H260311   2.190   7.275   0.994 -3.1691  0.0953  2.5040
12966TIP3   OH260312   2.300   6.895   0.434 -0.2373 -0.0628 -0.1620
12966TIP3    H160313   2.305   6.955   0.360  0.5252 -0.7709 -0.7006
12966TIP3    H260314   2.210   6.862   0.433 -1.1337  2.2797  1.1234
12967TIP3   OH260315   1.645   7.087  15.372 -0.7417  0.4091  0.2631
12967TIP3    H160316   1.647   7.133  15.456 -0.3365 -1.5391  1.3649
12967TIP3    H260317   1.560   7.044  15.370 -2.5492  3.8981 -2.3122
12968TIP3   OH260318   3.565   0.564  15.796  0.0617 -0.0310  0.0676
12968TIP3    H160319   3.538   0.499  15.860 -2.3054 -0.9207 -1.7860
12968TIP3    H260320   3.640   0.525  15.752  0.4407 -0.2604  0.9006
12969TIP3   OH260321   1.387   5.084  14.429 -0.7551 -0.6718 -1.0343
12969TIP3    H160322   1.362   5.175  14.445  2.6060 -0.1208  1.6695
12969TIP3    H260323   1.450   5.089  14.358  0.0699 -0.7561 -0.3194
12970TIP3   OH260324   7.193   0.313   0.740 -0.1291 -0.8253 -0.0653
12970TIP3    H160325   7.113   0.287   0.694 -0.5578 -1.0233  0.7710
12970TIP3    H260326   7.259   0.250   0.712 -0.0760 -0.2225 -1.3257
12971TIP3   OH260327   1.593   7.165   1.400  0.6780  0.3059  0.5609
12971TIP3    H160328   1.650   7.223   1.349  0.8304  0.7022  1.1721
12971TIP3    H260329   1.652   7.096   1.432  0.3659 -0.6040 -0.7581
12972TIP3   OH260330   2.698   0.434   0.613  0.4341  0.7668  0.0994
12972TIP3    H160331   2.687   0.387   0.530  1.6211 -0.9522  0.8809
12972TIP3    H260332   2.643   0.386   0.675  0.7280  1.1384  0.6491
12973TIP3   OH260333   2.683   5.791  14.643  0.7277  0.4228  0.1131
12973TIP3    H160334   2.764   5.754  14.609  0.2443 -1.2220  0.6843
12973TIP3    H260335   2.640   5.717  14.687 -1.8923  0.8250 -1.6894
12974TIP3   OH260336   3.691   5.713   1.087 -0.0035 -0.0694 -0.5630
12974TIP3    H160337   3.752   5.784   1.107  0.8389 -0.0881 -2.9422
12974TIP3    H260338   3.741   5.633   1.103 -0.3794 -0.1360  0.3485
12975TIP3   OH260339   2.856   7.141   1.615 -0.2165  0.5899 -0.5046
12975TIP3    H160340   2.763   7.120   1.626  0.5330 -2.0873  1.1314
12975TIP3    H260341   2.886   7.164   1.703  1.0039 -0.0781 -0.7356
12976TIP3   OH260342   1.072   7.243  14.374  0.4102  0.0213 -0.3767
12976TIP3    H160343   1.121   7.216  14.452  2.1620 -0.0618 -1.4967
12976TIP3    H260344   1.085   7.172  14.311 -2.2601 -0.6493 -0.2547
12977TIP3   OH260345   3.432   6.976  12.965  0.6233  0.2958 -0.0089
12977TIP3    H160346   3.459   7.026  12.888  3.0134  0.4192  0.8649
12977TIP3    H260347   3.337   6.989  12.970  0.6045  1.2248 -2.2540
12978TIP3   OH260348   2.161   7.090  14.943  0.0725 -0.4327  0.3755
12978TIP3    H160349   2.223   7.151  14.983 -1.2956  0.1243  1.7291
12978TIP3    H260350   2.128   7.136  14.867  0.6783 -0.3859  0.1376
12979TIP3   OH260351   1.627   6.688  15.219  0.0615 -0.0118  0.7645
12979TIP3    H160352   1.618   6.783  15.221  1.2537  0.0854  1.3643
12979TIP3    H260353   1.682   6.671  15.143 -0.4604 -0.2561  0.4369
12980TIP3   OH260354   2.723   6.976   0.926  0.1434 -0.9232  0.2647
12980TIP3    H160355   2.710   6.912   0.856 -1.0362  1.7072 -2.0074
12980TIP3    H260356   2.636   7.013   0.940  1.1627  1.5681  0.1324
12981TIP3   OH260357   2.740   1.721   2.440  0.0805 -0.0741  0.0996
12981TIP3    H160358   2.655   1.704   2.401  0.3088  0.4580 -0.6530
12981TIP3    H260359   2.741   1.670   2.521 -0.8907 -0.1951  0.0361
12982TIP3   OH260360   2.036   0.157   2.693 -0.4570  0.0885 -0.4160
12982TIP3    H160361   2.057   0.223   2.627 -0.7384  0.4236 -0.1730
12982TIP3    H260362   1.980   0.203   2.756  1.7423  0.4225  1.3241
12983TIP3   OH260363   3.521   6.452   2.954  0.5013 -0.4511  0.3924
12983TIP3    H160364   3.511   6.423   3.045  0.3920  0.6359  0.7235
12983TIP3    H260365   3.440   6.499   2.935  0.4932 -0.7429 -0.2926
12984TIP3   OH260366   1.464   0.465   2.838  0.4787  0.2908 -0.5799
12984TIP3    H160367   1.490   0.417   2.917  0.1035  0.7154 -0.1972
12984TIP3    H260368   1.387   0.514   2.864  0.0101 -0.0179 -1.3797
12985TIP3   OH260369   2.179   0.011  15.362 -0.0183 -0.2825 -0.3656
12985TIP3    H160370   2.113  -0.056  15.378 -1.4193  1.1753  0.0309
12985TIP3    H260371   2.140   0.068  15.296 -0.1248  1.9068  1.5313
12986TIP3   OH260372   4.987   6.862  14.998  0.1802  0.4671  0.1069
12986TIP3    H160373   5.026   6.865  15.085 -0.5279 -1.2139  0.5086
12986TIP3    H260374   5.054   6.822  14.943  0.2046  0.4942  0.1184
12987TIP3   OH260375   4.031   6.637   1.512  0.3147 -1.2644  0.0530
12987TIP3    H160376   3.941   6.648   1.481 -0.0077 -1.2651  0.9615
12987TIP3    H260377   4.075   6.592   1.441  0.7968  2.7203 -2.3168
12988TIP3   OH260378   3.138   1.578   0.261  0.1005  0.2311  0.4243
12988TIP3    H160379   3.174   1.602   0.347  0.3655  1.8719 -0.1255
12988TIP3    H260380   3.076   1.648   0.241  0.4698  0.1547 -0.9929
12989TIP3   OH260381   4.003   6.145  13.467 -0.3130  0.5338 -0.5307
12989TIP3    H160382   4.017   6.066  13.519 -0.2628 -0.2134 -1.6589
12989TIP3    H260383   4.051   6.129  13.386 -0.5003  1.6256 -0.8605
12990TIP3   OH260384   2.273   1.516  15.312  0.4836  0.1112 -0.4399
12990TIP3    H160385   2.306   1.566  15.386  1.9038 -1.6953  0.1851
12990TIP3    H260386   2.185   1.488  15.338  0.9089 -0.3636  0.5091
12991TIP3   OH260387   2.488   5.542  15.381  0.0427  0.1758  0.1306
12991TIP3    H160388   2.438   5.599  15.441  0.4751  0.6555  0.0392
12991TIP3    H260389   2.467   5.577  15.294  1.7626  1.3774  0.1786
12992TIP3   OH260390   2.779   6.035   1.743  0.0408  0.2993  0.1837
12992TIP3    H160391   2.756   6.075   1.827 -0.3641 -0.0689  0.2555
12992TIP3    H260392   2.738   6.092   1.677 -0.6706 -0.0845  0.2923
12993TIP3   OH260393   3.147   7.027  15.798  0.2908 -0.7629 -0.2329
12993TIP3    H160394   3.148   7.012  15.893  0.6625  0.8393  0.0351
12993TIP3    H260395   3.054   7.027  15.775  0.1397 -0.0097  0.3354
12994TIP3   OH260396   2.239   6.122   2.692 -0.1824  0.2274 -0.2106
12994TIP3    H160397   2.316   6.071   2.720 -1.5146 -0.6036  2.1395
12994TIP3    H260398   2.234   6.108   2.598  0.4466 -2.7087  0.1348
12995TIP3   OH260399   3.544   0.960   0.419 -0.2123  0.1132  0.0830
12995TIP3    H160400   3.550   0.966   0.515  0.8194 -1.2859  0.1303
12995TIP3    H260401   3.454   0.988   0.399 -1.5475 -2.6933  1.7694
12996TIP3   OH260402   3.639   6.867   0.566 -0.1315  0.0275  0.5802
12996TIP3    H160403   3.564   6.847   0.510 -0.5477  0.8264  0.8495
12996TIP3    H260404   3.601   6.909   0.643  0.7437  2.1128 -0.0862
12997TIP3   OH260405   1.683   5.647   2.843 -0.8829  0.4749 -0.6089
12997TIP3    H160406   1.713   5.660   2.933 -1.0089  0.3694 -0.5490
12997TIP3    H260407   1.711   5.558   2.822 -0.4720  0.6567 -0.8306
12998TIP3   OH260408   2.969   0.693  15.558 -0.2267 -0.3077  0.2401
12998TIP3    H160409   2.994   0.643  15.480  0.9410 -0.6959  0.8414
12998TIP3    H260410   2.874   0.698  15.555 -0.2522 -1.2487 -0.6366
12999TIP3   OH260411   3.628   6.216   2.835 -0.8163 -0.0556  0.4041
12999TIP3    H160412   3.596   6.305   2.850  0.1470  0.6386 -1.4878
12999TIP3    H260413   3.723   6.223   2.846 -0.8356 -1.1058  1.3477
13000TIP3   OH260414   4.759   6.431   0.036  0.4332  0.1984  0.2616
13000TIP3    H160415   4.843   6.454   0.075 -0.0253  0.4420  1.1182
13000TIP3    H260416   4.780   6.403  -0.053  1.7194 -2.0356  1.2084
13001TIP3   OH260417   3.236   1.237   1.675 -0.2274  0.3022 -0.3400
13001TIP3    H160418   3.322   1.196   1.684 -0.2741 -0.1155 -1.5959
13001TIP3    H260419   3.208   1.214   1.586 -3.0913 -2.3502  1.1330
13002TIP3   OH260420   4.335   6.809   2.179  0.0664  0.1544 -0.1538
13002TIP3    H160421   4.261   6.840   2.232 -0.3269  0.9373 -1.1401
13002TIP3    H260422   4.382   6.889   2.155 -1.3132  0.1238 -3.2691
13003TIP3   OH260423   4.677   6.984   2.795 -0.0122 -0.1655  0.0795
13003TIP3    H160424   4.590   7.008   2.825  0.2142  0.8711 -0.0522
13003TIP3    H260425   4.710   7.063   2.751  0.6100 -0.8522 -0.7236
13004TIP3   OH260426   2.151   5.311   0.407 -0.6378  0.0509 -0.0624
13004TIP3    H160427   2.214   5.269   0.466  0.1111  0.6999 -0.3884
13004TIP3    H260428   2.172   5.275   0.321 -1.1614 -0.2388 -0.0718
13005TIP3   OH260429   3.330   5.139   1.986 -0.1613 -0.1894 -0.5159
13005TIP3    H160430   3.329   5.214   2.046  1.5505 -1.1735  0.7753
13005TIP3    H260431   3.266   5.078   2.023  0.0563 -0.2994 -0.3160
13006TIP3   OH260432   0.893   5.877   1.720 -0.2471  0.2744 -0.0043
13006TIP3    H160433   0.922   5.967   1.728  1.4419 -0.1348 -1.2270
13006TIP3    H260434   0.910   5.838   1.806  0.4796  0.7243  0.0577
13007TIP3   OH260435   2.281   0.090  15.953  0.4422  0.2215 -0.1555
13007TIP3    H160436   2.351   0.036  15.990  0.6537  0.6361  0.0475
13007TIP3    H260437   2.325   0.151  15.895  0.0674 -0.6961 -1.4150
13008TIP3   OH260438   2.917   0.349   2.858 -0.3675 -0.0591  0.0898
13008TIP3    H160439   2.902   0.343   2.953 -0.0931  0.3238  0.1613
13008TIP3    H260440   2.939   0.260   2.832  0.4983  0.0006  0.5586
13009TIP3   OH260441   3.087   6.327   1.828  0.1906  0.3813  0.3217
13009TIP3    H160442   3.159   6.281   1.785  0.2905  1.7902 -1.1032
13009TIP3    H260443   3.094   6.303   1.920  1.3331 -0.9776 -0.1013
13010TIP3   OH260444   4.385   7.035   1.195 -0.1188  0.0078 -0.7218
13010TIP3    H160445   4.323   6.969   1.162  0.8013 -0.3340 -1.7952
13010TIP3    H260446   4.429   7.068   1.117  0.7507  0.5629 -0.0069
13011TIP3   OH260447   3.479   0.811  15.781 -0.5810 -0.1314  0.1407
13011TIP3    H160448   3.402   0.781  15.733 -0.2391 -2.2971  0.8998
13011TIP3    H260449   3.536   0.734  15.785  3.4925  2.3688 -3.9339
13012TIP3   OH260450   3.395   1.423   1.402 -0.2763  0.0781 -0.3733
13012TIP3    H160451   3.333   1.489   1.368  2.0021  0.9725 -3.0191
13012TIP3    H260452   3.347   1.341   1.397 -2.4169  1.2085  0.8632
13013TIP3   OH260453   4.096   6.175   0.536 -0.1343 -0.2142  0.0187
13013TIP3    H160454   4.003   6.158   0.524  0.1301 -2.4482  1.0146
13013TIP3    H260455   4.103   6.213   0.623 -0.2597  1.3937 -0.6483
13014TIP3   OH260456   3.806   0.264   1.823  0.0437  0.2313  0.2854
13014TIP3    H160457   3.710   0.257   1.826  0.0751  0.3829  2.6724
13014TIP3    H260458   3.823   0.355   1.798 -0.4197  0.1371 -0.3959
13015TIP3   OH260459   4.144   5.967  15.524  0.3331  0.2351  0.2453
13015TIP3    H160460   4.216   6.025  15.549  0.4229  0.2043  0.0638
13015TIP3    H260461   4.065   6.012  15.555  0.1924  1.6251 -1.9541
13016TIP3   OH260462   0.970   6.581   2.518 -0.3162  0.0271 -0.0513
13016TIP3    H160463   0.963   6.486   2.513 -0.4088  0.0582 -0.5457
13016TIP3    H260464   1.039   6.603   2.456 -2.1285  0.5071 -1.9410
13017TIP3   OH260465   4.343   6.582   2.312 -0.1846  0.2516  0.5195
13017TIP3    H160466   4.353   6.649   2.244 -0.4821  0.5594  0.7815
13017TIP3    H260467   4.367   6.626   2.393 -0.5016  0.0703  0.7083
13018TIP3   OH260468   4.013   0.865   1.859  0.0249  0.1793 -0.3323
13018TIP3    H160469   3.921   0.840   1.856  0.2161 -0.4795 -1.0169
13018TIP3    H260470   4.059   0.784   1.878  0.5061  0.3927 -0.5763
13019TIP3   OH260471   2.767   6.880  13.389 -0.0729 -0.4510  0.0402
13019TIP3    H160472   2.697   6.941  13.366 -0.0976  0.2271  1.8290
13019TIP3    H260473   2.744   6.799  13.343 -0.7600  0.4818 -1.2699
13020TIP3   OH260474   3.732   6.027   1.645  0.2403  0.0754  0.3445
13020TIP3    H160475   3.785   6.070   1.578  0.5844  0.3679  0.8019
13020TIP3    H260476   3.644   6.063   1.632  0.4694  0.7282  0.5541
13021TIP3   OH260477   5.024   6.098   1.808  0.2390 -0.8461  0.7480
13021TIP3    H160478   5.084   6.026   1.828 -0.3640 -1.9493 -1.2645
13021TIP3    H260479   4.938   6.065   1.832 -0.0789 -0.9546 -0.4827
13022TIP3   OH260480   2.542   2.721   1.966 -0.2161  0.8639  0.3341
13022TIP3    H160481   2.577   2.743   1.880 -1.0107  0.6557 -0.0387
13022TIP3    H260482   2.564   2.796   2.021  0.7850  0.7609  0.0985
13023TIP3   OH260483   1.600   0.337   1.916  0.3077 -0.4101 -0.2603
13023TIP3    H160484   1.679   0.372   1.874  0.3668 -0.5521 -0.2678
13023TIP3    H260485   1.612   0.242   1.913  0.5487 -0.4076  0.5286
13024TIP3   OH260486   3.694   2.184   2.265  0.8096  0.1905 -0.3003
13024TIP3    H160487   3.779   2.226   2.274  1.0023 -0.0776 -0.8475
13024TIP3    H260488   3.678   2.181   2.171  0.4307 -0.2241 -0.2262
13025TIP3   OH260489   3.374   6.213   2.250 -0.0336 -0.1534 -0.2467
13025TIP3    H160490   3.336   6.290   2.293 -1.4300 -0.9922  0.0728
13025TIP3    H260491   3.468   6.221   2.264  0.2377  3.4234 -3.3992
13026TIP3   OH260492   2.158   4.562   1.347  0.2846 -0.6638 -0.1029
13026TIP3    H160493   2.098   4.609   1.289 -0.4683  0.2677  1.3740
13026TIP3    H260494   2.100   4.515   1.408  1.0459 -2.2304 -0.5575
13027TIP3   OH260495   4.163   5.275   1.125  0.9562  0.7028  0.3725
13027TIP3    H160496   4.196   5.187   1.110  2.7856  1.4023  0.2034
13027TIP3    H260497   4.125   5.272   1.213 -0.7974 -0.7587 -0.4059
13028TIP3   OH260498   3.634   5.803   0.017 -0.0151  0.2100 -0.1003
13028TIP3    H160499   3.565   5.785  -0.046 -2.5362  2.0158  2.0237
13028TIP3    H260500   3.682   5.877  -0.020  0.1416 -0.3883 -1.0959
13029TIP3   OH260501   2.900   5.367  15.142 -0.6457 -0.2770 -0.0697
13029TIP3    H160502   2.926   5.275  15.147  0.8884  0.2433  2.7663
13029TIP3    H260503   2.846   5.381  15.220 -0.4184  1.3195 -0.1750
13030TIP3   OH260504   2.319   3.420   3.725  0.8623  0.3426 -0.0166
13030TIP3    H160505   2.259   3.345   3.725  2.8826 -1.3367  0.5481
13030TIP3    H260506   2.324   3.446   3.817  1.3813  0.1410  0.0143
13031TIP3   OH260507   3.908   0.213   3.075 -0.0316  0.2787 -0.7148
13031TIP3    H160508   3.929   0.174   2.991 -1.7905 -0.5313 -0.8151
13031TIP3    H260509   3.841   0.278   3.056 -0.1593  0.3668 -0.0086
13032TIP3   OH260510   4.846   0.929   4.166 -0.7203  0.1263 -0.6471
13032TIP3    H160511   4.795   1.009   4.159 -1.8312 -0.5710 -0.5822
13032TIP3    H260512   4.808   0.882   4.240 -1.3642 -1.3722 -1.9080
13033TIP3   OH260513   5.049   5.815   3.032  0.4023  0.1146  0.0820
13033TIP3    H160514   5.045   5.910   3.037  2.6984  0.2557 -0.3989
13033TIP3    H260515   4.974   5.791   2.978 -1.6113  1.4466  2.2093
13034TIP3   OH260516   4.385   0.899   2.167  0.4433  0.2464 -0.0894
13034TIP3    H160517   4.355   0.960   2.100  0.8453 -0.7276 -1.1619
13034TIP3    H260518   4.456   0.851   2.126  1.5141  0.4721  1.4392
13035TIP3   OH260519   3.846   6.838  15.609 -0.0056 -0.3759  0.1356
13035TIP3    H160520   3.874   6.748  15.625  0.6924  0.0107  1.1858
13035TIP3    H260521   3.917   6.891  15.646 -1.1046  0.6025  0.8633
13036TIP3   OH260522   4.245   6.857   0.367  0.6886  0.1397 -0.0210
13036TIP3    H160523   4.281   6.854   0.279 -0.0745  0.0289 -0.3313
13036TIP3    H260524   4.150   6.864   0.355  0.6541  1.1928  0.7842
13037TIP3   OH260525   5.052   7.120  15.392  0.5858 -0.4700  0.1335
13037TIP3    H160526   5.093   7.206  15.405  0.1717 -0.2263 -0.1730
13037TIP3    H260527   4.985   7.115  15.461  0.7240 -0.6213  0.2573
13038TIP3   OH260528   2.884   5.841   3.288  0.4942  0.4909  0.3326
13038TIP3    H160529   2.900   5.909   3.223 -1.4025 -0.0381 -0.7100
13038TIP3    H260530   2.864   5.888   3.368  0.5409  1.1587 -0.0473
13039TIP3   OH260531   2.421   6.578  15.396  0.0894 -0.7606  0.6686
13039TIP3    H160532   2.407   6.624  15.313  1.6492 -1.4506  0.0002
13039TIP3    H260533   2.439   6.487  15.370 -4.0135 -2.1003  1.9956
13040TIP3   OH260534   2.157   1.583   2.378 -0.4619  0.2932  0.4870
13040TIP3    H160535   2.152   1.610   2.286 -2.3442 -0.5857  0.3067
13040TIP3    H260536   2.204   1.655   2.421  0.7216  0.5704 -1.1972
13041TIP3   OH260537   3.152   0.323   0.741 -0.4805 -0.1341 -0.1469
13041TIP3    H160538   3.077   0.277   0.701  0.5961 -1.5742 -0.5495
13041TIP3    H260539   3.199   0.360   0.667  0.6967 -1.5480 -0.1288
13042TIP3   OH260540   5.160   4.775  15.408  0.0455 -0.3946 -0.1499
13042TIP3    H160541   5.094   4.800  15.343  0.0045  2.0013  0.7624
13042TIP3    H260542   5.109   4.737  15.480 -0.3186  0.8224  0.2569
13043TIP3   OH260543   1.490   7.207  15.622 -0.0537 -0.2354 -0.4881
13043TIP3    H160544   1.455   7.122  15.596  1.6223 -1.6083  1.5951
13043TIP3    H260545   1.429   7.239  15.688  0.4933 -0.8378  0.3153
13044TIP3   OH260546   3.944   7.154  15.770  0.1082 -0.2062 -0.0876
13044TIP3    H160547   3.873   7.217  15.780  0.2028 -0.2932  1.2118
13044TIP3    H260548   3.907   7.071  15.800  0.7421 -0.2521  0.5967
13045TIP3   OH260549   3.441   4.753  15.310  0.9340 -0.2068 -0.3346
13045TIP3    H160550   3.452   4.661  15.335 -0.1148 -0.1730  0.2937
13045TIP3    H260551   3.437   4.752  15.215  0.4294 -0.8761 -0.3131
13046TIP3   OH260552   1.775   4.682   1.965  0.4282  0.6101 -0.4018
13046TIP3    H160553   1.790   4.765   2.010  0.2275  0.5345 -0.1921
13046TIP3    H260554   1.681   4.684   1.944  0.2720  0.1228  0.2391
13047TIP3   OH260555   4.464   4.079   1.205 -0.0411 -0.8445  0.2750
13047TIP3    H160556   4.512   4.161   1.189 -2.0559  0.0208 -1.5958
13047TIP3    H260557   4.522   4.010   1.172  1.1158 -0.0697  0.6581
13048TIP3   OH260558   4.727   1.647   1.678 -0.0817 -0.5096  0.7764
13048TIP3    H160559   4.757   1.590   1.749  2.7979  2.2377  1.8495
13048TIP3    H260560   4.652   1.694   1.715 -0.0046 -0.7378  1.2252
13049TIP3   OH260561   5.103   7.197   0.033  0.6489  0.4828 -0.4574
13049TIP3    H160562   5.014   7.212   0.062  0.6801  3.5894 -1.7745
13049TIP3    H260563   5.094   7.149  -0.050  0.3388 -1.6051  0.7509
13050TIP3   OH260564   4.187   0.387   0.513  0.1704 -0.1365 -0.1335
13050TIP3    H160565   4.187   0.348   0.601 -0.3502 -0.4197 -0.2570
13050TIP3    H260566   4.095   0.402   0.493  0.2812 -0.1155 -0.6500
13051TIP3   OH260567   2.643   7.166   1.401 -0.3483 -0.7518 -0.5711
13051TIP3    H160568   2.588   7.175   1.323 -1.1810  2.4027  0.3234
13051TIP3    H260569   2.732   7.157   1.366 -0.6120  1.4634 -1.9107
13052TIP3   OH260570   3.617   6.458   1.671  0.1038 -0.0180 -0.5498
13052TIP3    H160571   3.538   6.508   1.648 -0.4051 -2.3285 -4.3244
13052TIP3    H260572   3.594   6.411   1.751 -1.7032  0.7794 -0.5781
13053TIP3   OH260573   3.500   6.655   0.789 -0.6000 -0.4897  0.4992
13053TIP3    H160574   3.542   6.628   0.707  0.1176  1.2543  0.2788
13053TIP3    H260575   3.496   6.750   0.784 -0.4173 -0.3536  2.5538
13054TIP3   OH260576   6.505   5.673   0.809  0.2001  0.0129  0.2152
13054TIP3    H160577   6.592   5.655   0.845  0.0884  1.3277  1.2083
13054TIP3    H260578   6.499   5.769   0.810 -1.3560 -0.0811  0.3845
13055TIP3   OH260579   4.619   0.331   1.399  0.0167  0.3980  0.0078
13055TIP3    H160580   4.689   0.268   1.384  1.8660  1.7971  2.3494
13055TIP3    H260581   4.640   0.404   1.339 -0.7001 -0.1387 -0.8959
13056TIP3   OH260582   2.986   5.881  15.797  0.3016  0.1035  0.3552
13056TIP3    H160583   3.024   5.858  15.882  0.3975  1.3492  0.6568
13056TIP3    H260584   2.893   5.893  15.816  0.3263  0.3974  0.2918
13057TIP3   OH260585   4.767   4.429   2.908  0.0863  0.2109  0.5517
13057TIP3    H160586   4.725   4.375   2.975 -0.2932  0.5921  0.6254
13057TIP3    H260587   4.745   4.386   2.825 -1.0613  0.7943  0.5330
13058TIP3   OH260588   4.147   4.770   1.779  0.2062  0.2427 -0.2145
13058TIP3    H160589   4.184   4.808   1.858 -1.1061 -1.9915  1.5475
13058TIP3    H260590   4.223   4.740   1.729  1.0040  0.5661  0.7736
13059TIP3   OH260591   3.215   5.509   1.821  0.4095  0.2125  0.4810
13059TIP3    H160592   3.123   5.505   1.796  0.4094 -1.9659  0.6717
13059TIP3    H260593   3.250   5.585   1.775 -0.6151 -1.0694 -2.5476
13060TIP3   OH260594   4.958   6.707  15.460  0.0264  0.3860  0.3525
13060TIP3    H160595   4.931   6.735  15.548  1.8977  0.0355  1.0771
13060TIP3    H260596   4.898   6.751  15.401 -1.4454  0.4134  1.8233
13061TIP3   OH260597   4.519   6.244   0.310 -0.0391  0.1990 -0.0599
13061TIP3    H160598   4.600   6.196   0.328  0.6209  1.2590 -0.2069
13061TIP3    H260599   4.462   6.223   0.384  0.5656 -0.1087  0.3214
13062TIP3   OH260600   3.353   5.157   2.758  0.2824 -0.0521  0.5862
13062TIP3    H160601   3.301   5.081   2.784 -0.4574 -0.3190 -1.5909
13062TIP3    H260602   3.443   5.135   2.782 -0.0944 -1.1062  1.0324
13063TIP3   OH260603   6.338   4.925   0.867 -0.0129  0.5466 -0.1798
13063TIP3    H160604   6.351   4.873   0.788 -0.6326 -0.2583  0.2347
13063TIP3    H260605   6.425   4.959   0.889 -0.0254  1.6122 -1.7721
13064TIP3   OH260606   5.488   5.083   0.143  0.0484 -0.0670 -0.0385
13064TIP3    H160607   5.501   5.023   0.070  1.3792 -1.1246  1.0453
13064TIP3    H260608   5.414   5.047   0.192  0.5641 -0.5920  0.3621
13065TIP3   OH260609   4.328   6.153   1.875  0.6087  0.4027 -0.2768
13065TIP3    H160610   4.416   6.155   1.838  0.5020 -0.0375 -0.5553
13065TIP3    H260611   4.312   6.061   1.897  1.9101  1.0527  3.8916
13066TIP3   OH260612   3.849   6.916   1.219 -0.1286 -0.5840  0.0407
13066TIP3    H160613   3.763   6.919   1.176  0.9810 -3.1175 -2.5357
13066TIP3    H260614   3.844   6.841   1.277 -0.0074 -0.0785  0.7083
13067TIP3   OH260615   5.020   4.702   2.332  0.0605 -0.5451  0.0220
13067TIP3    H160616   5.012   4.609   2.351  0.1582 -0.2022  1.8605
13067TIP3    H260617   5.113   4.721   2.339 -0.0239 -0.2003  0.2646
13068TIP3   OH260618   4.266   1.070   0.713 -0.1318  0.2841 -0.0017
13068TIP3    H160619   4.204   1.102   0.647  0.7288  2.8489  0.3779
13068TIP3    H260620   4.233   0.984   0.738 -1.5864  0.1314 -2.3310
13069TIP3   OH260621   3.672   0.372   3.368 -0.2256 -1.1134  0.4395
13069TIP3    H160622   3.641   0.284   3.347  0.1562 -0.5518 -2.7826
13069TIP3    H260623   3.768   0.365   3.370 -0.1879 -0.7828  0.0711
13070TIP3   OH260624   3.434   0.996   0.661  0.4832  0.0510 -0.0633
13070TIP3    H160625   3.398   1.084   0.652 -0.1765 -0.1939  0.2215
13070TIP3    H260626   3.429   0.976   0.754 -1.1950 -1.0570 -0.3597
13071TIP3   OH260627   6.131   6.311   1.418 -0.0296 -0.7143  0.1997
13071TIP3    H160628   6.107   6.323   1.510  1.2716  1.4132  0.2933
13071TIP3    H260629   6.063   6.357   1.369 -0.0999 -0.8819  0.1382
13072TIP3   OH260630   4.981   4.970   0.340 -0.1352 -0.5606 -0.2848
13072TIP3    H160631   4.923   4.903   0.375 -0.3165 -0.1825  0.1410
13072TIP3    H260632   4.972   5.044   0.401 -1.1561  0.4501 -1.6254
13073TIP3   OH260633   4.399   5.154   2.162  0.0306 -0.1434 -0.5338
13073TIP3    H160634   4.457   5.111   2.224 -2.0593 -0.2646  1.4261
13073TIP3    H260635   4.445   5.150   2.078  1.7454 -2.3551  0.4738
13074TIP3   OH260636   4.025   2.082   0.132 -0.7411  0.5386  0.3887
13074TIP3    H160637   4.035   2.042   0.046 -0.1845 -0.2726  0.8273
13074TIP3    H260638   3.958   2.029   0.175 -2.0195  1.7744 -0.0319
13075TIP3   OH260639   4.482   7.112   0.946 -0.2044  0.2863 -0.4562
13075TIP3    H160640   4.456   7.203   0.936  1.5452  0.5331 -3.1168
13075TIP3    H260641   4.406   7.062   0.916 -0.9928  0.8475  0.5716
13076TIP3   OH260642   7.089   6.365   2.340  0.2816  0.0354 -0.1240
13076TIP3    H160643   7.108   6.371   2.247  0.5791 -0.2419 -0.0830
13076TIP3    H260644   7.067   6.273   2.355  0.2526  0.0734  0.0802
13077TIP3   OH260645   5.220   1.547   0.486 -0.5582  0.5246  0.1821
13077TIP3    H160646   5.310   1.544   0.519 -0.2704  0.9997 -0.5610
13077TIP3    H260647   5.213   1.471   0.428  0.4843  2.5192 -2.6103
13078TIP3   OH260648   4.109   6.846  14.866  0.3861  0.2133 -0.7921
13078TIP3    H160649   4.181   6.902  14.837  0.3920  0.6787  0.0875
13078TIP3    H260650   4.036   6.907  14.881  0.4971  0.0478  0.5248
13079TIP3   OH260651   7.208   0.265   2.054  0.4241  0.7410  0.1702
13079TIP3    H160652   7.133   0.254   2.112  0.2917  0.4979 -0.0500
13079TIP3    H260653   7.269   0.195   2.079 -0.3430 -0.4026 -1.1044
13080TIP3   OH260654   6.165   5.594   2.197  0.1853 -0.0753  0.1018
13080TIP3    H160655   6.158   5.659   2.126  0.6678 -0.3790 -0.2246
13080TIP3    H260656   6.246   5.547   2.178  0.7463  0.3850  1.3150
13081TIP3   OH260657   5.223   0.298   4.681  0.3150  0.1350  0.4442
13081TIP3    H160658   5.145   0.354   4.685  0.5216  0.3047  2.7211
13081TIP3    H260659   5.216   0.253   4.597 -2.7551 -0.5699  1.0209
13082TIP3   OH260660   4.000   1.033   0.947 -0.1193 -0.4404  0.7085
13082TIP3    H160661   4.008   1.126   0.923 -0.9956 -0.5754 -0.1527
13082TIP3    H260662   4.013   0.987   0.864 -0.1722 -1.0595  1.0489
13083TIP3   OH260663   4.297   2.198   1.491  0.2876 -0.2034  0.6839
13083TIP3    H160664   4.346   2.204   1.573 -1.2049  0.1323  1.5807
13083TIP3    H260665   4.248   2.116   1.498  1.2970 -0.9379 -0.5461
13084TIP3   OH260666   6.225   0.675  15.932 -0.5240 -0.1469  0.4826
13084TIP3    H160667   6.168   0.639  16.000  0.6255 -2.1770  0.3898
13084TIP3    H260668   6.216   0.615  15.858 -0.1179  0.8539 -0.3917
13085TIP3   OH260669   4.885   6.963   0.917 -0.5776  0.3255  0.2826
13085TIP3    H160670   4.836   6.988   0.995 -0.0439  0.4765  0.5724
13085TIP3    H260671   4.929   6.881   0.941 -0.9914 -0.0115 -0.1029
13086TIP3   OH260672   4.804   0.513   2.353 -0.1268 -0.1452  0.5253
13086TIP3    H160673   4.732   0.528   2.292  0.0239 -2.0380 -0.1546
13086TIP3    H260674   4.826   0.600   2.386 -0.3746  0.8965 -1.9331
13087TIP3   OH260675   4.565   5.574   2.712 -0.2255  0.7788  0.1806
13087TIP3    H160676   4.568   5.632   2.789  1.0622 -0.2917  0.9423
13087TIP3    H260677   4.584   5.487   2.746 -1.1749  0.0404 -1.1221
13088TIP3   OH260678   4.131   7.087   1.475 -0.0508 -0.7475  0.3907
13088TIP3    H160679   4.108   7.080   1.568 -0.4386 -1.5826  0.2383
13088TIP3    H260680   4.047   7.106   1.431 -0.2492 -2.5240 -0.0284
13089TIP3   OH260681   6.371   6.533   1.294  0.7229  0.1520 -0.0059
13089TIP3    H160682   6.437   6.556   1.229  0.5437  1.1120  0.1534
13089TIP3    H260683   6.377   6.437   1.301  0.8500  0.0538 -1.3229
13090TIP3   OH260684   3.444   7.236   1.920  0.2363 -0.6625  0.5399
13090TIP3    H160685   3.489   7.183   1.855  2.1692 -1.5311  2.5558
13090TIP3    H260686   3.434   7.179   1.996 -1.0650  0.6605  1.4011
13091TIP3   OH260687   5.411   6.539   0.765 -0.3887  0.8811 -0.3734
13091TIP3    H160688   5.463   6.462   0.744  1.5760  2.5872 -1.9786
13091TIP3    H260689   5.444   6.568   0.850 -1.0686  0.0346  0.1888
13092TIP3   OH260690   2.786   6.210   0.269 -0.4153  0.1528  0.1903
13092TIP3    H160691   2.695   6.240   0.262 -0.6618 -0.3818  0.9499
13092TIP3    H260692   2.815   6.199   0.179 -0.4519  2.2570 -0.1047
13093TIP3   OH260693   1.043   5.075   3.094 -0.7149  0.0972  0.1629
13093TIP3    H160694   1.096   5.003   3.128 -0.1999  0.0270 -0.7806
13093TIP3    H260695   0.976   5.033   3.041 -0.2781  0.3254 -0.5725
13094TIP3   OH260696   3.414   6.608   1.588 -0.3500  0.1306  0.4697
13094TIP3    H160697   3.389   6.602   1.496 -0.8297  2.1205  0.4339
13094TIP3    H260698   3.332   6.597   1.636 -0.5245  1.5696  0.5408
13095TIP3   OH260699   3.413   0.336  14.932  0.2971 -0.3174 -0.0796
13095TIP3    H160700   3.457   0.420  14.925 -0.5053  0.1821  0.7607
13095TIP3    H260701   3.468   0.275  14.883  1.5981  0.4133  0.4747
13096TIP3   OH260702   4.090   2.549   2.360  0.4564 -0.5447  0.3103
13096TIP3    H160703   4.000   2.564   2.390  0.5154 -0.1729  0.3097
13096TIP3    H260704   4.138   2.530   2.441  0.4862 -0.1922  0.3763
13097TIP3   OH260705   6.261   0.611   1.396  0.3226 -0.6788 -1.0884
13097TIP3    H160706   6.225   0.670   1.330  0.7193  0.1820 -0.5416
13097TIP3    H260707   6.222   0.639   1.478 -0.2744 -1.8359 -0.9703
13098TIP3   OH260708   6.320   5.800   1.380  0.1397 -0.0134 -0.6931
13098TIP3    H160709   6.357   5.886   1.402  0.1131  0.0812 -1.0144
13098TIP3    H260710   6.247   5.820   1.322 -0.3091 -0.2128 -0.1928
13099TIP3   OH260711   3.580   6.571   0.534  0.8457  0.0205 -0.3421
13099TIP3    H160712   3.533   6.598   0.455 -0.1139 -1.9559 -0.4809
13099TIP3    H260713   3.576   6.475   0.533 -0.7968 -0.0369  3.0549
13100TIP3   OH260714   3.885   5.665   2.454  0.6955 -0.7350 -0.5292
13100TIP3    H160715   3.846   5.709   2.529 -0.2768  1.0027 -2.0295
13100TIP3    H260716   3.826   5.592   2.436 -0.2757  0.1404 -0.9458
13101TIP3   OH260717   5.283   0.380   2.476 -0.2916  0.2190  0.7482
13101TIP3    H160718   5.280   0.286   2.495  0.5421  0.4988  2.4354
13101TIP3    H260719   5.359   0.411   2.525  0.8613  1.3811 -1.7111
13102TIP3   OH260720   6.628   5.898   2.785  0.0866  0.3555 -1.0607
13102TIP3    H160721   6.669   5.971   2.739 -0.0963 -0.0537 -1.8832
13102TIP3    H260722   6.580   5.850   2.717  2.0455 -1.8439 -0.9775
13103TIP3   OH260723   6.874   0.276   0.047  0.2696 -0.3328 -0.0541
13103TIP3    H160724   6.822   0.199   0.025 -2.2771  1.4649 -0.4875
13103TIP3    H260725   6.910   0.257   0.134 -0.4001 -1.9653 -0.1264
13104TIP3   OH260726   2.944   7.240   0.910 -0.1272 -0.4175  0.2956
13104TIP3    H160727   2.939   7.158   0.958  1.6919 -0.0144  1.1982
13104TIP3    H260728   2.934   7.214   0.818  0.8137 -1.7014  0.5369
13105TIP3   OH260729   5.697   5.421   2.883 -0.0288  0.4030  0.9353
13105TIP3    H160730   5.768   5.375   2.838  0.6349  0.4572  1.9240
13105TIP3    H260731   5.741   5.483   2.941 -0.9109  2.1616 -0.2361
13106TIP3   OH260732   4.995   1.176   1.776 -0.0580  0.0331 -0.3565
13106TIP3    H160733   4.913   1.134   1.802 -0.4047  1.2657  0.5688
13106TIP3    H260734   4.991   1.263   1.816  1.1237  0.5636 -1.3770
13107TIP3   OH260735   6.797   6.794  15.939  0.7317  0.7540  0.5245
13107TIP3    H160736   6.769   6.865  15.882  2.3361 -0.6592 -2.1591
13107TIP3    H260737   6.866   6.832  15.994  0.3245  1.7166  0.3645
13108TIP3   OH260738   4.548   5.740   2.927 -0.0783  0.4349 -0.4370
13108TIP3    H160739   4.482   5.809   2.914  0.6403  1.1073 -0.5663
13108TIP3    H260740   4.539   5.714   3.018  0.1889  1.2770 -0.1672
13109TIP3   OH260741   1.534   0.045   0.443 -0.2613  0.4872  0.6677
13109TIP3    H160742   1.575  -0.018   0.503  0.0167  0.1191  0.0947
13109TIP3    H260743   1.599   0.115   0.434 -0.9919  1.3792  2.1241
13110TIP3   OH260744   5.402   3.738   0.996  0.3831  0.1111 -0.4941
13110TIP3    H160745   5.458   3.678   1.044  1.2842 -0.5218 -2.3223
13110TIP3    H260746   5.368   3.687   0.923 -0.4334  1.2537 -0.9314
13111TIP3   OH260747   5.341   6.818  15.474 -0.1545  0.3800  1.0317
13111TIP3    H160748   5.331   6.876  15.399 -1.8234  0.1446  1.0489
13111TIP3    H260749   5.420   6.768  15.456  0.7047  1.9117  0.5124
13112TIP3   OH260750   3.598   4.849   0.548  0.2237  0.9605  0.0093
13112TIP3    H160751   3.553   4.842   0.632  1.0903 -0.7661  0.3594
13112TIP3    H260752   3.608   4.943   0.533 -1.9072  1.3158  0.7558
13113TIP3   OH260753   2.959   0.365   1.861 -0.0145  0.8501  0.4579
13113TIP3    H160754   2.963   0.442   1.804  0.4388 -0.8472 -1.8655
13113TIP3    H260755   3.050   0.342   1.877 -0.1597  0.1349  0.2541
13114TIP3   OH260756   6.060   4.901   0.937 -0.4650 -0.5622  0.2202
13114TIP3    H160757   6.154   4.891   0.926 -0.2505  0.5056  0.9245
13114TIP3    H260758   6.051   4.967   1.006 -1.7272  0.4377 -0.8695
13115TIP3   OH260759   5.618   4.999   2.975  0.4434 -0.2739  0.2076
13115TIP3    H160760   5.580   5.074   2.930  2.8400  1.2403  0.6203
13115TIP3    H260761   5.544   4.956   3.019 -0.9392  1.8721  0.0085
13116TIP3   OH260762   6.188   7.212   0.405  0.3454 -0.1738  0.1097
13116TIP3    H160763   6.188   7.117   0.401  0.8989 -0.1291 -1.1183
13116TIP3    H260764   6.103   7.234   0.444 -0.4605 -1.1169 -1.0782
13117TIP3   OH260765   4.882   5.219   0.469  0.3115  0.1946 -0.1584
13117TIP3    H160766   4.947   5.248   0.533  0.8573 -1.4331  0.0412
13117TIP3    H260767   4.838   5.145   0.510 -0.1455 -0.1248 -1.2018
13118TIP3   OH260768   5.442   5.859   3.763 -0.4799  0.2880  0.0158
13118TIP3    H160769   5.441   5.764   3.759 -1.0662  0.3564 -1.5601
13118TIP3    H260770   5.350   5.885   3.758 -0.4168  0.9091  1.6146
13119TIP3   OH260771   0.311   4.603  15.882  1.0987  0.2841 -0.3461
13119TIP3    H160772   0.245   4.562  15.938  0.9780  0.0459 -0.6631
13119TIP3    H260773   0.331   4.537  15.816  0.3564  0.9996 -1.3030
13120TIP3   OH260774   3.546   5.027   1.073  0.1115 -0.3299 -0.1164
13120TIP3    H160775   3.610   5.099   1.070 -0.4637  0.1578 -0.7143
13120TIP3    H260776   3.475   5.060   1.127  1.6302 -1.9312  2.9887
13121TIP3   OH260777   3.510   6.407   0.886  0.5007  0.0892 -0.1651
13121TIP3    H160778   3.597   6.390   0.923  0.7224  0.8177 -0.3303
13121TIP3    H260779   3.512   6.501   0.865  0.8352 -0.5734 -3.2765
13122TIP3   OH260780   3.871   5.520  15.314 -0.2450 -0.4659  0.0150
13122TIP3    H160781   3.926   5.498  15.238 -1.4607 -1.2473 -0.6416
13122TIP3    H260782   3.919   5.591  15.357  1.9307 -1.9547  0.1619
13123TIP3   OH260783   4.544   1.123   1.217  0.0041  0.1974 -0.1008
13123TIP3    H160784   4.456   1.101   1.186  0.1608  0.4686 -0.7499
13123TIP3    H260785   4.586   1.163   1.141 -0.1741  2.4077  0.9300
13124TIP3   OH260786   4.970   0.432  15.642 -0.5452 -0.1257  0.1073
13124TIP3    H160787   4.993   0.388  15.723 -1.5912  0.4348  0.7119
13124TIP3    H260788   4.879   0.409  15.627 -0.2166 -0.6440 -1.1874
13125TIP3   OH260789   4.868   5.774   0.905 -0.3323  0.2021 -0.3427
13125TIP3    H160790   4.879   5.686   0.868 -2.4020 -0.4259  0.4343
13125TIP3    H260791   4.905   5.832   0.840  4.1078 -1.4096  0.5699
13126TIP3   OH260792   3.517   0.103   0.120  0.0722 -0.2130  0.5108
13126TIP3    H160793   3.575   0.110   0.196  0.8748  1.1894 -0.1988
13126TIP3    H260794   3.483   0.192   0.108 -1.7504 -0.8951  0.5388
13127TIP3   OH260795   6.384   1.223   2.556 -0.0450 -0.1696  0.6060
13127TIP3    H160796   6.324   1.294   2.577 -0.5173 -0.6201  0.7813
13127TIP3    H260797   6.335   1.167   2.496  0.1781 -0.5736  0.8051
13128TIP3   OH260798   4.290   4.504   0.793  0.8111  0.6737 -0.1025
13128TIP3    H160799   4.292   4.459   0.709 -0.9382  1.0468 -0.3584
13128TIP3    H260800   4.197   4.511   0.815  1.2903 -0.8912  2.6801
13129TIP3   OH260801   2.928   6.932   0.753  0.1707 -0.4254 -0.0369
13129TIP3    H160802   2.879   6.976   0.823 -0.3027  0.2067 -0.7600
13129TIP3    H260803   2.987   6.999   0.718 -2.2776  0.4038 -2.7930
13130TIP3   OH260804   5.445   4.803   0.900 -0.8266 -0.7067 -0.0423
13130TIP3    H160805   5.458   4.898   0.903  0.4725 -0.8407 -0.7512
13130TIP3    H260806   5.528   4.767   0.932 -2.0575 -1.5954  2.2291
13131TIP3   OH260807   2.314   6.051   3.381  0.4405 -0.1546 -0.0378
13131TIP3    H160808   2.250   5.980   3.371 -0.8707  0.9309  0.5052
13131TIP3    H260809   2.398   6.006   3.385 -0.4648 -1.7951  1.6101
13132TIP3   OH260810   6.125   6.398   2.058  0.0819 -0.0042  0.2949
13132TIP3    H160811   6.079   6.447   2.127 -0.3084 -0.3435  0.2816
13132TIP3    H260812   6.205   6.448   2.042  0.4440 -0.2012  1.3828
13133TIP3   OH260813   3.836   0.734   1.351  0.0397 -0.0394 -0.3770
13133TIP3    H160814   3.759   0.791   1.346 -0.0153  0.0299  1.0059
13133TIP3    H260815   3.890   0.773   1.419  1.1455 -0.2839 -1.1045
13134TIP3   OH260816   3.875   0.660   0.854  0.0952 -0.4616 -0.0283
13134TIP3    H160817   3.905   0.708   0.931  0.8473 -0.2730 -0.4313
13134TIP3    H260818   3.854   0.728   0.790  0.7196 -0.6433 -0.4374
13135TIP3   OH260819   0.204   0.401   0.677 -0.3441 -0.0136 -0.0575
13135TIP3    H160820   0.260   0.451   0.736 -0.6986  1.1533 -0.7055
13135TIP3    H260821   0.119   0.444   0.682 -0.7112 -0.6760 -0.4568
13136TIP3   OH260822   4.078   5.755   1.989  0.4490 -0.2806  0.2227
13136TIP3    H160823   4.143   5.813   2.029 -0.4639 -0.6247  2.2439
13136TIP3    H260824   4.004   5.813   1.969  0.8246 -0.1472 -0.7882
13137TIP3   OH260825   4.708   0.936   1.331 -0.5409 -0.5190  0.2071
13137TIP3    H160826   4.644   1.004   1.352 -0.5831 -1.0219  1.8190
13137TIP3    H260827   4.663   0.878   1.270  0.2315  2.0440 -2.9513
13138TIP3   OH260828   2.920   6.288   1.261  0.1339  0.0127 -0.2985
13138TIP3    H160829   2.962   6.258   1.342 -0.2404  0.4049  0.0453
13138TIP3    H260830   2.984   6.348   1.221  0.0539  0.3275  0.0412
13139TIP3   OH260831   2.973   0.552   0.442  0.4668 -0.0609 -0.1223
13139TIP3    H160832   2.896   0.500   0.418  1.6853 -1.1296 -1.8399
13139TIP3    H260833   2.952   0.587   0.529 -1.0122 -2.1860  0.4236
13140TIP3   OH260834   4.292   1.320   1.069 -0.1699 -0.2021  0.4248
13140TIP3    H160835   4.238   1.317   1.149  0.4267 -0.1240  0.8345
13140TIP3    H260836   4.322   1.230   1.058  0.2889 -0.0808  0.6654
13141TIP3   OH260837   3.138   6.185   2.409  0.1926 -0.1253 -0.7126
13141TIP3    H160838   3.157   6.278   2.402  1.4545 -0.4661 -2.2231
13141TIP3    H260839   3.063   6.180   2.468  0.8973  1.7456  0.3884
13142TIP3   OH260840   4.801   1.862   0.994 -0.1321 -0.0393 -0.5733
13142TIP3    H160841   4.850   1.851   0.912  0.2337 -2.4338 -0.0776
13142TIP3    H260842   4.788   1.772   1.026  0.0093  0.8705  2.1538
13143TIP3   OH260843   4.331   1.589   1.211 -0.4648  0.4295 -0.0647
13143TIP3    H160844   4.407   1.536   1.190 -0.5550  0.4619 -0.4733
13143TIP3    H260845   4.262   1.525   1.232  0.0512  0.4166  1.6427
13144TIP3   OH260846   2.554   4.082   4.116 -0.2506  0.2341 -0.0745
13144TIP3    H160847   2.520   3.993   4.124  0.2577 -0.2478 -2.7778
13144TIP3    H260848   2.528   4.110   4.028  4.7335  0.4681 -1.6411
13145TIP3   OH260849   4.792   5.371   0.247  0.6436  0.3354 -0.8438
13145TIP3    H160850   4.799   5.323   0.330  3.0073 -1.1701 -1.8952
13145TIP3    H260851   4.839   5.453   0.263  3.0426 -0.9033 -1.3553
13146TIP3   OH260852   4.091   0.856   0.766  0.4250  0.3180 -0.0193
13146TIP3    H160853   4.035   0.849   0.689  1.4598  0.0546 -0.7604
13146TIP3    H260854   4.135   0.771   0.771 -0.1098  0.1079  1.2365
13147TIP3   OH260855   3.464   5.789  15.590 -0.4230  0.6385 -0.6054
13147TIP3    H160856   3.369   5.798  15.590 -0.7187 -1.9203 -2.2878
13147TIP3    H260857   3.480   5.700  15.559  2.4343 -0.3433  3.2365
13148TIP3   OH260858   3.464   7.140   0.207 -0.3862 -0.5420 -0.1210
13148TIP3    H160859   3.468   7.133   0.112  0.2377  0.1786 -0.1524
13148TIP3    H260860   3.490   7.231   0.226  0.1949 -0.8809  0.7652
13149TIP3   OH260861   3.151   5.048   2.190 -0.3454 -0.5614  0.1477
13149TIP3    H160862   3.130   4.954   2.191 -1.4028 -0.3258  1.9547
13149TIP3    H260863   3.075   5.090   2.231 -0.1937  1.1685 -1.2845
13150TIP3   OH260864   3.915   6.319   1.240 -0.4962  0.0345 -0.1766
13150TIP3    H160865   4.005   6.348   1.253 -0.4014 -1.2270  2.1713
13150TIP3    H260866   3.862   6.386   1.283 -0.4821 -0.9930  1.4886
13151TIP3   OH260867   2.487   6.353   1.529 -0.5347  0.0592  0.0231
13151TIP3    H160868   2.412   6.385   1.479 -1.4146 -1.7543  0.1258
13151TIP3    H260869   2.485   6.403   1.610 -0.9838  0.7727 -0.4191
13152TIP3   OH260870   3.137   6.466   1.168 -0.0591 -0.0303  0.5526
13152TIP3    H160871   3.124   6.521   1.091  0.0652  0.5585  0.9460
13152TIP3    H260872   3.204   6.403   1.141  0.1429  0.3092  0.2462
13153TIP3   OH260873   4.032   6.214   0.842 -0.4700 -0.0153 -0.0169
13153TIP3    H160874   4.038   6.120   0.859 -0.0519  0.1979  1.0485
13153TIP3    H260875   3.942   6.227   0.812 -0.4874 -0.7725 -0.2951
13154TIP3   OH260876   4.762   3.923  15.615  0.5346  0.0059 -1.0086
13154TIP3    H160877   4.728   4.013  15.613  1.2312  0.3228  0.3755
13154TIP3    H260878   4.692   3.872  15.657  1.5582  0.5959  1.5278
13155TIP3   OH260879   3.802   6.545   1.054 -0.7258  0.5146  0.4258
13155TIP3    H160880   3.775   6.455   1.038  0.7120 -0.2238  1.9467
13155TIP3    H260881   3.833   6.577   0.969  1.9645 -1.5649  0.5891
13156TIP3   OH260882   3.540   6.302   0.512  0.2062  0.2348  0.7369
13156TIP3    H160883   3.525   6.221   0.560  0.9112 -0.6092 -0.4338
13156TIP3    H260884   3.507   6.284   0.423  0.4604  1.1904  0.4359
13157TIP3   OH260885   4.897   4.760   1.074  0.2111 -0.4129  0.3890
13157TIP3    H160886   4.984   4.763   1.113  0.3583 -0.3092  0.0603
13157TIP3    H260887   4.905   4.812   0.994 -0.7968  1.6791  1.6026
13158TIP3   OH260888   3.463   5.784   1.180  0.3268  0.1106  0.1870
13158TIP3    H160889   3.540   5.738   1.145  0.0230 -1.4729  1.5516
13158TIP3    H260890   3.391   5.722   1.167 -0.1457  0.3286  1.7617
13159TIP3   OH260891   4.302   1.368   1.884 -0.7143  0.6432  0.3538
13159TIP3    H160892   4.309   1.288   1.832 -0.6907 -0.4863  2.0290
13159TIP3    H260893   4.352   1.434   1.836  1.4402 -1.0402  0.2194
13160TIP3   OH260894   7.074   6.982   0.025  0.6033  0.4154 -0.2176
13160TIP3    H160895   7.124   6.905   0.051 -0.3097 -0.9024 -2.2172
13160TIP3    H260896   7.089   6.990  -0.069 -2.4464  0.2795 -0.7927
13161TIP3   OH260897   5.195   5.895   1.920 -0.1542 -0.2428 -0.0144
13161TIP3    H160898   5.283   5.859   1.926 -0.5588 -1.3614 -0.6686
13161TIP3    H260899   5.140   5.821   1.896 -1.5276  0.1378  1.8368
13162TIP3   OH260900   5.778   0.102   1.819  1.1039  0.3676  0.0350
13162TIP3    H160901   5.727   0.145   1.887  0.1555 -2.0416  0.9163
13162TIP3    H260902   5.800   0.171   1.757 -0.9492  1.9593  1.0423
13163TIP3   OH260903   5.095   6.753   2.809  0.1574  0.4338 -0.4717
13163TIP3    H160904   5.121   6.837   2.771 -0.9270  1.1060  0.2613
13163TIP3    H260905   5.010   6.769   2.849  1.3764 -0.1699  2.5118
13164TIP3   OH260906   4.119   7.241  15.099  0.6670  0.1824 -0.0128
13164TIP3    H160907   4.201   7.285  15.121  0.4658  0.2509  0.5969
13164TIP3    H260908   4.056   7.273  15.163 -0.2535  1.3840 -1.4729
13165TIP3   OH260909   4.772   0.031  15.338  0.2175  0.0544  0.0869
13165TIP3    H160910   4.690   0.071  15.368  0.1874 -1.0088  1.4292
13165TIP3    H260911   4.830   0.106  15.323 -0.8079  0.7851 -0.3478
13166TIP3   OH260912   2.990   7.091  14.111 -0.3945  0.0402 -0.0864
13166TIP3    H160913   2.936   7.013  14.120 -0.2496  0.2127  2.7155
13166TIP3    H260914   3.080   7.057  14.104 -0.3611 -0.0906  0.8372
13167TIP3   OH260915   4.473   6.711  15.863  0.5206  0.2830  0.1575
13167TIP3    H160916   4.538   6.763  15.910 -0.0098  1.0741  0.0235
13167TIP3    H260917   4.405   6.693  15.928  1.5132 -1.7354  0.6926
13168TIP3   OH260918   4.973   0.497  15.383 -0.2719  0.2663  0.2694
13168TIP3    H160919   4.977   0.461  15.472  0.5782  1.4174  0.7144
13168TIP3    H260920   4.929   0.581  15.393  1.6443  1.3508 -0.0498
13169TIP3   OH260921   4.418   6.865   0.591  0.0820 -0.5921  0.3221
13169TIP3    H160922   4.386   6.950   0.623  1.5317  0.2265 -0.3388
13169TIP3    H260923   4.373   6.852   0.508  1.2309  0.4164 -0.4672
13170TIP3   OH260924   3.905   5.313   2.553 -0.4757 -0.4719 -0.2543
13170TIP3    H160925   3.830   5.367   2.532 -1.2220 -1.9723 -1.5504
13170TIP3    H260926   3.980   5.372   2.550 -1.1259  0.2519 -2.8006
13171TIP3   OH260927   4.825   7.082   2.486  0.6462  0.4953 -0.3000
13171TIP3    H160928   4.773   7.162   2.480  0.8678  0.7051  0.5632
13171TIP3    H260929   4.762   7.011   2.479  0.3094  0.7494  0.1867
13172TIP3   OH260930   4.824   0.176   1.388 -0.2161 -0.4455 -0.1598
13172TIP3    H160931   4.860   0.090   1.407  0.0498  0.3157  3.2374
13172TIP3    H260932   4.878   0.236   1.439 -0.0997  1.8118 -2.8249
13173TIP3   OH260933   3.137   1.241   1.950 -0.3705 -0.3618 -0.0014
13173TIP3    H160934   3.173   1.197   1.872 -0.0701  0.6531 -0.4551
13173TIP3    H260935   3.056   1.195   1.969  0.1740 -1.4167 -0.1716
13174TIP3   OH260936   4.256   0.573  15.364  0.0132 -0.7533 -0.0655
13174TIP3    H160937   4.306   0.650  15.340 -0.2145 -0.8722 -0.9413
13174TIP3    H260938   4.195   0.604  15.431  0.0097 -0.2040 -0.3184
13175TIP3   OH260939   5.052   3.767   1.796  0.9239  0.6634 -0.8765
13175TIP3    H160940   5.081   3.748   1.885  0.3290 -0.3859 -0.8984
13175TIP3    H260941   5.103   3.708   1.740  0.9710  0.9959 -1.1887
13176TIP3   OH260942   3.441   0.700  15.294  0.4085 -0.3276  0.5194
13176TIP3    H160943   3.398   0.762  15.235 -0.4599  0.2081  1.6747
13176TIP3    H260944   3.532   0.700  15.267 -0.5891 -2.9161 -3.2632
13177TIP3   OH260945   0.889   5.464   1.036  0.1675  0.3416  0.1968
13177TIP3    H160946   0.901   5.378   1.077  0.0840  0.3985  0.3416
13177TIP3    H260947   0.914   5.451   0.945  2.1567  0.6669  0.6833
13178TIP3   OH260948   2.156   5.740   1.010 -0.3083 -0.0906  0.0848
13178TIP3    H160949   2.179   5.647   1.014  0.4982  0.1027 -0.0628
13178TIP3    H260950   2.105   5.755   1.090 -0.2820 -0.6124  0.2021
13179TIP3   OH260951   3.775   1.556   1.205 -0.1643  0.1539  0.2179
13179TIP3    H160952   3.736   1.566   1.292  0.2961 -2.1630  0.7319
13179TIP3    H260953   3.703   1.526   1.149 -0.2833  0.8988 -0.0364
13180TIP3   OH260954   5.240   5.971   1.663 -0.7913 -0.2348 -0.2420
13180TIP3    H160955   5.288   5.900   1.707 -1.5305  0.7078  2.1531
13180TIP3    H260956   5.291   6.050   1.683 -2.1326  0.4597  0.4940
13181TIP3   OH260957   4.974   6.591   0.493 -0.1238 -0.3839  0.4090
13181TIP3    H160958   5.067   6.574   0.481 -0.3545 -1.5454  0.2118
13181TIP3    H260959   4.932   6.507   0.477 -1.1854  0.0691  0.7764
13182TIP3   OH260960   4.015   4.231   1.644 -0.5517 -0.3966 -0.1469
13182TIP3    H160961   4.035   4.166   1.577 -0.2253  0.6159 -1.0540
13182TIP3    H260962   3.936   4.199   1.687 -0.1086 -1.6379 -0.2520
13183TIP3   OH260963   4.895   4.461   3.633 -0.2780 -0.1866 -0.5666
13183TIP3    H160964   4.848   4.443   3.715  1.9799 -1.3412  0.5239
13183TIP3    H260965   4.876   4.386   3.577  1.5819 -1.5295  0.5203
13184TIP3   OH260966   4.023   4.996   1.647  0.2537 -0.3539 -0.4492
13184TIP3    H160967   4.104   5.045   1.632  0.6441 -1.0885 -0.7689
13184TIP3    H260968   4.046   4.931   1.714  0.2148 -1.2423 -1.2873
13185TIP3   OH260969   6.378   6.311   4.906  0.0517 -0.1406 -0.8066
13185TIP3    H160970   6.462   6.354   4.927  0.8134 -1.7772 -0.4121
13185TIP3    H260971   6.377   6.233   4.961 -1.5393 -0.3825 -1.1597
13186TIP3   OH260972   4.353   5.121   0.869 -0.2569 -0.0722 -0.1371
13186TIP3    H160973   4.382   5.091   0.955 -1.0498  0.4587  0.3243
13186TIP3    H260974   4.396   5.205   0.857 -1.4443  0.6454  0.4831
13187TIP3   OH260975   5.045   5.586   2.360 -0.3186 -0.0897 -0.0587
13187TIP3    H160976   5.071   5.522   2.426  0.5887  0.3219 -0.0173
13187TIP3    H260977   4.953   5.604   2.380 -0.2355 -0.4627  0.6874
13188TIP3   OH260978   4.175   5.537   0.781 -0.0944  0.1344  0.1047
13188TIP3    H160979   4.241   5.571   0.720  1.5490 -3.2439 -0.1183
13188TIP3    H260980   4.223   5.526   0.864 -1.1211  0.3253  0.7272
13189TIP3   OH260981   2.958   0.742   3.666 -0.1653  0.3809 -0.3906
13189TIP3    H160982   2.899   0.752   3.591 -0.2783 -0.3785 -0.4042
13189TIP3    H260983   2.900   0.727   3.741 -0.0862  1.7249 -0.0310
13190TIP3   OH260984   4.191   2.385   0.634  0.6495  0.1699  0.4203
13190TIP3    H160985   4.144   2.360   0.714 -0.8745  0.8410 -0.2315
13190TIP3    H260986   4.267   2.434   0.665  0.9083 -0.8942  1.5064
13191TIP3   OH260987   5.093   5.057   2.513  0.0966  0.4681 -0.2694
13191TIP3    H160988   5.160   5.112   2.472  0.8676 -0.4695 -0.2809
13191TIP3    H260989   5.134   5.025   2.593 -0.0605 -0.6822 -0.6323
13192TIP3   OH260990   6.090   5.020   0.487  0.6847 -0.6538  0.2121
13192TIP3    H160991   6.060   5.086   0.549  3.3416  1.4314 -0.6279
13192TIP3    H260992   6.118   4.946   0.542 -0.2495 -0.2294  1.2738
13193TIP3   OH260993   0.165   7.010  14.736 -0.4262  0.4009  0.4985
13193TIP3    H160994   0.188   6.933  14.684  2.9987  1.0253  0.9621
13193TIP3    H260995   0.130   7.072  14.672 -0.1079 -0.3420 -0.4106
13194TIP3   OH260996   3.366   7.190  15.077 -0.4077  0.0939  0.2038
13194TIP3    H160997   3.415   7.259  15.032  0.8888  0.3119  1.9067
13194TIP3    H260998   3.310   7.152  15.009  1.3595  0.5335 -1.5304
13195TIP3   OH260999   4.318   7.141   3.237  0.1005  0.3896 -0.1234
13195TIP3    H161000   4.237   7.090   3.241 -0.0640  0.7522  1.1111
13195TIP3    H261001   4.290   7.230   3.220  0.3974  0.0738 -2.4216
13196TIP3   OH261002   3.955   5.657   0.870 -0.2605 -0.0832 -0.1152
13196TIP3    H161003   3.940   5.604   0.949  0.1735 -1.1305 -0.7286
13196TIP3    H261004   4.042   5.631   0.840 -0.3855  0.3858 -0.8889
13197TIP3   OH261005   3.000   0.090  15.669 -0.3732 -0.4827  0.2144
13197TIP3    H161006   3.045   0.039  15.602 -0.2341  1.0284 -0.8651
13197TIP3    H261007   3.059   0.164  15.686 -1.2244  0.0887  0.7176
13198TIP3   OH261008   4.547   7.010  15.974  0.1534 -0.5839  0.1811
13198TIP3    H161009   4.465   6.972  16.006 -0.2023  0.2170  0.2265
13198TIP3    H261010   4.609   6.938  15.977 -0.7166 -1.3741 -0.4821
13199TIP3   OH261011   3.459   6.777   1.890  0.2406 -0.0521 -0.0687
13199TIP3    H161012   3.401   6.816   1.825  2.4099  0.6603 -1.6424
13199TIP3    H261013   3.547   6.796   1.858  1.3755  0.4444  3.1798
13200TIP3   OH261014   7.014   5.695   5.085  0.0003  0.0076  0.0329
13200TIP3    H161015   7.098   5.736   5.104 -0.3276  0.4785  0.4771
13200TIP3    H261016   6.992   5.724   4.996 -0.5805  1.3895  0.6242
13201TIP3   OH261017   4.935   5.381   1.666 -0.5641  0.3035  0.3026
13201TIP3    H161018   4.889   5.402   1.748  0.0168  1.2548  0.3941
13201TIP3    H261019   5.000   5.316   1.691 -0.2611  0.7339  0.6292
13202TIP3   OH261020   6.213   6.618   0.710  0.3785 -0.2279  0.0501
13202TIP3    H161021   6.182   6.537   0.669  0.0911 -0.6727  1.1510
13202TIP3    H261022   6.292   6.641   0.661  0.4840 -1.1923 -0.2290
13203TIP3   OH261023   3.801   0.267   1.404  0.3023  0.3314 -0.0603
13203TIP3    H161024   3.770   0.239   1.318  0.5514  0.3514 -0.1552
13203TIP3    H261025   3.789   0.190   1.459 -2.1608  1.0379  0.4799
13204TIP3   OH261026   5.194   5.029   1.065  0.6517 -0.1515 -0.3434
13204TIP3    H161027   5.234   4.948   1.095  1.3383  0.0704 -0.6645
13204TIP3    H261028   5.117   5.000   1.015  1.2859 -0.6384 -1.0560
13205TIP3   OH261029   5.243   6.350   3.369  0.0777 -0.5760  0.0915
13205TIP3    H161030   5.318   6.404   3.392  0.6705 -0.5677 -1.7430
13205TIP3    H261031   5.240   6.282   3.436  0.5485  0.5624  1.2675
13206TIP3   OH261032   5.192   6.800   2.321  0.1184  0.6207  0.6210
13206TIP3    H161033   5.285   6.808   2.342  0.6676 -2.7807 -0.2345
13206TIP3    H261034   5.153   6.760   2.399 -0.3620  0.7322  0.4387
13207TIP3   OH261035   4.288   5.409   1.398 -0.0717 -0.2369  0.7783
13207TIP3    H161036   4.309   5.502   1.393 -2.8835  0.3158 -2.7868
13207TIP3    H261037   4.228   5.402   1.472 -2.0304  1.2869 -0.6268
13208TIP3   OH261038   2.176   6.307   0.643 -0.5729 -0.1194 -0.5551
13208TIP3    H161039   2.187   6.310   0.548  0.5256 -0.1508 -0.4339
13208TIP3    H261040   2.251   6.356   0.677 -2.1064  1.7142  0.2277
13209TIP3   OH261041   2.576   6.380   0.257  0.2342 -0.0023 -0.1887
13209TIP3    H161042   2.620   6.438   0.195  1.8510  0.6589  1.5163
13209TIP3    H261043   2.511   6.435   0.300 -1.7066 -0.7591 -2.0925
13210TIP3   OH261044   5.833   6.865   4.453 -0.3994 -0.8095  0.4057
13210TIP3    H161045   5.796   6.839   4.537 -0.9006 -1.8570 -0.1216
13210TIP3    H261046   5.763   6.850   4.390  0.2693 -0.9159 -0.3305
13211TIP3   OH261047   4.332   6.906  14.109  0.0712 -0.2440  0.3724
13211TIP3    H161048   4.326   6.973  14.041  3.7751 -0.2240 -0.0707
13211TIP3    H261049   4.325   6.823  14.062 -1.4480 -0.1929  0.5098
13212TIP3   OH261050   5.288   6.458   0.390  0.1818 -0.7168 -0.1332
13212TIP3    H161051   5.285   6.546   0.427 -0.1918 -0.6805 -0.2411
13212TIP3    H261052   5.367   6.456   0.336  0.6425 -0.7216  0.5416
13213TIP3   OH261053   2.966   5.842   1.125  0.0549  0.4373 -0.1055
13213TIP3    H161054   2.889   5.872   1.174  0.2294  1.8302 -0.6680
13213TIP3    H261055   2.943   5.855   1.033  1.3452  1.8097 -0.2433
13214TIP3   OH261056   3.591   7.010   2.882  0.0153 -0.3192 -0.6546
13214TIP3    H161057   3.543   7.079   2.927 -0.7249 -0.2769 -1.4954
13214TIP3    H261058   3.683   7.030   2.898 -0.2281 -0.0522  0.4535
13215TIP3   OH261059   2.978   6.619   1.420  0.0862 -0.3873 -0.5687
13215TIP3    H161060   3.018   6.572   1.348 -0.6969  1.1334 -2.0233
13215TIP3    H261061   3.036   6.693   1.436  0.0453 -0.4926  0.1005
13216TIP3   OH261062   5.136   6.242   0.410  0.6434  0.1434 -0.4522
13216TIP3    H161063   5.204   6.309   0.400  0.3676  0.4082 -0.5492
13216TIP3    H261064   5.092   6.240   0.325 -0.1577  0.7127 -0.0562
13217TIP3   OH261065   4.609   1.393  13.656 -0.2238 -0.0152 -0.4375
13217TIP3    H161066   4.629   1.366  13.566  0.1440  0.2981 -0.4551
13217TIP3    H261067   4.662   1.334  13.710  0.1029  0.2613 -0.4521
13218TIP3   OH261068   4.459   6.224  14.868 -0.1088  0.2092  0.2164
13218TIP3    H161069   4.369   6.205  14.895 -1.0685  2.8208 -0.9062
13218TIP3    H261070   4.511   6.216  14.948 -1.4126 -0.8736  0.9742
13219TIP3   OH261071   5.363   5.227   2.368 -0.1935  0.4687  0.7464
13219TIP3    H161072   5.417   5.150   2.351 -0.0668  1.0689 -1.8199
13219TIP3    H261073   5.278   5.206   2.328  0.5951  2.5519 -2.2506
13220TIP3   OH261074   6.381   5.768   0.005 -0.3770  0.3616  0.3059
13220TIP3    H161075   6.400   5.693  -0.052 -4.0695  0.3446 -1.0633
13220TIP3    H261076   6.374   5.731   0.092  1.0906 -0.3222  0.1476
13221TIP3   OH261077   5.868   5.277  15.894 -0.3988 -0.2258 -0.1895
13221TIP3    H161078   5.875   5.242  15.983  2.2905 -0.3838 -0.4326
13221TIP3    H261079   5.852   5.371  15.907  1.7729  0.0779  0.4925
13222TIP3   OH261080   4.003   4.383   0.537 -0.1526  0.2224  0.0945
13222TIP3    H161081   3.933   4.406   0.598 -0.0998  2.0226 -0.5088
13222TIP3    H261082   3.959   4.369   0.453 -0.0556 -0.8846  0.2198
13223TIP3   OH261083   5.221   6.320  15.292 -0.2308 -0.3182  0.0440
13223TIP3    H161084   5.316   6.308  15.292 -0.2889 -0.8160 -0.8344
13223TIP3    H261085   5.203   6.366  15.374  0.5978 -1.6359  0.9924
13224TIP3   OH261086   4.327   5.896   1.960  0.7828 -0.0635  0.5665
13224TIP3    H161087   4.392   5.901   2.029  0.6563 -1.2880  0.7849
13224TIP3    H261088   4.307   5.803   1.952 -0.8658  0.2740  0.4325
13225TIP3   OH261089   6.038   5.826  15.075  0.5437  0.1008  0.5089
13225TIP3    H161090   6.032   5.821  15.170 -2.4649  0.8756  0.4209
13225TIP3    H261091   6.039   5.920  15.056 -1.5427 -0.0251 -0.3130
13226TIP3   OH261092   4.513   5.065  13.257  0.4496  0.0655 -0.2157
13226TIP3    H161093   4.538   5.072  13.350 -0.4861  0.0531  0.0459
13226TIP3    H261094   4.536   4.976  13.233  1.8696  0.4548 -0.3562
13227TIP3   OH261095   3.910   0.795   0.522  0.2189 -0.2500 -0.1381
13227TIP3    H161096   3.819   0.782   0.548  0.4181  0.2932  0.8730
13227TIP3    H261097   3.905   0.834   0.435 -0.5928  1.8228  0.7963
13228TIP3   OH261098   6.040   3.817   0.108  0.0577  0.1215 -0.9679
13228TIP3    H161099   6.124   3.863   0.114  0.1840 -0.2576  0.2952
13228TIP3    H261100   6.022   3.789   0.197 -1.8892  1.0326 -1.0647
13229TIP3   OH261101   5.901   0.907   3.998  0.5054 -0.0474 -0.5146
13229TIP3    H161102   5.872   0.976   3.939  2.3485 -0.6067 -2.1066
13229TIP3    H261103   5.819   0.871   4.034 -0.5252  1.9146 -0.8069
13230TIP3   OH261104   4.230   6.365   2.188 -0.0149 -0.2503 -0.4103
13230TIP3    H161105   4.277   6.434   2.235  0.3867 -1.5093  1.0857
13230TIP3    H261106   4.245   6.384   2.095  0.8732  1.1235  0.0092
13231TIP3   OH261107   5.105   7.267   1.202  0.0167  0.1706 -0.5296
13231TIP3    H161108   5.120   7.177   1.170  1.8649  0.6595 -1.0598
13231TIP3    H261109   5.021   7.261   1.248 -0.1569 -1.7177 -1.0121
13232TIP3   OH261110   1.024   0.534   1.513 -0.3865 -0.1198 -0.2972
13232TIP3    H161111   1.106   0.562   1.554  0.1679 -1.0408 -0.7733
13232TIP3    H261112   0.991   0.612   1.469  0.9745 -0.1084 -1.3288
13233TIP3   OH261113   6.029   0.205   1.294 -0.6544  0.1304 -0.6990
13233TIP3    H161114   5.997   0.207   1.204 -0.7064  0.1054 -0.6811
13233TIP3    H261115   5.951   0.186   1.347 -0.5984  0.0031 -0.6612
13234TIP3   OH261116   4.179   3.662   3.100 -0.1849  0.0109 -0.1958
13234TIP3    H161117   4.092   3.695   3.122 -0.9113 -2.0605  0.1258
13234TIP3    H261118   4.218   3.732   3.048 -2.3851  0.5876 -1.1404
13235TIP3   OH261119   6.022   7.254   2.500  0.1395  0.1276 -0.0665
13235TIP3    H161120   5.960   7.326   2.512  1.5226  1.0729  1.5619
13235TIP3    H261121   5.994   7.213   2.418 -1.6702  1.4953 -0.1785
13236TIP3   OH261122   5.694   6.763   1.870 -0.0591 -0.0142 -0.2418
13236TIP3    H161123   5.735   6.676   1.871 -1.4356 -0.6762  2.4388
13236TIP3    H261124   5.722   6.801   1.787  0.8565 -2.8840 -1.3270
13237TIP3   OH261125   5.798   6.735   0.804  0.1246  0.2852 -0.4255
13237TIP3    H161126   5.794   6.694   0.891 -0.0516  1.0201 -0.0793
13237TIP3    H261127   5.798   6.829   0.823  1.1038  0.4395 -1.1802
13238TIP3   OH261128   6.184   4.464   1.098 -0.3633 -0.2652  0.1128
13238TIP3    H161129   6.261   4.506   1.135 -0.0055 -1.2583  0.5065
13238TIP3    H261130   6.128   4.444   1.173 -1.5860  1.5479 -0.2632
13239TIP3   OH261131   6.328   5.293   0.759  0.2164  0.1323  0.6104
13239TIP3    H161132   6.322   5.208   0.716  0.9006  1.3857 -2.0529
13239TIP3    H261133   6.407   5.286   0.814  1.5530 -0.2236 -1.3167
13240TIP3   OH261134   3.211   6.596   0.901  0.2557 -0.3915 -0.0270
13240TIP3    H161135   3.162   6.609   0.820  0.7257  3.5307  0.2341
13240TIP3    H261136   3.302   6.590   0.873  0.3572  0.3138  0.1507
13241TIP3   OH261137   5.224   3.170   0.128  0.3906 -0.2301  0.4318
13241TIP3    H161138   5.255   3.113   0.057  1.3198  1.9724 -0.9966
13241TIP3    H261139   5.134   3.191   0.104  1.0377  1.3723 -0.7249
13242TIP3   OH261140   0.745   6.592   2.104 -0.5566  0.1907 -0.0187
13242TIP3    H161141   0.700   6.635   2.176 -0.2671  1.3779 -0.5322
13242TIP3    H261142   0.714   6.502   2.106  0.5725 -0.1965  2.5197
13243TIP3   OH261143   4.010   0.227   0.077  0.2492 -0.8207 -0.0536
13243TIP3    H161144   4.089   0.262   0.117 -0.4145 -0.4880  0.9754
13243TIP3    H261145   3.964   0.303   0.043 -1.2543 -0.6271  2.2995
13244TIP3   OH261146   4.810   5.230   2.932 -0.4356  0.4758  0.2128
13244TIP3    H161147   4.782   5.155   2.880 -0.2382 -1.0880  2.3075
13244TIP3    H261148   4.877   5.195   2.991  1.7271  2.8997 -0.6737
13245TIP3   OH261149   4.853   7.213   1.528  0.6718  0.3544  0.2977
13245TIP3    H161150   4.831   7.199   1.620 -1.9831  0.5342 -0.2500
13245TIP3    H261151   4.882   7.127   1.497 -2.3513 -0.7785  0.3593
13246TIP3   OH261152   6.889   6.978   3.619 -0.0760  1.1719  0.7641
13246TIP3    H161153   6.794   6.979   3.634 -0.3034  1.0773 -0.5629
13246TIP3    H261154   6.914   7.071   3.623 -0.2132  1.1890  1.2184
13247TIP3   OH261155   6.019   5.586   3.604  0.4015  0.3001 -0.2240
13247TIP3    H161156   5.937   5.547   3.634  0.5079 -1.0890 -1.6619
13247TIP3    H261157   6.064   5.515   3.559  1.2072  1.7442 -1.7434
13248TIP3   OH261158   6.629   7.086   0.609 -0.2209 -0.5994  0.3494
13248TIP3    H161159   6.711   7.038   0.622  1.2750  1.8558  0.2876
13248TIP3    H261160   6.614   7.130   0.693 -0.8497 -0.1057 -0.0222
13249TIP3   OH261161   7.243   6.370  14.688 -0.0739 -0.1525 -0.0470
13249TIP3    H161162   7.212   6.291  14.732  0.9178 -0.9464 -0.7551
13249TIP3    H261163   7.164   6.422  14.674 -0.4831 -0.1757  2.0757
13250TIP3   OH261164   4.312   1.345   2.151  0.4253  0.1091 -0.1052
13250TIP3    H161165   4.351   1.367   2.067 -0.8486 -0.2870 -0.8192
13250TIP3    H261166   4.250   1.275   2.131 -0.1132  0.2230  1.1073
13251TIP3   OH261167   5.482   6.424   1.148  0.3333  0.0726 -0.2031
13251TIP3    H161168   5.404   6.392   1.104  0.7425 -1.2574  0.0132
13251TIP3    H261169   5.452   6.500   1.199 -0.1408  1.6271 -2.7311
13252TIP3   OH261170   2.164   7.188   3.887  0.0818  0.0709 -0.1163
13252TIP3    H161171   2.118   7.249   3.829 -0.0530 -0.4309 -0.5474
13252TIP3    H261172   2.178   7.237   3.968 -1.4826  0.1388  0.1344
13253TIP3   OH261173   1.058   5.441   2.448 -0.7145  0.5655  0.4917
13253TIP3    H161174   0.983   5.500   2.439 -1.0565  0.0057 -0.3173
13253TIP3    H261175   1.099   5.468   2.530 -2.2936  0.3080  1.3761
13254TIP3   OH261176   0.257   0.053  14.703 -0.1083 -0.3977  0.2975
13254TIP3    H161177   0.304   0.130  14.669  0.2579 -0.9354 -0.4267
13254TIP3    H261178   0.295   0.038  14.790 -0.6861  0.6743  0.7472
13255TIP3   OH261179   1.511   7.192  15.160  0.4475  0.2459 -0.2689
13255TIP3    H161180   1.562   7.266  15.130  0.2435  1.0702  1.3758
13255TIP3    H261181   1.560   7.157  15.234 -0.3282 -0.1945  0.0456
13256TIP3   OH261182   0.368   0.719   1.783  0.6038  0.1313 -0.3267
13256TIP3    H161183   0.301   0.714   1.851 -0.6016  0.5408 -1.4629
13256TIP3    H261184   0.451   0.714   1.830 -0.2168  0.3425  1.1578
13257TIP3   OH261185   6.343   6.485   1.641  0.8529 -0.5199  0.1006
13257TIP3    H161186   6.347   6.580   1.651 -0.8445 -0.5571  1.4408
13257TIP3    H261187   6.362   6.469   1.549  1.4956  1.0978 -0.0522
13258TIP3   OH261188   6.629   6.397   0.621  0.4303  0.3291 -0.3128
13258TIP3    H161189   6.594   6.485   0.613  0.4814  0.2929 -1.0057
13258TIP3    H261190   6.566   6.342   0.574  1.7424  0.3540 -2.1452
13259TIP3   OH261191   5.573   0.202   0.969 -0.1492 -0.7587 -0.0389
13259TIP3    H161192   5.506   0.251   1.016 -1.7676 -2.6570 -0.2797
13259TIP3    H261193   5.526   0.127   0.933  2.1254 -2.1735 -0.1479
13260TIP3   OH261194   6.996   5.845  15.795 -0.0956  0.0112  0.0064
13260TIP3    H161195   7.083   5.865  15.760 -1.1821  1.0090 -2.2682
13260TIP3    H261196   7.008   5.839  15.890  1.9079  3.0309 -0.0097
13261TIP3   OH261197   6.986   6.785   1.960  0.3006  0.3053 -0.9117
13261TIP3    H161198   7.040   6.863   1.966  0.1121  0.3264  0.5202
13261TIP3    H261199   7.033   6.728   1.899  1.1928  0.9118 -0.7977
13262TIP3   OH261200   5.542   7.068   0.325 -0.2622  0.3809  0.0904
13262TIP3    H161201   5.505   6.985   0.296 -1.6579  0.8562  0.5029
13262TIP3    H261202   5.636   7.050   0.335 -0.6501 -1.3114  0.7743
13263TIP3   OH261203   1.469   4.113   0.746  0.0982  0.3911 -0.2629
13263TIP3    H161204   1.513   4.197   0.757  1.2439 -0.2736  0.3095
13263TIP3    H261205   1.420   4.100   0.828 -0.7205  0.8580 -0.6677
13264TIP3   OH261206   5.601   3.702   0.069  0.7138  0.0088  0.3143
13264TIP3    H161207   5.686   3.697   0.025  0.4935 -0.3079 -0.0818
13264TIP3    H261208   5.538   3.679   0.001  0.2355  1.1554  0.3465
13265TIP3   OH261209   6.773   0.637   2.498 -0.3029 -0.2379 -0.6378
13265TIP3    H161210   6.864   0.667   2.495  0.5415 -2.5213  1.0681
13265TIP3    H261211   6.726   0.709   2.540  1.1558 -0.0407  0.7146
13266TIP3   OH261212   4.431   4.715   1.654  0.4741  0.2869  0.2782
13266TIP3    H161213   4.481   4.684   1.578  1.0423 -0.1381  0.8255
13266TIP3    H261214   4.438   4.644   1.718 -1.6215 -0.1885  0.0064
13267TIP3   OH261215   6.353   5.557  15.810 -0.0021  0.1372  0.5520
13267TIP3    H161216   6.398   5.496  15.752  0.6995  0.7155  0.4766
13267TIP3    H261217   6.268   5.516  15.827 -0.6836  0.4859 -1.8138
13268TIP3   OH261218   0.148   7.150   2.707  0.3355  0.4942 -0.7422
13268TIP3    H161219   0.163   7.243   2.689  1.2527  0.4392 -0.2927
13268TIP3    H261220   0.218   7.105   2.660 -0.4963 -0.0251 -1.5003
13269TIP3   OH261221   5.855   0.329   1.643 -0.1379  0.2526 -0.0710
13269TIP3    H161222   5.919   0.365   1.704 -0.1703  0.3599 -0.1002
13269TIP3    H261223   5.801   0.404   1.617  0.1013  0.2797 -0.5058
13270TIP3   OH261224   6.999   1.954   2.923 -0.3169 -0.2254  0.3511
13270TIP3    H161225   7.068   2.007   2.881 -1.4941  1.4625  0.4934
13270TIP3    H261226   7.042   1.918   3.001  0.1543  1.6353  0.9931
13271TIP3   OH261227   5.873   5.276   0.875 -0.3279  0.3017  0.4847
13271TIP3    H161228   5.861   5.327   0.956 -0.5148  1.2363 -0.1241
13271TIP3    H261229   5.827   5.327   0.809  0.9840  0.2345 -0.4878
13272TIP3   OH261230   4.241   0.868   0.422  0.0499  0.3765  0.2493
13272TIP3    H161231   4.173   0.801   0.414 -0.0608  0.4166  0.8350
13272TIP3    H261232   4.199   0.948   0.393 -0.6346  0.6997  2.0607
13273TIP3   OH261233   5.213   5.359   1.277 -0.2272  0.0988  0.1839
13273TIP3    H161234   5.282   5.307   1.236  0.3514  0.3834  0.7969
13273TIP3    H261235   5.174   5.300   1.341 -0.0373  0.1904  0.3840
13274TIP3   OH261236   5.388   0.517   1.686 -0.2579 -0.0978 -0.5726
13274TIP3    H161237   5.397   0.431   1.726  1.9507  0.3940  0.0443
13274TIP3    H261238   5.360   0.574   1.758  0.7223  0.1945 -0.4283
13275TIP3   OH261239   2.315   5.919   0.227 -0.1847 -0.4577  0.0867
13275TIP3    H161240   2.236   5.953   0.184  1.0085  0.5623 -1.3226
13275TIP3    H261241   2.344   5.991   0.283  3.1264  1.5605 -3.9267
13276TIP3   OH261242   3.422   4.774   1.910 -0.4144  0.3255 -0.3168
13276TIP3    H161243   3.365   4.700   1.886  0.6387 -1.5723  2.7663
13276TIP3    H261244   3.416   4.780   2.005  4.4160  0.0608  0.1470
13277TIP3   OH261245   7.042   5.460   0.206  0.2373  0.1711 -0.3616
13277TIP3    H161246   6.977   5.405   0.163 -1.7339  2.1367  0.0215
13277TIP3    H261247   6.997   5.494   0.283  1.7191  1.5504 -0.0866
13278TIP3   OH261248   4.505   4.187   0.594 -0.0548 -0.6512  0.5894
13278TIP3    H161249   4.416   4.221   0.603  0.1029  0.0684 -0.3870
13278TIP3    H261250   4.511   4.160   0.502  1.5229  1.6468 -0.0238
13279TIP3   OH261251   4.835   6.658   2.491  0.0845  0.6536 -0.2858
13279TIP3    H161252   4.794   6.711   2.423 -0.1721  0.2440 -0.4516
13279TIP3    H261253   4.927   6.652   2.466 -0.1105  0.0716 -0.8760
13280TIP3   OH261254   6.502   0.679  14.948  0.1920  0.5792 -0.2285
13280TIP3    H161255   6.548   0.650  15.027  1.7515  1.0790 -0.9369
13280TIP3    H261256   6.409   0.672  14.971  0.6323  1.4730  1.9184
13281TIP3   OH261257   0.750   4.458   0.145  0.0580  0.4963 -0.1401
13281TIP3    H161258   0.681   4.404   0.106  0.7171 -0.2147 -0.3555
13281TIP3    H261259   0.704   4.528   0.191 -0.8330 -0.4012  0.3585
13282TIP3   OH261260   0.703   0.245   3.274  0.0512 -0.3662  0.7554
13282TIP3    H161261   0.624   0.295   3.289  0.1911  0.1235 -0.1264
13282TIP3    H261262   0.705   0.182   3.346 -0.7995  0.0324  1.1372
13283TIP3   OH261263   6.332   0.977  15.826 -0.2162 -0.1134  0.8096
13283TIP3    H161264   6.309   0.897  15.873  0.5389 -0.7060  0.1950
13283TIP3    H261265   6.405   1.014  15.876 -0.0356 -0.2407  0.6417
13284TIP3   OH261266   0.096   5.967   0.048 -0.2461 -0.1999 -0.0880
13284TIP3    H161267   0.081   5.872   0.048  0.3340 -0.2927 -0.6137
13284TIP3    H261268   0.076   5.994  -0.041 -1.3390  0.3303  0.3059
13285TIP3   OH261269   0.544   5.418   0.741 -0.4013  0.1695 -0.0359
13285TIP3    H161270   0.632   5.438   0.710 -0.7047 -0.8338 -1.6198
13285TIP3    H261271   0.502   5.503   0.751  0.1763  0.5766 -1.0010
13286TIP3   OH261272   5.718   6.028  14.313  0.5564 -0.2529 -0.5990
13286TIP3    H161273   5.800   6.002  14.357  0.1300 -1.0052 -0.2383
13286TIP3    H261274   5.688   5.947  14.271  0.3961  0.2116 -1.3739
13287TIP3   OH261275   6.942   4.434   0.030  0.1374  0.0029 -0.4360
13287TIP3    H161276   7.024   4.476   0.056  0.1088  0.7230 -1.4974
13287TIP3    H261277   6.908   4.395   0.111  1.9684 -1.0570 -0.1523
13288TIP3   OH261278   7.125   6.941  13.808 -0.0473 -0.2603 -0.6305
13288TIP3    H161279   7.042   6.932  13.856  0.5034 -1.0104  0.1817
13288TIP3    H261280   7.150   7.032  13.821 -0.0083 -0.4088  0.3175
13289TIP3   OH261281   5.755   5.228   1.877  0.1926  0.4182  0.1162
13289TIP3    H161282   5.727   5.243   1.787  0.1639  1.6638  0.3332
13289TIP3    H261283   5.818   5.156   1.871  0.7088  0.9638 -0.9738
13290TIP3   OH261284   4.392   5.029   0.250 -0.5173  0.3394  0.6388
13290TIP3    H161285   4.325   5.092   0.275  0.1155  0.7687  1.2880
13290TIP3    H261286   4.459   5.081   0.205 -0.1423  0.0904  0.8997
13291TIP3   OH261287   6.824   6.663  14.671  0.7400 -0.3158 -0.3276
13291TIP3    H161288   6.799   6.710  14.751  0.6649  0.2084 -0.6569
13291TIP3    H261289   6.851   6.577  14.702  1.3905  0.1143  0.3484
13292TIP3   OH261290   5.402   5.823   2.067  0.4438  0.2885  0.3036
13292TIP3    H161291   5.424   5.888   2.134 -0.3960 -1.6244  2.5020
13292TIP3    H261292   5.355   5.754   2.114 -0.0603 -1.1914 -2.2380
13293TIP3   OH261293   4.169   5.608   0.054  0.3768  0.7889  0.2207
13293TIP3    H161294   4.219   5.536   0.016 -1.5506 -0.2941 -0.3417
13293TIP3    H261295   4.078   5.582   0.042 -0.3347  3.0832  0.4956
13294TIP3   OH261296   0.319   6.258   0.340  0.2784 -0.2532  0.3063
13294TIP3    H161297   0.410   6.235   0.363  0.1632  0.1231  1.1669
13294TIP3    H261298   0.278   6.175   0.319  0.7101 -0.4727  0.3197
13295TIP3   OH261299   7.150   5.391   0.735  0.3905 -0.4889  0.2520
13295TIP3    H161300   7.060   5.362   0.749  0.5952 -1.2537 -0.0140
13295TIP3    H261301   7.203   5.338   0.795  0.8834 -1.4492 -1.0133
13296TIP3   OH261302   6.563   4.617   1.024 -0.4043 -0.5825 -0.2062
13296TIP3    H161303   6.585   4.621   1.117  0.3688  0.8853 -0.4301
13296TIP3    H261304   6.553   4.709   0.998 -2.3398 -1.0472 -1.1806
13297TIP3   OH261305   7.044   6.653   3.222  0.1742  0.3804 -0.4376
13297TIP3    H161306   7.004   6.569   3.197  2.2111 -0.4260 -1.1008
13297TIP3    H261307   6.978   6.695   3.277 -1.5474 -0.9338 -1.4441
13298TIP3   OH261308   5.806   6.339  14.548  0.0219  0.4777  0.2395
13298TIP3    H161309   5.825   6.295  14.465 -2.5194 -0.6777  0.2223
13298TIP3    H261310   5.784   6.268  14.608  0.4666  1.4174  1.5217
13299TIP3   OH261311   1.331   7.271   1.407 -0.5753 -0.4400 -0.2101
13299TIP3    H161312   1.407   7.214   1.396  0.1112  0.3858  0.1733
13299TIP3    H261313   1.284   7.233   1.481  1.2071  0.8749  1.6729
13300TIP3   OH261314   6.682   4.164   2.076  0.1572 -0.6405 -0.1112
13300TIP3    H161315   6.734   4.213   2.013  0.0237  0.4224  0.5848
13300TIP3    H261316   6.616   4.226   2.107  0.2752 -1.1156  1.1319
13301TIP3   OH261317   0.775   5.002  14.453 -0.7036  0.3715  0.6585
13301TIP3    H161318   0.843   5.035  14.394 -1.1701  0.5830  0.2354
13301TIP3    H261319   0.727   4.937  14.401  0.0722 -0.8340  1.4177
13302TIP3   OH261320   6.280   6.383  15.595 -0.3981 -0.2412 -0.1742
13302TIP3    H161321   6.337   6.460  15.588 -0.8619  0.4531  3.0159
13302TIP3    H261322   6.340   6.309  15.596  0.3356  0.3666  1.3233
13303TIP3   OH261323   6.743   6.058   0.389  0.3744  0.2438  0.2154
13303TIP3    H161324   6.723   6.100   0.305  0.1827  1.8373  1.0196
13303TIP3    H261325   6.708   6.119   0.454  0.9037 -0.7619  1.4603
13304TIP3   OH261326   4.318   6.083   1.128  0.7334 -0.2007  0.3919
13304TIP3    H161327   4.296   5.993   1.104  0.7614  0.0237 -0.4767
13304TIP3    H261328   4.298   6.088   1.222 -1.0108 -0.5831  0.0549
13305TIP3   OH261329   5.715   5.072   0.480  0.0807 -0.1351 -0.3704
13305TIP3    H161330   5.790   5.023   0.513  0.7455  0.8578 -0.3631
13305TIP3    H261331   5.655   5.006   0.446  0.5374 -1.0037  0.4956
13306TIP3   OH261332   5.977   5.696   0.420  0.2751  0.4313 -0.6322
13306TIP3    H161333   5.969   5.612   0.376  2.4538 -0.2853  0.2595
13306TIP3    H261334   5.918   5.689   0.495 -1.6430  0.7708 -2.0686
13307TIP3   OH261335   7.289   6.707  15.492  0.7589 -0.1224  0.0613
13307TIP3    H161336   7.223   6.744  15.435  0.6093  0.4036  0.5711
13307TIP3    H261337   7.286   6.761  15.571 -0.5328 -2.1294  1.4545
13308TIP3   OH261338   7.220   6.805   2.643  0.2126 -0.3216 -0.0657
13308TIP3    H161339   7.255   6.814   2.555 -2.3780  0.6867 -1.0246
13308TIP3    H261340   7.200   6.895   2.670  0.8057 -0.6399  1.5088
13309TIP3   OH261341   1.402   5.890   0.419  0.6577  0.4499  0.3948
13309TIP3    H161342   1.308   5.884   0.408  0.8784  0.1663 -1.4823
13309TIP3    H261343   1.414   5.922   0.509 -1.2198  0.8562  0.5146
13310TIP3   OH261344   7.076   6.134   0.507  0.1660 -0.0267 -0.1972
13310TIP3    H161345   7.128   6.145   0.428 -0.3532  0.5214 -0.4660
13310TIP3    H261346   7.025   6.215   0.514  0.6972  0.2227  1.0597
13311TIP3   OH261347   1.666   5.823   0.591 -0.7244  0.3178 -0.2356
13311TIP3    H161348   1.600   5.874   0.639 -0.7694 -1.3289  1.5302
13311TIP3    H261349   1.748   5.872   0.603 -1.1331  1.0057 -0.2425
13312TIP3   OH261350   0.681   7.003   0.150 -1.1197  0.3060  0.0847
13312TIP3    H161351   0.638   6.932   0.197 -0.9830  1.2367  1.6283
13312TIP3    H261352   0.633   7.082   0.175  1.4827  1.3672  1.9185
13313TIP3   OH261353   0.718   4.769   1.427  0.6267 -0.1314  0.3306
13313TIP3    H161354   0.754   4.694   1.378 -0.5213 -0.1083 -0.5541
13313TIP3    H261355   0.626   4.746   1.442  0.2076  1.2108 -0.1496
13314TIP3   OH261356   6.591   0.418   0.238 -0.1660 -0.4038  0.3816
13314TIP3    H161357   6.602   0.513   0.239 -0.9061 -0.2463 -2.3528
13314TIP3    H261358   6.499   0.404   0.216 -0.0979 -1.7745  0.8978
13315TIP3   OH261359   5.038   6.836   0.314  0.0194  0.0332 -0.3910
13315TIP3    H161360   5.099   6.782   0.364  0.1773 -0.7114 -1.3646
13315TIP3    H261361   5.091   6.909   0.283 -0.1341  0.6235  0.7124
13316TIP3   OH261362   4.536   7.037   0.294  0.1028  0.1414 -0.4638
13316TIP3    H161363   4.568   6.946   0.300  0.1044  0.2141  0.6932
13316TIP3    H261364   4.556   7.075   0.380 -0.2735  1.1191 -0.8077
13317TIP3   OH261365   3.673   4.721   1.427 -0.1188  0.1858 -0.0129
13317TIP3    H161366   3.590   4.692   1.465 -0.9386  2.8780  0.4267
13317TIP3    H261367   3.734   4.723   1.501 -0.6353  1.5280  0.4053
13318TIP3   OH261368   4.872   6.327   0.441  0.0301 -0.3937  0.4384
13318TIP3    H161369   4.816   6.253   0.418  0.9761 -0.7837 -0.6672
13318TIP3    H261370   4.959   6.288   0.452  0.5702  0.5796 -0.3122
13319TIP3   OH261371   6.997   6.078  15.246  0.2145  0.0940 -0.5996
13319TIP3    H161372   6.983   5.985  15.226 -1.0877  0.2250 -0.3272
13319TIP3    H261373   6.982   6.085  15.340  0.9656  0.4665 -0.5044
13320TIP3   OH261374   3.937   6.604   3.722  0.4765 -0.3608  0.2502
13320TIP3    H161375   3.854   6.642   3.750 -0.2657 -1.4190 -0.4828
13320TIP3    H261376   3.939   6.618   3.627  0.4275 -1.6758  0.0489
13321TIP3   OH261377   5.104   0.137   0.701  0.3365 -0.5136 -0.1571
13321TIP3    H161378   5.092   0.073   0.630  1.1751 -1.8905  0.9190
13321TIP3    H261379   5.033   0.119   0.762  1.3158 -1.3186  0.7845
13322TIP3   OH261380   4.449   5.469   0.141 -0.7477 -0.3054 -0.1028
13322TIP3    H161381   4.416   5.458   0.052 -4.2626 -1.2220  1.2432
13322TIP3    H261382   4.495   5.386   0.159  0.7803  0.2413 -1.3284
13323TIP3   OH261383   5.917   6.023   2.014  0.5503  0.3410  0.3599
13323TIP3    H161384   5.980   5.958   1.983 -1.0800 -0.3307 -1.6711
13323TIP3    H261385   5.922   6.094   1.950 -2.2115 -0.6579 -1.0238
13324TIP3   OH261386   0.164   1.225   0.063  0.1253  0.4595 -0.0882
13324TIP3    H161387   0.174   1.200   0.154  1.2833 -0.0919 -0.3481
13324TIP3    H261388   0.234   1.178   0.017 -2.0910 -1.3941 -1.6803
13325TIP3   OH261389   0.101   4.706   0.971  0.3451  0.3556  0.0856
13325TIP3    H161390   0.060   4.626   1.003 -0.9373  1.1291  0.4197
13325TIP3    H261391   0.179   4.716   1.026  0.1049 -0.2657  0.5422
13326TIP3   OH261392   0.044   4.776   0.246 -0.7054  0.0257 -0.2971
13326TIP3    H161393   0.075   4.837   0.313 -1.2180  1.8960 -1.6869
13326TIP3    H261394   0.091   4.695   0.263  1.5296  1.4105  0.4086
13327TIP3   OH261395   5.594   0.921   0.854 -0.3115  0.0225 -0.4352
13327TIP3    H161396   5.679   0.945   0.816  0.0985  0.6557  0.8870
13327TIP3    H261397   5.600   0.826   0.866  0.3735  0.1277  0.0633
13328TIP3   OH261398   0.180   5.994   0.576 -0.0559 -0.0478 -0.8637
13328TIP3    H161399   0.211   5.994   0.486  0.5769  0.3052 -0.6478
13328TIP3    H261400   0.117   5.922   0.580 -1.1427  0.8297 -1.9449
13329TIP3   OH261401   5.140   6.083  15.509  0.7662 -0.2628 -0.1994
13329TIP3    H161402   5.194   6.087  15.431 -0.2460 -0.0775 -0.8955
13329TIP3    H261403   5.053   6.111  15.480  0.6228  0.8326  1.2064
13330TIP3   OH261404   6.430   6.497   0.015  0.3813 -0.0351 -0.4972
13330TIP3    H161405   6.512   6.447   0.012  1.7999  2.0545  1.2736
13330TIP3    H261406   6.380   6.457   0.086 -0.1327 -1.2615 -1.5249
13331TIP3   OH261407   3.125   5.570   0.820 -0.5771 -0.6490  0.1470
13331TIP3    H161408   3.083   5.498   0.867  0.5195 -0.1838  1.9041
13331TIP3    H261409   3.113   5.549   0.728 -2.4477 -1.7973  0.6248
13332TIP3   OH261410   6.782   6.555   0.902  0.6534 -0.0490 -0.1079
13332TIP3    H161411   6.783   6.462   0.924  0.3048  0.2699  1.3045
13332TIP3    H261412   6.874   6.581   0.903  0.6183  0.0440  1.3666
13333TIP3   OH261413   0.823   0.581   1.980  0.2032  0.3497  0.3836
13333TIP3    H161414   0.905   0.618   2.011 -0.5200  1.5761  0.8515
13333TIP3    H261415   0.848   0.524   1.907  1.7638 -1.4896  2.3054
13334TIP3   OH261416   7.178   5.059  15.140 -0.1141  0.1247 -0.4168
13334TIP3    H161417   7.247   4.996  15.159 -0.0385  0.1421 -0.6332
13334TIP3    H261418   7.174   5.062  15.044 -0.4205  0.1175 -0.4044
13335TIP3   OH261419   2.771   5.711   0.880  0.6933  0.2420  0.2158
13335TIP3    H161420   2.765   5.676   0.791 -0.7250  1.7650 -0.3231
13335TIP3    H261421   2.681   5.735   0.902  0.8915 -0.9729  2.4241
13336TIP3   OH261422   3.057   4.809   0.929 -0.6361  0.0590 -0.0634
13336TIP3    H161423   3.082   4.762   0.850 -1.1135  0.8630 -0.6946
13336TIP3    H261424   2.996   4.751   0.974 -0.2811 -0.4430 -0.2183
13337TIP3   OH261425   6.581   0.459   1.552 -0.4292  0.3335 -0.3843
13337TIP3    H161426   6.675   0.460   1.571 -0.4511  0.3050 -0.2780
13337TIP3    H261427   6.569   0.529   1.488 -0.8550  2.5024  1.9879
13338TIP3   OH261428   5.429   0.643   0.679 -0.0325  0.5732  0.5430
13338TIP3    H161429   5.354   0.654   0.737  0.5009  1.9791  0.9891
13338TIP3    H261430   5.506   0.654   0.735  0.5317 -1.4307  0.1983
13339TIP3   OH261431   5.438   6.847   3.786  0.0249  0.2024  0.7460
13339TIP3    H161432   5.380   6.775   3.764 -0.4114  1.4040 -2.3498
13339TIP3    H261433   5.381   6.914   3.822 -0.3569  0.8087 -0.9102
13340TIP3   OH261434   0.286   0.180  15.556 -0.9604  0.7497  0.2067
13340TIP3    H161435   0.365   0.135  15.587 -0.8477 -0.0210 -1.1464
13340TIP3    H261436   0.281   0.260  15.609  0.9407  0.9991  0.0306
13341TIP3   OH261437   4.234   1.026   1.961  0.5756 -0.1599 -0.3274
13341TIP3    H161438   4.185   1.103   1.991  1.1550  0.1522 -0.1801
13341TIP3    H261439   4.168   0.956   1.957  0.2302  0.1188  0.4143
13342TIP3   OH261440   5.362   5.247  14.791  0.3774  0.3543 -0.4392
13342TIP3    H161441   5.424   5.230  14.862 -0.8873 -1.6644  0.2294
13342TIP3    H261442   5.294   5.301  14.831 -0.7961 -1.5364  0.1340
13343TIP3   OH261443   1.592   5.552   0.388 -0.0422  0.6948  0.3883
13343TIP3    H161444   1.657   5.482   0.396  1.3358  1.7436 -1.4478
13343TIP3    H261445   1.586   5.589   0.476  0.7549 -0.3607  0.8994
13344TIP3   OH261446   0.640   5.623   1.709  0.1255 -0.3919  0.4299
13344TIP3    H161447   0.563   5.666   1.745  0.7607 -0.3097  1.7185
13344TIP3    H261448   0.606   5.549   1.658 -0.8110 -0.1408  0.6974
13345TIP3   OH261449   3.789   5.594   0.639  0.4742 -0.2975 -0.7899
13345TIP3    H161450   3.840   5.637   0.708 -0.5255 -0.6229  0.1750
13345TIP3    H261451   3.714   5.652   0.625 -0.5161 -1.3440  0.0266
13346TIP3   OH261452   4.946   6.555   1.227  0.2084  0.2877  0.0480
13346TIP3    H161453   4.926   6.597   1.143 -1.9089 -2.5535 -0.9317
13346TIP3    H261454   4.940   6.461   1.210 -0.0250 -0.3651  3.3200
13347TIP3   OH261455   6.652   6.229   3.040 -0.3478  0.6906 -0.4442
13347TIP3    H161456   6.677   6.247   3.130  1.7062  2.8584 -1.4025
13347TIP3    H261457   6.716   6.277   2.987  0.6138 -3.2514 -3.1063
13348TIP3   OH261458   7.172   6.719   0.093 -0.0660  0.5745 -0.6640
13348TIP3    H161459   7.142   6.628   0.100 -0.2738  0.7011  0.1886
13348TIP3    H261460   7.260   6.718   0.131  0.0788  0.6659 -0.9918
13349TIP3   OH261461   5.111   0.845   1.527 -0.1930 -0.1134 -0.1741
13349TIP3    H161462   5.144   0.759   1.501 -1.2549 -0.2866 -0.9965
13349TIP3    H261463   5.122   0.847   1.622  0.9173 -0.6967 -0.2890
13350TIP3   OH261464   4.937   5.508   1.169 -0.6667  0.0899 -0.0310
13350TIP3    H161465   4.943   5.601   1.148 -2.2939  0.7895  2.4106
13350TIP3    H261466   4.973   5.501   1.257 -1.5859 -1.3969  0.2359
13351TIP3   OH261467   6.188   6.754   1.216  0.5562  0.3610 -0.3113
13351TIP3    H161468   6.257   6.688   1.220 -0.6701 -0.9986 -1.1097
13351TIP3    H261469   6.124   6.725   1.282  1.6845  2.7487  1.9356
13352TIP3   OH261470   5.373   0.377   0.005 -0.2960 -0.2088 -0.3731
13352TIP3    H161471   5.328   0.424  -0.065 -0.6049  0.4746  0.2697
13352TIP3    H261472   5.317   0.301   0.023 -0.4459 -0.1434 -0.5651
13353TIP3   OH261473   0.657   0.361   1.676 -0.0455  0.3043 -0.4985
13353TIP3    H161474   0.634   0.279   1.632 -2.3537  1.3612 -1.3474
13353TIP3    H261475   0.747   0.348   1.706  0.0125 -2.1088 -1.6126
13354TIP3   OH261476   0.289   7.286   2.046 -0.2386 -0.2423 -0.3180
13354TIP3    H161477   0.279   7.358   2.108  0.7978  0.4099 -0.9106
13354TIP3    H261478   0.383   7.276   2.034 -0.4069 -0.8524 -1.2256
13355TIP3   OH261479   0.395   6.710   2.935 -0.2460  0.4641  0.2208
13355TIP3    H161480   0.357   6.794   2.910 -0.4769  0.5792  0.9296
13355TIP3    H261481   0.456   6.731   3.005  1.1642  0.2756 -0.9416
13356TIP3   OH261482   5.926   4.766   1.978  0.1846  0.0384  0.1118
13356TIP3    H161483   5.860   4.716   2.027 -0.3306  1.3128  0.7421
13356TIP3    H261484   6.000   4.772   2.038  0.7601 -1.0903 -0.4651
13357TIP3   OH261485   6.196   4.597   1.524  0.4217 -0.6211  0.0620
13357TIP3    H161486   6.114   4.644   1.541  0.0122 -0.3870 -2.3719
13357TIP3    H261487   6.241   4.596   1.609 -1.8421 -0.2850  1.3182
13358TIP3   OH261488   5.807   2.517   2.289  0.3185 -0.2101 -0.0211
13358TIP3    H161489   5.805   2.478   2.377  2.1806 -0.4303 -0.0590
13358TIP3    H261490   5.786   2.445   2.230  0.4292 -0.3902  0.1576
13359TIP3   OH261491   5.497   5.010  15.874  0.3476 -0.3694  0.3886
13359TIP3    H161492   5.528   5.095  15.843  0.6640 -1.2533 -1.7452
13359TIP3    H261493   5.415   4.996  15.828  0.8318 -1.7095 -0.0908
13360TIP3   OH261494   6.539   6.677   0.347 -0.4593  0.3337  0.3370
13360TIP3    H161495   6.462   6.733   0.346 -0.2936  0.5444 -0.9201
13360TIP3    H261496   6.583   6.694   0.264  0.1377 -0.8956  0.3851
13361TIP3   OH261497   4.366   0.401   1.931  0.0913  0.4136  0.0759
13361TIP3    H161498   4.378   0.336   1.862 -1.4009 -0.5014  0.6643
13361TIP3    H261499   4.429   0.375   1.998 -2.1466 -1.9277  1.3686
13362TIP3   OH261500   5.727   6.997   3.989  0.1189 -0.1872 -0.0279
13362TIP3    H161501   5.729   7.023   3.897  2.2392 -1.0254 -0.2390
13362TIP3    H261502   5.759   7.073   4.036  1.8056 -0.7450 -0.2457
13363TIP3   OH261503   6.561   6.578   1.113  0.1945  0.7223  0.0356
13363TIP3    H161504   6.489   6.528   1.075 -0.0544  0.8195  0.3873
13363TIP3    H261505   6.624   6.587   1.040  0.8432 -1.2489  0.3028
13364TIP3   OH261506   1.004   0.465   0.932 -0.5105 -0.5129 -0.2443
13364TIP3    H161507   0.936   0.430   0.989 -1.7373 -0.6374 -1.7421
13364TIP3    H261508   0.986   0.427   0.846  0.6361  0.5075 -0.9635
13365TIP3   OH261509   6.205   6.881  15.295 -0.1532  0.3934  0.2319
13365TIP3    H161510   6.132   6.856  15.238  0.6741  0.9861 -1.1159
13365TIP3    H261511   6.163   6.929  15.367 -1.1671  0.0186 -0.0916
13366TIP3   OH261512   3.915   5.825   0.416 -0.2658  0.4195 -0.9075
13366TIP3    H161513   3.841   5.771   0.444 -0.0241  0.6906  0.2807
13366TIP3    H261514   3.993   5.772   0.435  0.0502  1.6933  1.5152
13367TIP3   OH261515   2.453   3.069   1.679 -0.4066 -0.0418 -0.1181
13367TIP3    H161516   2.494   3.003   1.735 -1.6487 -0.4755  0.2805
13367TIP3    H261517   2.471   3.152   1.724  1.0596 -0.0971 -0.5639
13368TIP3   OH261518   0.191   6.253   0.680 -0.2966 -0.0302  0.2225
13368TIP3    H161519   0.205   6.174   0.628 -1.3192  0.1583 -0.3434
13368TIP3    H261520   0.105   6.241   0.719  0.3712 -0.0718  1.7256
13369TIP3   OH261521   1.542   6.105  15.750  0.2501 -0.0174  0.3311
13369TIP3    H161522   1.588   6.021  15.758 -2.9449 -1.9295 -0.4082
13369TIP3    H261523   1.496   6.115  15.834  0.1714  0.7265  0.2018
13370TIP3   OH261524   2.513   7.256   2.427  0.0005 -0.7512  0.7310
13370TIP3    H161525   2.508   7.164   2.453  1.5352 -0.1277  3.4606
13370TIP3    H261526   2.422   7.284   2.420 -0.4812 -1.8594  2.2339
13371TIP3   OH261527   5.385   5.208   1.149 -0.0964 -0.1894  0.8743
13371TIP3    H161528   5.451   5.205   1.079  0.6794  0.4597  1.5721
13371TIP3    H261529   5.319   5.145   1.121 -0.6752  1.3093 -1.3308
13372TIP3   OH261530   5.056   4.181  15.212 -0.2176  0.0680  0.1333
13372TIP3    H161531   5.139   4.149  15.177  0.6589  0.3349  1.9131
13372TIP3    H261532   5.022   4.109  15.265  0.4626  1.0477  1.9823
13373TIP3   OH261533   3.634   6.608   2.550  0.0408  0.1590  0.3606
13373TIP3    H161534   3.644   6.563   2.634  0.2238 -1.5799 -0.5580
13373TIP3    H261535   3.556   6.662   2.561 -0.1769 -0.3740  1.5105
13374TIP3   OH261536   4.409   5.614   1.908  0.0190 -0.2935  1.0160
13374TIP3    H161537   4.499   5.630   1.937  0.7985 -2.0522 -0.3378
13374TIP3    H261538   4.382   5.535   1.955 -0.6842  0.0013  1.1172
13375TIP3   OH261539   4.290   6.038  15.847 -0.6176 -0.0331 -0.2144
13375TIP3    H161540   4.334   5.958  15.876  1.3576  1.1086  0.0212
13375TIP3    H261541   4.250   6.073  15.926 -0.2849 -0.0417 -0.0419
13376TIP3   OH261542   4.162   2.020   1.704 -0.9137  0.3435  0.3317
13376TIP3    H161543   4.156   2.087   1.772  0.5423  0.2288  0.5945
13376TIP3    H261544   4.087   1.962   1.720 -0.2927  0.0054  2.1926
13377TIP3   OH261545   4.322   7.064   0.111 -0.0810 -0.4584 -0.8801
13377TIP3    H161546   4.365   7.038   0.192 -0.9383 -0.5469 -0.4442
13377TIP3    H261547   4.239   7.103   0.140 -0.2759 -0.2565 -1.7018
13378TIP3   OH261548   4.569   1.418   1.278 -0.1840  0.2166 -0.0670
13378TIP3    H161549   4.523   1.352   1.330 -0.2194  0.7732  0.6169
13378TIP3    H261550   4.627   1.462   1.341  0.1008  0.6008 -0.5919
13379TIP3   OH261551   4.452   0.732   0.544 -0.7919 -0.2976  0.1446
13379TIP3    H161552   4.479   0.690   0.461 -3.3322 -0.7129 -0.5121
13379TIP3    H261553   4.373   0.780   0.521 -1.7550 -0.7514  2.4391
13380TIP3   OH261554   0.329   5.108  15.761  0.0488  0.1403 -0.0994
13380TIP3    H161555   0.302   5.019  15.783 -0.4163  0.3780  0.3147
13380TIP3    H261556   0.250   5.161  15.775  0.5268  0.7290  0.4060
13381TIP3   OH261557   6.082   6.196  15.982  0.7467  0.5867 -0.2633
13381TIP3    H161558   6.104   6.194  16.075 -0.2796 -0.4713 -0.0246
13381TIP3    H261559   6.019   6.267  15.973  0.8835  0.7218 -0.1659
13382TIP3   OH261560   5.988   4.505  15.096  0.1518 -0.0501  0.1805
13382TIP3    H161561   6.022   4.421  15.065  1.4641  1.9936 -4.2854
13382TIP3    H261562   6.066   4.556  15.119 -0.4435  1.0727 -0.2412
13383TIP3   OH261563   5.573   5.391   1.026  0.6846  0.6122 -0.0790
13383TIP3    H161564   5.520   5.432   0.957 -0.7437 -1.3007 -0.1448
13383TIP3    H261565   5.535   5.423   1.107  0.7850  0.9023 -0.1445
13384TIP3   OH261566   4.391   6.153   0.861  0.0628  0.0052 -0.6121
13384TIP3    H161567   4.346   6.155   0.946  1.4283  1.3664  0.0972
13384TIP3    H261568   4.368   6.068   0.824 -0.7733 -0.4937  1.0119
13385TIP3   OH261569   7.129   6.507   0.669 -0.3382 -0.2415  0.3823
13385TIP3    H161570   7.107   6.598   0.648  0.4027 -0.4164 -1.2067
13385TIP3    H261571   7.063   6.455   0.625  0.2071 -0.5332 -0.1039
13386TIP3   OH261572   6.694   4.855  15.504 -0.5870  0.2627  0.8306
13386TIP3    H161573   6.786   4.830  15.501 -0.6759  0.1082 -1.4609
13386TIP3    H261574   6.653   4.789  15.559  0.7322  0.5806  2.2257
13387TIP3   OH261575   1.573   4.167   0.351  0.3823 -0.1065  0.5284
13387TIP3    H161576   1.497   4.222   0.374  0.9392  0.0698  2.0170
13387TIP3    H261577   1.647   4.212   0.392  1.3055 -0.2673 -0.9427
13388TIP3   OH261578   5.532   3.995  15.624  0.2703  0.3816  0.0625
13388TIP3    H161579   5.450   4.039  15.648 -0.3533 -1.6262  1.7730
13388TIP3    H261580   5.585   4.000  15.704  2.0579  2.1315 -1.1888
13389TIP3   OH261581   5.265   4.356   3.948  0.6639 -0.1234 -0.0176
13389TIP3    H161582   5.205   4.392   4.014  2.8328 -0.1544  2.0741
13389TIP3    H261583   5.311   4.433   3.913 -0.7987 -0.0617 -1.8732
13390TIP3   OH261584   2.537   5.438   1.122 -0.1083 -0.1770 -0.3011
13390TIP3    H161585   2.486   5.455   1.202 -0.0058 -0.9755 -0.0627
13390TIP3    H261586   2.620   5.483   1.137  0.0914 -0.7132  0.2511
13391TIP3   OH261587   6.917   6.395   0.552 -0.3530  0.2564  0.2454
13391TIP3    H161588   6.844   6.410   0.612 -0.2925  2.2327 -0.1483
13391TIP3    H261589   6.883   6.423   0.466  0.3120 -0.4009 -0.2376
13392TIP3   OH261590   7.092   1.291   3.959 -0.4918  0.5211  0.1160
13392TIP3    H161591   7.163   1.229   3.946 -1.4900  0.0084 -3.4521
13392TIP3    H261592   7.131   1.377   3.943 -0.2686  0.3923 -0.0251
13393TIP3   OH261593   1.941   1.276   4.173  0.3257  0.8127 -0.9278
13393TIP3    H161594   1.944   1.195   4.122 -0.4951 -0.3353  0.7676
13393TIP3    H261595   1.870   1.327   4.135 -0.5361 -0.2051 -0.7065
13394TIP3   OH261596   1.654   6.313   4.588  0.4235  0.2350  0.8187
13394TIP3    H161597   1.588   6.323   4.519  0.3234  4.4254  1.3987
13394TIP3    H261598   1.626   6.235   4.635 -1.3847 -0.8272 -1.8481
13395TIP3   OH261599   4.030   1.120   3.780  0.2388  0.7156  0.5897
13395TIP3    H161600   4.075   1.190   3.732 -0.2735 -0.1668 -1.2386
13395TIP3    H261601   3.952   1.101   3.727  0.5110 -1.4067  0.9046
13396TIP3   OH261602   2.031   0.643   1.848 -0.1542 -0.3533 -0.4134
13396TIP3    H161603   1.983   0.616   1.926 -2.4221  1.6583 -1.0524
13396TIP3    H261604   2.115   0.674   1.882 -0.5169 -0.9321  1.0647
13397TIP3   OH261605   6.362   1.333   1.817 -0.0059  0.0730  0.4828
13397TIP3    H161606   6.402   1.341   1.731 -0.0462 -0.2108  0.4372
13397TIP3    H261607   6.398   1.406   1.867 -1.4088  1.3697 -0.3384
13398TIP3   OH261608   6.043   0.733   0.579  0.3217  0.4018  0.1971
13398TIP3    H161609   6.121   0.788   0.569 -0.4799  1.7036  0.9009
13398TIP3    H261610   6.017   0.745   0.670 -0.6318 -0.1051 -0.0041
13399TIP3   OH261611   0.106   1.723   3.420  0.1813 -0.2550  0.2627
13399TIP3    H161612   0.109   1.644   3.365  0.0584 -0.5348  0.6508
13399TIP3    H261613   0.013   1.733   3.441 -0.2400  1.7313 -2.2651
13400TIP3   OH261614   1.057   0.777   3.160  0.3786 -1.0706  0.4592
13400TIP3    H161615   1.147   0.754   3.135  0.1088 -0.2723 -1.3246
13400TIP3    H261616   1.027   0.835   3.090 -0.1835  1.8819  3.0756
13401TIP3   OH261617   2.450   0.692   2.503  0.0306  0.1021  0.4971
13401TIP3    H161618   2.543   0.689   2.525  0.1276  0.6908  0.1539
13401TIP3    H261619   2.406   0.655   2.580  0.7227 -2.9985 -0.5129
13402TIP3   OH261620   2.906   0.018   2.106  0.1246  0.2809 -0.4025
13402TIP3    H161621   2.826   0.045   2.152 -0.4162 -1.6758 -0.1463
13402TIP3    H261622   2.954  -0.035   2.170  0.9570  0.2757 -1.0137
13403TIP3   OH261623   0.423   6.249   1.285  0.4771 -0.7026 -0.5174
13403TIP3    H161624   0.356   6.203   1.234 -2.7861  1.7699  1.4314
13403TIP3    H261625   0.415   6.341   1.258  0.1621  0.2951  2.8105
13404TIP3   OH261626   3.857   6.802   4.091  0.1926 -0.3973  0.2689
13404TIP3    H161627   3.890   6.881   4.133  0.9219 -0.9724  0.8126
13404TIP3    H261628   3.779   6.779   4.141 -0.4161  0.3613 -0.3273
13405TIP3   OH261629   5.629   1.039   1.748 -0.1213 -0.2884  0.2568
13405TIP3    H161630   5.583   1.123   1.749  0.0398 -0.2088  1.0580
13405TIP3    H261631   5.571   0.981   1.699  0.2860  0.5851 -1.2736
13406TIP3   OH261632   1.187   2.831   0.119  0.3095  0.2424 -0.0057
13406TIP3    H161633   1.261   2.889   0.132  0.8317 -0.0478 -1.6150
13406TIP3    H261634   1.224   2.751   0.082 -0.7024 -0.1951 -0.1077
13407TIP3   OH261635   0.765   0.165   3.944 -0.3938 -0.0586 -0.7005
13407TIP3    H161636   0.685   0.217   3.951  0.3267  1.0802 -0.8861
13407TIP3    H261637   0.801   0.165   4.032 -1.7288 -2.4248 -0.1108
13408TIP3   OH261638   6.971   1.043   3.603  0.2174 -0.1422  0.4453
13408TIP3    H161639   6.983   1.136   3.582 -1.4413  0.3238  1.4485
13408TIP3    H261640   6.877   1.035   3.620  0.3961 -1.9588  0.6480
13409TIP3   OH261641   6.408   3.875   0.013  0.1982 -0.2841 -0.0287
13409TIP3    H161642   6.466   3.873   0.089  0.1730  0.4556  0.0167
13409TIP3    H261643   6.336   3.931   0.039  0.0780 -0.2043 -0.5197
13410TIP3   OH261644   1.669   1.547   0.994 -0.2998 -0.8230  0.1725
13410TIP3    H161645   1.629   1.628   1.028 -0.0683 -0.3811 -0.6086
13410TIP3    H261646   1.710   1.507   1.071  0.2834  0.2139  0.4038
13411TIP3   OH261647   1.509   1.081   1.906  0.0648  0.4857 -0.1119
13411TIP3    H161648   1.602   1.056   1.912  0.6603  2.4617 -0.6571
13411TIP3    H261649   1.495   1.138   1.981 -1.0632 -0.7528  0.6528
13412TIP3   OH261650   0.711   7.283   4.489 -0.8348 -0.4589  0.8952
13412TIP3    H161651   0.723   7.265   4.395  1.2591  1.1747  0.8097
13412TIP3    H261652   0.634   7.232   4.513 -1.3007 -1.0631 -1.6783
13413TIP3   OH261653   0.876   2.123   5.022  0.0351  0.2466  0.5963
13413TIP3    H161654   0.870   2.032   4.993  0.9760  0.5370 -0.5024
13413TIP3    H261655   0.925   2.119   5.104  1.0144 -0.1264 -0.0022
13414TIP3   OH261656   6.733   2.200   3.198 -1.0289 -0.0645 -0.0090
13414TIP3    H161657   6.776   2.285   3.208 -0.4087 -0.0354 -2.6428
13414TIP3    H261658   6.640   2.220   3.190 -0.8892  0.3784 -0.5330
13415TIP3   OH261659   2.455   1.839   3.091 -0.5888  0.4645  0.1485
13415TIP3    H161660   2.495   1.888   3.163  2.7490 -0.4935 -0.9309
13415TIP3    H261661   2.362   1.861   3.095  0.0070  2.7746  2.8700
13416TIP3   OH261662   2.138   1.068   2.723 -0.2982 -0.2261 -0.6772
13416TIP3    H161663   2.074   1.092   2.656 -0.8655  0.9021  0.2445
13416TIP3    H261664   2.178   0.987   2.691 -1.1201 -0.1196 -1.9872
13417TIP3   OH261665   1.918   6.736   3.817 -0.1628 -0.4843  0.0894
13417TIP3    H161666   1.858   6.695   3.755  0.0623 -1.5460  0.5607
13417TIP3    H261667   1.883   6.713   3.903 -0.3967  0.8656  0.3594
13418TIP3   OH261668   0.281   2.006   1.495  0.1690 -0.1678 -0.0814
13418TIP3    H161669   0.213   1.948   1.528 -0.3501 -0.1136 -1.0379
13418TIP3    H261670   0.361   1.953   1.494 -0.3131 -0.8801 -0.9990
13419TIP3   OH261671   1.018   6.867   1.870 -0.3676 -0.0103 -0.2661
13419TIP3    H161672   0.975   6.782   1.877 -0.3497 -0.1266 -1.4853
13419TIP3    H261673   0.951   6.926   1.838 -0.3040  0.3835  0.3087
13420TIP3   OH261674   1.146   0.805   4.217 -0.1612  0.1148  0.2864
13420TIP3    H161675   1.128   0.716   4.247  0.4047 -0.6892 -1.7006
13420TIP3    H261676   1.131   0.859   4.295  1.1713 -1.8883  2.0159
13421TIP3   OH261677   1.250   7.167   3.931  0.1152 -0.0127  0.2091
13421TIP3    H161678   1.250   7.255   3.891 -0.1914 -0.0625  0.0987
13421TIP3    H261679   1.309   7.175   4.006  0.6511  0.0998 -0.2161
13422TIP3   OH261680   3.597   0.335   2.994  0.2167 -0.5336  0.0176
13422TIP3    H161681   3.648   0.416   2.986  0.9062 -1.0270 -0.6560
13422TIP3    H261682   3.508   0.365   3.014  0.1728  0.4564 -1.5649
13423TIP3   OH261683   1.874   6.047   2.485 -0.1578  0.4321 -0.2040
13423TIP3    H161684   1.822   6.011   2.414  0.2099 -0.4824 -0.0206
13423TIP3    H261685   1.836   6.010   2.564 -0.5464  1.4210  0.0768
13424TIP3   OH261686   1.620   3.063   0.397 -0.3355  0.2953 -0.1207
13424TIP3    H161687   1.570   3.043   0.476  1.4084  0.4974  1.0653
13424TIP3    H261688   1.562   3.037   0.325 -1.1424 -1.8104  1.2379
13425TIP3   OH261689   7.028   0.707   2.424 -0.0722  0.9398  0.0402
13425TIP3    H161690   7.001   0.793   2.390  0.8445  0.7659 -1.1740
13425TIP3    H261691   7.075   0.667   2.352  0.3949 -0.1777  0.9517
13426TIP3   OH261692   6.868   1.001   5.107 -0.1401 -0.1147  0.1263
13426TIP3    H161693   6.904   0.965   5.188 -0.8696 -1.8957 -0.3302
13426TIP3    H261694   6.922   0.964   5.038 -1.4449 -1.0718 -0.4077
13427TIP3   OH261695   6.532   6.892   2.032 -0.3789  0.1343 -0.1542
13427TIP3    H161696   6.459   6.844   2.071  0.7817 -0.3907  1.3790
13427TIP3    H261697   6.528   6.978   2.073  0.4884 -0.2252  0.6732
13428TIP3   OH261698   0.433   0.775   0.046  0.8134  0.2679 -0.6988
13428TIP3    H161699   0.498   0.738  -0.015  0.2717 -1.7881 -0.0519
13428TIP3    H261700   0.361   0.713   0.045  0.6113  0.4278  1.7437
13429TIP3   OH261701   0.134   0.671   3.468  0.4880  0.1149  0.4183
13429TIP3    H161702   0.068   0.625   3.520  1.4399  0.3145  1.8337
13429TIP3    H261703   0.179   0.602   3.420 -1.0095  0.0119 -0.9047
13430TIP3   OH261704   0.708   0.419   3.715  0.1513  0.5454  0.2479
13430TIP3    H161705   0.708   0.471   3.795  0.2172 -0.8224  1.1588
13430TIP3    H261706   0.625   0.371   3.717  0.0588  0.6656 -0.6092
13431TIP3   OH261707   1.150   0.734   0.396  0.4566 -0.1637 -0.8209
13431TIP3    H161708   1.064   0.752   0.433  0.5600  0.1866 -0.7586
13431TIP3    H261709   1.206   0.805   0.427  0.7821 -0.4190 -0.8187
13432TIP3   OH261710   7.290   7.272   1.966 -0.0060  0.2211 -0.6210
13432TIP3    H161711   7.340   7.194   1.990 -1.2529 -0.8435 -1.3891
13432TIP3    H261712   7.208   7.264   2.016  0.3973  1.7458  0.3313
13433TIP3   OH261713   6.458   1.086   1.835  0.7160  0.0250  0.4352
13433TIP3    H161714   6.545   1.068   1.872 -0.3301 -1.9196  2.0785
13433TIP3    H261715   6.438   1.174   1.864  1.7239  0.1166  0.8895
13434TIP3   OH261716   1.257   0.585   5.370 -0.2817  0.0713 -0.1649
13434TIP3    H161717   1.231   0.676   5.382  0.4405  0.2928 -0.2240
13434TIP3    H261718   1.311   0.585   5.291 -0.3524 -0.4186 -0.2166
13435TIP3   OH261719   1.540   5.143   1.494  0.1369 -0.2935  0.2683
13435TIP3    H161720   1.460   5.094   1.515  0.0010  0.4611  1.5794
13435TIP3    H261721   1.571   5.175   1.579  1.7953 -0.5219 -0.2403
13436TIP3   OH261722   2.227   0.374   2.406  0.3968 -0.1645  0.4825
13436TIP3    H161723   2.315   0.360   2.441  0.5134  1.1016  0.7294
13436TIP3    H261724   2.169   0.358   2.480  0.3494 -1.8748  0.0928
13437TIP3   OH261725   2.655   2.145  15.963 -0.0531 -0.1194  0.7231
13437TIP3    H161726   2.615   2.098  16.036  1.0176 -1.1061  0.7047
13437TIP3    H261727   2.748   2.122  15.968 -0.0634 -0.7630 -1.3440
13438TIP3   OH261728   7.244   1.520   3.059 -0.5572 -0.6489  0.5089
13438TIP3    H161729   7.327   1.569   3.068 -1.5784  1.4970 -1.4046
13438TIP3    H261730   7.271   1.433   3.030  1.0999 -0.2934  0.9015
13439TIP3   OH261731   0.757   1.761   4.078 -0.0336 -0.2088 -0.0626
13439TIP3    H161732   0.841   1.755   4.124  0.0074 -0.8875 -0.2220
13439TIP3    H261733   0.692   1.756   4.148  0.0592  0.8431  0.1130
13440TIP3   OH261734   3.149   0.748   3.195 -0.4127  0.0946 -0.1941
13440TIP3    H161735   3.145   0.774   3.288  1.5609 -5.4105  1.6176
13440TIP3    H261736   3.064   0.707   3.179  0.5833 -2.1676  0.2670
13441TIP3   OH261737   0.267   1.309   3.190  0.1433 -0.7797 -0.3315
13441TIP3    H161738   0.220   1.239   3.144 -0.3067  0.2716 -1.5034
13441TIP3    H261739   0.217   1.388   3.172  1.8922  0.2356 -0.9362
13442TIP3   OH261740   2.367   0.650   4.744  0.0313 -0.4962 -0.0157
13442TIP3    H161741   2.460   0.628   4.735  0.0804  0.1434 -1.1840
13442TIP3    H261742   2.364   0.744   4.728 -0.7169 -0.3648  0.8573
13443TIP3   OH261743   0.705   0.851   0.465  1.0288 -0.3781  0.4602
13443TIP3    H161744   0.632   0.817   0.414  0.4975  1.5110 -0.0825
13443TIP3    H261745   0.760   0.896   0.401  0.5318  1.7163  1.4713
13444TIP3   OH261746   6.377   2.257   1.258 -0.6723  1.1744 -0.3317
13444TIP3    H161747   6.420   2.309   1.190  0.3137  0.8666  0.0413
13444TIP3    H261748   6.395   2.306   1.339 -0.5527  0.7514 -0.1041
13445TIP3   OH261749   1.755   3.962   1.860  0.0289 -0.2493  0.1592
13445TIP3    H161750   1.793   3.875   1.867 -0.7317 -0.4113  3.1307
13445TIP3    H261751   1.763   3.999   1.948 -2.7451  1.3566 -0.1899
13446TIP3   OH261752   1.128   5.973   1.858 -0.0827 -0.1888  0.0759
13446TIP3    H161753   1.186   5.964   1.782  0.9030 -1.1009  0.9329
13446TIP3    H261754   1.107   5.883   1.883 -0.6426  0.1131  0.7095
13447TIP3   OH261755   1.356   6.225   0.720  0.2828 -0.7876 -0.6498
13447TIP3    H161756   1.319   6.272   0.795 -0.0379  0.4358 -1.5611
13447TIP3    H261757   1.448   6.252   0.718  0.1576 -0.3783 -1.0239
13448TIP3   OH261758   6.523   6.850   1.204 -0.6263 -0.0171 -0.0513
13448TIP3    H161759   6.519   6.885   1.115 -0.2170  1.4339  0.4703
13448TIP3    H261760   6.508   6.756   1.195 -0.9396  0.1772 -1.6077
13449TIP3   OH261761   6.717   0.304   3.526 -0.1164 -0.4324  0.7994
13449TIP3    H161762   6.726   0.266   3.614  0.8445  0.2267  1.0022
13449TIP3    H261763   6.691   0.395   3.542  1.3928  0.0849  0.4718
13450TIP3   OH261764   0.935   0.329   3.097 -0.2090 -0.3842 -0.6716
13450TIP3    H161765   0.876   0.301   3.167 -2.3149 -1.2534 -2.7337
13450TIP3    H261766   0.923   0.424   3.094 -2.2729 -0.6408 -1.6793
13451TIP3   OH261767   1.662   1.346   2.634 -0.1069 -0.4869 -0.5893
13451TIP3    H161768   1.567   1.361   2.631 -0.0535 -0.2670 -1.2125
13451TIP3    H261769   1.685   1.320   2.545  0.2539 -1.5861 -0.1844
13452TIP3   OH261770   2.052   6.059   5.253  0.1172 -0.5672 -0.7481
13452TIP3    H161771   2.011   6.054   5.339  0.1123 -0.0484 -0.7169
13452TIP3    H261772   1.986   6.100   5.197  0.6078  0.3235 -0.6851
13453TIP3   OH261773   6.735   6.675   1.986  0.2268  0.0804  0.0329
13453TIP3    H161774   6.824   6.693   1.955 -0.3021 -0.9548 -2.1965
13453TIP3    H261775   6.688   6.758   1.977  1.0173  0.6919  1.4465
13454TIP3   OH261776   1.822   0.221   4.599  0.2758 -0.6107  0.6252
13454TIP3    H161777   1.841   0.213   4.692  1.1024 -0.2004  0.4943
13454TIP3    H261778   1.887   0.283   4.566 -0.4283 -0.2410 -0.0968
13455TIP3   OH261779   1.718   0.419   2.741  0.2035 -0.3858 -0.6775
13455TIP3    H161780   1.770   0.357   2.792  2.3673  2.4525  0.6782
13455TIP3    H261781   1.631   0.416   2.782  1.0033 -0.6080  1.0480
13456TIP3   OH261782   1.301   0.093   3.787 -0.1055 -0.1764  0.2810
13456TIP3    H161783   1.324   0.098   3.694  1.5586 -1.2207  0.6225
13456TIP3    H261784   1.208   0.116   3.790 -0.0359  0.4010 -1.5766
13457TIP3   OH261785   7.024   0.357   2.527  0.2952  0.2813 -0.0486
13457TIP3    H161786   6.992   0.268   2.539 -0.8224  0.6914  0.1012
13457TIP3    H261787   7.119   0.348   2.522  0.1348 -1.0077 -0.9230
13458TIP3   OH261788   0.653   6.115   1.836 -0.0852  0.1934  0.0554
13458TIP3    H161789   0.707   6.194   1.833 -0.2681  0.3274  0.2463
13458TIP3    H261790   0.654   6.089   1.928  0.1673 -0.1628 -0.0438
13459TIP3   OH261791   2.311   4.955   2.226 -0.0460  0.0860  0.4556
13459TIP3    H161792   2.256   4.972   2.149 -0.1267 -0.4443  0.3883
13459TIP3    H261793   2.399   4.978   2.199 -0.0212 -0.4181  0.0852
13460TIP3   OH261794   6.350   1.336   2.137 -0.3206  0.3200  0.1835
13460TIP3    H161795   6.336   1.426   2.107  0.6946  0.0875 -1.0476
13460TIP3    H261796   6.272   1.289   2.109 -0.1215  0.4761 -0.6631
13461TIP3   OH261797   1.330   7.140   2.599 -0.1978  0.3536 -0.3389
13461TIP3    H161798   1.380   7.067   2.637  2.3297  1.6240 -1.1569
13461TIP3    H261799   1.285   7.179   2.674 -0.4561 -1.1788  0.3260
13462TIP3   OH261800   1.159   1.312   4.097 -0.7501  0.2389 -0.3758
13462TIP3    H161801   1.185   1.366   4.022  1.5664 -0.8283 -0.3926
13462TIP3    H261802   1.139   1.375   4.166  3.5345  1.1750  0.1277
13463TIP3   OH261803   6.473   2.326   1.784  0.1953  0.3541 -0.2030
13463TIP3    H161804   6.488   2.420   1.774  0.5633  0.1410 -1.7467
13463TIP3    H261805   6.546   2.296   1.838 -0.0745  0.9982  0.5286
13464TIP3   OH261806   0.231   5.575   1.543  0.4009 -0.6978 -0.4280
13464TIP3    H161807   0.233   5.508   1.475 -2.2993  0.1240 -1.3987
13464TIP3    H261808   0.258   5.655   1.498  0.5834 -0.5310 -0.0259
13465TIP3   OH261809   0.548   1.087   3.071 -0.0844 -0.4160  0.5783
13465TIP3    H161810   0.537   1.049   2.984 -0.6287 -0.2660  0.5838
13465TIP3    H261811   0.619   1.150   3.061 -0.4268 -0.1034  0.1557
13466TIP3   OH261812   1.957   5.774   5.194  0.4156 -0.1513  0.3680
13466TIP3    H161813   1.994   5.766   5.106 -1.3621  0.3347 -0.4495
13466TIP3    H261814   1.992   5.857   5.227 -0.2335  0.4845 -0.5364
13467TIP3   OH261815   7.023   1.256   2.815 -0.0503 -0.1618  0.2749
13467TIP3    H161816   7.088   1.322   2.793  0.8996 -0.0697  3.1437
13467TIP3    H261817   7.068   1.172   2.802 -0.4855 -0.1957 -1.0575
13468TIP3   OH261818   1.597   1.727   2.957 -0.4317  0.3274 -0.1203
13468TIP3    H161819   1.623   1.733   2.865 -0.8815  2.0218 -0.1435
13468TIP3    H261820   1.670   1.682   2.999  0.4644  0.8993 -1.0312
13469TIP3   OH261821   0.899   2.024   2.175  0.5492  0.6846 -0.9739
13469TIP3    H161822   0.822   2.028   2.232  0.9823  3.0492 -0.5205
13469TIP3    H261823   0.961   1.969   2.222 -0.5666 -0.5888 -0.9766
13470TIP3   OH261824   2.142   1.270   3.802  0.3230  0.2671 -0.1016
13470TIP3    H161825   2.165   1.302   3.890  0.9199 -1.1023  0.2584
13470TIP3    H261826   2.091   1.190   3.818 -0.7047  0.7365 -0.9895
13471TIP3   OH261827   2.664   6.996   3.874  0.1156 -0.1969  0.3741
13471TIP3    H161828   2.655   6.907   3.907 -4.0786 -0.0135  0.0850
13471TIP3    H261829   2.653   6.987   3.779 -1.2324  0.6965  0.4326
13472TIP3   OH261830   0.776   6.347   3.448  0.1564 -0.3150 -0.1108
13472TIP3    H161831   0.845   6.303   3.399  0.4032  0.5930 -0.5840
13472TIP3    H261832   0.698   6.338   3.394  0.1168 -0.5011 -0.0250
13473TIP3   OH261833   1.057   0.972   0.580 -0.0965 -0.4901 -0.3965
13473TIP3    H161834   1.043   0.919   0.658 -0.2618 -1.5526 -1.1370
13473TIP3    H261835   1.144   0.946   0.549 -0.7969 -1.4323 -1.6046
13474TIP3   OH261836   7.139   0.216   1.799  0.4385 -0.0683  0.3637
13474TIP3    H161837   7.132   0.122   1.813  0.5984 -0.2546 -0.7882
13474TIP3    H261838   7.194   0.247   1.871 -0.8558 -0.6171  1.6263
13475TIP3   OH261839   1.764   0.377   2.192 -0.5399 -0.3966 -0.0588
13475TIP3    H161840   1.670   0.362   2.206 -1.0863  3.3653  0.7746
13475TIP3    H261841   1.775   0.471   2.203  3.1778 -0.6174 -1.2983
13476TIP3   OH261842   7.019   0.632   1.844 -0.1812 -0.1998  0.1816
13476TIP3    H161843   7.067   0.576   1.782 -1.3843  1.2554 -2.1417
13476TIP3    H261844   6.984   0.572   1.909  1.6816 -1.7014 -0.1592
13477TIP3   OH261845   1.291   5.413   1.664 -0.1263  0.0755  0.1021
13477TIP3    H161846   1.332   5.498   1.647 -1.3028  0.7419  0.5258
13477TIP3    H261847   1.363   5.356   1.689  0.4476  1.5054  1.8855
13478TIP3   OH261848   0.999   3.760   1.441  0.3902  0.9063 -0.2992
13478TIP3    H161849   1.071   3.780   1.381 -0.2959  1.1865 -1.0272
13478TIP3    H261850   0.930   3.823   1.419 -0.4715 -0.0185 -0.2910
13479TIP3   OH261851   6.854   2.035   1.826 -0.0299  0.1250 -0.1861
13479TIP3    H161852   6.850   1.981   1.747  0.6175  0.4178 -0.4239
13479TIP3    H261853   6.898   1.981   1.891  0.2430  0.2162 -0.2966
13480TIP3   OH261854   0.335   6.499   5.182 -0.0970 -0.3786 -0.4441
13480TIP3    H161855   0.250   6.483   5.224  0.9254 -0.6362  1.5685
13480TIP3    H261856   0.314   6.507   5.089 -2.4756  0.5800  0.1244
13481TIP3   OH261857   0.696   7.075   2.643 -0.0405  0.4605 -0.3914
13481TIP3    H161858   0.724   6.986   2.620  0.3335  0.1694  1.1094
13481TIP3    H261859   0.689   7.120   2.559  1.6294 -0.4461 -1.0426
13482TIP3   OH261860   0.299   3.378   3.583  0.2140 -0.2334  0.0382
13482TIP3    H161861   0.216   3.371   3.534 -1.3992  1.1221  2.4588
13482TIP3    H261862   0.323   3.470   3.576  1.2659 -0.5186 -0.2081
13483TIP3   OH261863   6.847   0.777   2.022 -0.3294  0.2368 -0.0832
13483TIP3    H161864   6.829   0.702   2.079 -1.6234 -0.1511 -0.9763
13483TIP3    H261865   6.914   0.746   1.962  0.1185  0.2394  0.4120
13484TIP3   OH261866   1.491   6.542   5.478 -0.0596  0.0014 -0.1066
13484TIP3    H161867   1.527   6.623   5.516  0.7449 -0.0113 -0.8474
13484TIP3    H261868   1.566   6.484   5.468 -0.2864 -0.0549 -1.5856
13485TIP3   OH261869   3.106   0.741   1.946 -0.8046  0.4275  0.5625
13485TIP3    H161870   3.129   0.827   1.909 -0.1261  0.0246  0.0361
13485TIP3    H261871   3.059   0.697   1.875 -1.5206  0.5137  0.9768
13486TIP3   OH261872   1.893   2.156  15.607 -0.0797 -0.1608 -0.3329
13486TIP3    H161873   1.929   2.139  15.519 -3.1064 -0.1792 -1.6387
13486TIP3    H261874   1.866   2.069  15.638  3.1747 -0.5176  1.6936
13487TIP3   OH261875   1.138   0.252   1.761 -0.0656 -0.2701  0.4745
13487TIP3    H161876   1.231   0.263   1.740 -0.3212  0.0245 -0.5085
13487TIP3    H261877   1.108   0.183   1.702 -1.1899  1.7213 -1.3769
13488TIP3   OH261878   5.939   0.659   0.854 -0.2884 -0.3213  0.0007
13488TIP3    H161879   5.919   0.739   0.903 -0.0330  0.0296 -0.4529
13488TIP3    H261880   5.855   0.633   0.816 -0.5425 -0.7560  0.8517
13489TIP3   OH261881   7.105   1.166   1.342  0.1264  0.5549 -0.5837
13489TIP3    H161882   7.018   1.150   1.304 -0.3075  1.0621  0.1880
13489TIP3    H261883   7.087   1.205   1.428  1.0786 -1.5434  0.6042
13490TIP3   OH261884   0.785   1.033   3.201 -0.0818 -0.1042  0.2414
13490TIP3    H161885   0.747   0.947   3.219 -0.1612 -0.0703  0.2345
13490TIP3    H261886   0.869   1.032   3.246 -0.6987  0.3342  1.4346
13491TIP3   OH261887   2.319   6.340   4.668  0.0569 -0.4766 -0.3414
13491TIP3    H161888   2.280   6.304   4.589 -0.8816 -2.2628  0.8818
13491TIP3    H261889   2.291   6.431   4.671 -0.8738 -0.7274 -1.4460
13492TIP3   OH261890   7.263   0.877   1.557  0.3030  0.5502 -0.2167
13492TIP3    H161891   7.280   0.924   1.476  0.0130  0.2360 -0.4619
13492TIP3    H261892   7.270   0.944   1.626 -0.0974  0.9469 -0.5580
13493TIP3   OH261893   0.684   0.273   0.351 -0.3020 -0.0254  0.6084
13493TIP3    H161894   0.762   0.217   0.352 -1.3833 -1.5677 -0.1113
13493TIP3    H261895   0.715   0.358   0.383  1.7685 -0.4981 -0.0890
13494TIP3   OH261896   2.094   6.689   3.295 -0.1420  0.0003  0.4741
13494TIP3    H161897   2.069   6.754   3.229 -2.6529 -0.3383  1.0130
13494TIP3    H261898   2.056   6.723   3.377  1.8981 -0.1910  1.5249
13495TIP3   OH261899   2.154   2.174   1.851 -0.2818 -0.0414  0.2472
13495TIP3    H161900   2.105   2.106   1.897 -2.5223 -0.1403 -2.1584
13495TIP3    H261901   2.088   2.217   1.795  1.3384  3.2120  0.7075
13496TIP3   OH261902   7.165   1.048   4.895 -0.1155  0.8774  0.4011
13496TIP3    H161903   7.169   1.035   4.800  0.8075  0.2465  0.5160
13496TIP3    H261904   7.080   1.089   4.911 -1.0594 -0.6755 -0.5059
13497TIP3   OH261905   0.668   3.051   0.012  0.1357  0.2892 -0.3738
13497TIP3    H161906   0.684   2.970  -0.035  0.3043  0.1877 -0.1458
13497TIP3    H261907   0.687   3.029   0.104  1.1343  0.8539 -0.4461
13498TIP3   OH261908   2.212   1.379   4.087  0.5130 -0.7511 -0.1662
13498TIP3    H161909   2.222   1.461   4.134 -0.1048 -0.2867 -0.8394
13498TIP3    H261910   2.126   1.347   4.112 -0.2281 -0.0270 -1.6904
13499TIP3   OH261911   6.902   2.612   1.635 -0.6802 -0.0897 -0.3503
13499TIP3    H161912   6.873   2.544   1.574 -0.6508  0.3347 -0.8458
13499TIP3    H261913   6.995   2.591   1.651 -0.9691 -0.8313  0.4071
13500TIP3   OH261914   2.108   2.831   1.834 -0.2957 -0.4329  0.4290
13500TIP3    H161915   2.014   2.833   1.854  0.0345  1.7033  1.9833
13500TIP3    H261916   2.143   2.906   1.881  2.1826 -1.1241 -0.2775
13501TIP3   OH261917   0.684   4.961   2.227  0.6772 -0.0002 -0.0989
13501TIP3    H161918   0.742   4.916   2.166  0.7500  1.1622 -0.8831
13501TIP3    H261919   0.600   4.916   2.218  1.0542 -0.7261 -0.0310
13502TIP3   OH261920   1.266   4.770   4.320  0.3187  0.2349  0.2961
13502TIP3    H161921   1.206   4.729   4.257  0.9748  1.8006 -1.3870
13502TIP3    H261922   1.220   4.848   4.351  1.5382  1.5964 -1.2091
13503TIP3   OH261923   3.388   0.831   3.546 -0.1785 -0.4735 -0.4698
13503TIP3    H161924   3.397   0.854   3.638  0.7787  0.2065 -0.7203
13503TIP3    H261925   3.372   0.737   3.546 -0.0449 -0.4989  0.3782
13504TIP3   OH261926   1.457   1.308   1.236  0.3074 -0.2763 -0.2472
13504TIP3    H161927   1.462   1.365   1.159 -1.1572  0.5175  0.2161
13504TIP3    H261928   1.411   1.230   1.205 -0.4482  0.1221 -0.1452
13505TIP3   OH261929   0.321   1.095   0.795  0.0964  0.4176  0.4394
13505TIP3    H161930   0.278   1.092   0.880 -0.9264  0.4310 -0.0672
13505TIP3    H261931   0.406   1.054   0.809 -0.5831 -0.7692  1.1678
13506TIP3   OH261932   2.707   0.775   5.299 -0.3601  0.1080 -0.4114
13506TIP3    H161933   2.673   0.798   5.213 -0.6855 -0.8072 -0.5291
13506TIP3    H261934   2.630   0.754   5.351 -0.2300  1.3789  0.3379
13507TIP3   OH261935   1.556   5.438   2.333  0.0228 -0.0101  0.6731
13507TIP3    H161936   1.470   5.397   2.340 -0.3540  0.8069  0.9769
13507TIP3    H261937   1.586   5.416   2.245 -0.2120 -0.8429  0.8015
13508TIP3   OH261938   1.800   1.017  15.274 -0.3545  0.1919 -0.5348
13508TIP3    H161939   1.736   0.990  15.339 -0.7319  1.1439 -0.5149
13508TIP3    H261940   1.804   1.112  15.281  0.8290  0.1663 -0.7540
13509TIP3   OH261941   5.292   5.581   1.409 -0.1078  0.1020 -0.8871
13509TIP3    H161942   5.249   5.511   1.360 -0.0986 -0.2742 -0.3450
13509TIP3    H261943   5.224   5.648   1.419 -0.0676  0.2463 -1.5481
13510TIP3   OH261944   4.073   0.449   4.004  0.0349  0.4402 -0.0860
13510TIP3    H161945   3.981   0.442   3.980 -0.1145  0.2531  0.5458
13510TIP3    H261946   4.119   0.452   3.920 -0.4793 -0.2631 -0.3943
13511TIP3   OH261947   3.180   1.152   3.314  0.2108 -0.3014 -0.2551
13511TIP3    H161948   3.094   1.188   3.292 -0.1643 -0.2179  1.2677
13511TIP3    H261949   3.160   1.077   3.370  1.1023 -0.9725 -0.8315
13512TIP3   OH261950   0.721   7.272  15.980  0.2195  0.4053  0.2048
13512TIP3    H161951   0.674   7.259  16.062  1.2562 -1.7990  0.4966
13512TIP3    H261952   0.700   7.194  15.928  1.0330  0.8965 -0.8825
13513TIP3   OH261953   5.973   0.982   2.138 -0.2731 -0.6543  0.2281
13513TIP3    H161954   5.930   0.967   2.053  1.1876 -2.7128 -0.1864
13513TIP3    H261955   5.991   0.894   2.171  1.2460  0.1582  1.6079
13514TIP3   OH261956   1.083   3.895   2.098  0.0863  0.3510  0.4184
13514TIP3    H161957   1.028   3.912   2.022  0.5537  0.6932  0.1572
13514TIP3    H261958   1.141   3.971   2.103  1.7649 -0.8699 -0.3795
13515TIP3   OH261959   0.946   6.950   0.242 -0.1640 -0.0533 -0.4623
13515TIP3    H161960   0.964   7.038   0.276 -0.6242 -0.9969  2.3775
13515TIP3    H261961   0.868   6.961   0.188 -1.0963  1.0549  1.0563
13516TIP3   OH261962   0.080   1.936   2.527  0.4468 -0.5186  0.1531
13516TIP3    H161963   0.020   2.006   2.552 -1.4480 -2.0615  0.1116
13516TIP3    H261964   0.067   1.924   2.433  0.8104 -0.8672  0.1414
13517TIP3   OH261965   0.643   2.058   2.277  0.4111 -0.2451  0.1096
13517TIP3    H161966   0.614   2.016   2.358 -0.3936  0.5976  0.2561
13517TIP3    H261967   0.604   2.145   2.279 -0.1575 -0.4564 -1.5144
13518TIP3   OH261968   7.298   1.229   4.527  0.1984  0.0665 -0.4167
13518TIP3    H161969   7.381   1.197   4.561  0.0588  0.7865  0.6469
13518TIP3    H261970   7.290   1.317   4.564 -0.1782  0.6935 -1.9875
13519TIP3   OH261971   1.921   4.096   0.822  0.6454 -0.5307 -0.8414
13519TIP3    H161972   1.839   4.146   0.820  0.3003 -1.0295  0.3780
13519TIP3    H261973   1.935   4.077   0.915  2.7955  0.5949 -0.9129
13520TIP3   OH261974   1.913   7.273   4.565  0.1785 -0.3538 -0.2648
13520TIP3    H161975   1.871   7.356   4.584 -1.6079 -1.4044  0.4858
13520TIP3    H261976   1.954   7.286   4.479  0.3665  1.4403  0.0773
13521TIP3   OH261977   3.274   1.974   2.542  0.5405  0.3909  0.5802
13521TIP3    H161978   3.342   2.040   2.529  1.1170  0.0959  2.0994
13521TIP3    H261979   3.193   2.018   2.517  1.0153  1.4347  0.8688
13522TIP3   OH261980   6.751   0.429   3.951 -0.1151  0.1546  0.0578
13522TIP3    H161981   6.722   0.364   4.015 -0.4161 -4.1895 -4.1942
13522TIP3    H261982   6.674   0.484   3.935 -0.6069  0.0263  1.9114
13523TIP3   OH261983   1.336   0.332   1.248 -0.0558 -0.1701 -0.1900
13523TIP3    H161984   1.291   0.254   1.214 -0.4292  0.2967 -0.7613
13523TIP3    H261985   1.286   0.406   1.213 -0.0481  0.3255  0.8282
13524TIP3   OH261986   2.087   5.374   2.871 -0.1068 -0.6162 -0.1603
13524TIP3    H161987   2.052   5.286   2.854  1.9039 -1.2973 -0.9129
13524TIP3    H261988   2.128   5.399   2.788 -2.5609  1.9650 -0.6624
13525TIP3   OH261989   1.078   4.408   1.250 -0.3079  0.0073  0.0580
13525TIP3    H161990   1.122   4.325   1.232 -2.6322 -1.2308 -0.1092
13525TIP3    H261991   1.044   4.436   1.165 -1.5555 -0.0931  0.5058
13526TIP3   OH261992   3.066   3.100   2.051 -0.1594  0.5492  0.1883
13526TIP3    H161993   2.992   3.139   2.099  0.3283  1.9909 -0.2112
13526TIP3    H261994   3.143   3.147   2.084  0.4478 -0.1609 -0.2252
13527TIP3   OH261995   1.628   0.779   3.962  0.0409 -0.2200 -0.3819
13527TIP3    H161996   1.540   0.793   3.999 -0.0097 -0.4451 -0.4205
13527TIP3    H261997   1.652   0.865   3.928 -0.3043 -0.2334 -0.6687
13528TIP3   OH261998   4.814   6.682   3.124 -0.4395 -0.0314 -0.2495
13528TIP3    H161999   4.831   6.745   3.053  0.3685 -1.1169 -1.0314
13528TIP3    H262000   4.900   6.649   3.148 -0.8012 -0.3424  0.6336
13529TIP3   OH262001   2.979   6.270   4.440 -0.6150 -0.0945  0.4719
13529TIP3    H162002   3.007   6.245   4.528  1.1775  1.7911  0.4724
13529TIP3    H262003   2.998   6.364   4.434  0.0587 -0.3577 -2.1966
13530TIP3   OH262004   1.728   0.643   2.249 -0.4656 -0.0800  0.0492
13530TIP3    H162005   1.682   0.704   2.191  0.3900  0.4558 -0.0913
13530TIP3    H262006   1.682   0.648   2.332 -2.4210 -1.7196 -0.8963
13531TIP3   OH262007   2.659   0.653   0.462 -0.2404 -0.2293  0.1566
13531TIP3    H162008   2.708   0.632   0.382  1.0194  0.9447  0.5843
13531TIP3    H262009   2.674   0.578   0.519 -0.4381 -0.6955 -0.4048
13532TIP3   OH262010   1.450   0.389   2.582 -1.1823  0.1109 -0.2524
13532TIP3    H162011   1.380   0.326   2.565 -0.0056 -1.3838  0.3491
13532TIP3    H262012   1.437   0.415   2.673 -0.4689 -0.8095  0.1215
13533TIP3   OH262013   0.039   6.039   0.989  0.3357  0.6714 -0.3529
13533TIP3    H162014   0.037   6.051   0.894 -0.2229  0.6223 -0.3496
13533TIP3    H262015   0.041   5.945   1.002 -3.0419  0.5321 -0.2897
13534TIP3   OH262016   1.252   0.179   2.394  0.6651 -0.3847  0.4061
13534TIP3    H162017   1.268   0.237   2.319  0.2048 -0.5573  0.1760
13534TIP3    H262018   1.273   0.091   2.362 -2.3943 -0.8546 -0.4393
13535TIP3   OH262019   7.026   1.247   1.600  0.1639 -0.3354 -0.1161
13535TIP3    H162020   6.941   1.217   1.632 -0.2019  0.6082 -0.2089
13535TIP3    H262021   7.040   1.331   1.642  0.9963 -0.4293 -0.1995
13536TIP3   OH262022   2.160   0.483   4.817  0.0985  0.0094  0.2174
13536TIP3    H162023   2.197   0.551   4.760  0.2160 -0.1716  0.0787
13536TIP3    H262024   2.232   0.422   4.833  0.1254  0.1702  0.7341
13537TIP3   OH262025   1.739   0.905   3.542  0.4083 -0.1444 -0.6107
13537TIP3    H162026   1.821   0.856   3.533 -0.1368 -1.1332 -0.1900
13537TIP3    H262027   1.731   0.953   3.459  1.0881 -0.5366 -0.9058
13538TIP3   OH262028   7.094   0.880   3.293 -0.4768 -0.1981  0.3743
13538TIP3    H162029   7.148   0.901   3.369 -0.3492 -1.7993  0.7518
13538TIP3    H262030   7.099   0.957   3.237 -0.0599  0.7503  1.7006
13539TIP3   OH262031   1.626   6.354   1.521  0.9296 -0.3024 -0.8002
13539TIP3    H162032   1.661   6.440   1.546 -0.0116  0.0988 -0.8362
13539TIP3    H262033   1.539   6.352   1.561  0.9071 -1.1974 -0.8992
13540TIP3   OH262034   0.622   1.474   4.697  0.5404  0.2394  0.0532
13540TIP3    H162035   0.615   1.387   4.657 -0.5410  0.3395  0.0073
13540TIP3    H262036   0.712   1.501   4.680  0.8812 -0.8658  0.0496
13541TIP3   OH262037   0.408   5.213   3.396 -0.5710  0.2474 -0.0372
13541TIP3    H162038   0.490   5.189   3.354  0.4983  0.4968  1.8760
13541TIP3    H262039   0.385   5.298   3.358 -0.2220 -0.0612 -0.9454
13542TIP3   OH262040   1.150   7.164   5.313 -0.0117 -0.0354 -0.1411
13542TIP3    H162041   1.133   7.191   5.403 -0.5449  2.1763 -0.8749
13542TIP3    H262042   1.241   7.134   5.314 -0.1895 -0.5556  1.2509
13543TIP3   OH262043   1.555   0.166   4.439  0.8902  0.6103 -0.3243
13543TIP3    H162044   1.491   0.094   4.443  1.5562  0.0274 -0.0628
13543TIP3    H262045   1.616   0.148   4.511  1.1167  1.3941 -0.3105
13544TIP3   OH262046   1.112   7.101   2.431  0.0233 -0.3111 -0.2653
13544TIP3    H162047   1.142   7.029   2.376  0.5187  0.9162 -1.6277
13544TIP3    H262048   1.192   7.139   2.467 -0.1645  0.2607 -0.4457
13545TIP3   OH262049   7.005   0.037   2.954  0.5156 -0.0939  0.4355
13545TIP3    H162050   7.047  -0.015   3.023  1.7493 -2.4872 -2.0212
13545TIP3    H262051   7.077   0.088   2.916  0.2313 -0.2985 -0.3759
13546TIP3   OH262052   2.362   1.945   0.884 -0.1976 -0.2772 -0.2254
13546TIP3    H162053   2.274   1.919   0.911 -0.0202 -1.4405 -0.7149
13546TIP3    H262054   2.419   1.911   0.952 -0.3647  3.5177  1.9684
13547TIP3   OH262055   7.145   6.545   1.266  0.3714 -0.0750  0.0370
13547TIP3    H162056   7.229   6.550   1.220  0.6603  0.7229  0.6243
13547TIP3    H262057   7.079   6.544   1.197  0.8145  0.7108 -0.4002
13548TIP3   OH262058   6.090   2.160   2.683  0.7458 -0.1031 -0.0561
13548TIP3    H162059   6.123   2.190   2.767  0.5810 -0.0538 -0.0090
13548TIP3    H262060   6.168   2.154   2.627  1.0592 -1.4110  0.4833
13549TIP3   OH262061   0.529   4.465   2.826  0.2105  0.8210 -0.3436
13549TIP3    H162062   0.521   4.470   2.730  0.4197  0.2226 -0.3909
13549TIP3    H262063   0.528   4.557   2.854 -3.1053  0.9639 -0.6593
13550TIP3   OH262064   4.510   0.099   3.104 -0.4687  0.3650  0.1991
13550TIP3    H162065   4.505   0.072   3.012  0.9094  1.4468 -0.2069
13550TIP3    H262066   4.578   0.043   3.142  0.1318  1.0538  0.1464
13551TIP3   OH262067   0.482   1.002   1.984  0.4685  0.2177 -0.7495
13551TIP3    H162068   0.512   0.914   2.007 -1.0220 -1.1865 -3.8539
13551TIP3    H262069   0.398   1.012   2.029  1.4847  0.8261  1.0800
13552TIP3   OH262070   1.338   1.459   4.899  0.1758 -0.0253  0.8420
13552TIP3    H162071   1.337   1.389   4.964  4.8081 -0.1366  0.9709
13552TIP3    H262072   1.350   1.539   4.949  1.4535  0.1321  0.3081
13553TIP3   OH262073   1.248   0.833   1.245  0.4270 -0.3194  0.0759
13553TIP3    H162074   1.267   0.768   1.312 -1.8804 -0.7871  0.3054
13553TIP3    H262075   1.233   0.781   1.166  0.0408  0.0373 -0.0831
13554TIP3   OH262076   0.731   6.715   2.823  0.4705 -0.0415 -0.5329
13554TIP3    H162077   0.679   6.770   2.882 -0.0275 -1.9429  0.8541
13554TIP3    H262078   0.676   6.703   2.746  0.1612  0.5338 -0.4050
13555TIP3   OH262079   0.919   5.669   2.399  0.6196 -0.1519  0.3341
13555TIP3    H162080   0.830   5.642   2.378  1.1112 -1.3778 -0.2252
13555TIP3    H262081   0.934   5.747   2.344 -0.3589  0.5281  1.0089
13556TIP3   OH262082   1.660   7.046   4.685  0.5745  0.5489 -0.2126
13556TIP3    H162083   1.690   7.119   4.739  0.5597 -2.1100  3.5595
13556TIP3    H262084   1.570   7.070   4.661  0.3834  1.5316  1.4343
13557TIP3   OH262085   0.893   3.158   0.941  0.2391 -0.4657  0.5161
13557TIP3    H162086   0.812   3.162   0.891  0.6184 -0.0745 -0.0714
13557TIP3    H262087   0.908   3.249   0.969  0.6954 -0.4677  0.2741
13558TIP3   OH262088   3.975   7.258   3.111  0.2168 -0.6509  0.1374
13558TIP3    H162089   4.016   7.344   3.111  1.8276 -1.3864  0.1199
13558TIP3    H262090   3.915   7.258   3.185  0.9671  0.1400  0.7456
13559TIP3   OH262091   4.128   0.657   4.215 -0.2394  0.1997 -0.4900
13559TIP3    H162092   4.114   0.618   4.128 -0.9446  0.4335 -0.4884
13559TIP3    H262093   4.078   0.601   4.274  0.2682  0.0233 -0.2324
13560TIP3   OH262094   2.341   3.348  15.850  0.5159  0.0078 -0.4344
13560TIP3    H162095   2.394   3.269  15.841 -0.1849 -0.5642  0.4075
13560TIP3    H262096   2.262   3.330  15.798 -0.8053 -0.8819  1.8431
13561TIP3   OH262097   0.608   0.746   4.140 -0.2152 -0.3530  0.1245
13561TIP3    H162098   0.679   0.808   4.121 -0.5603  0.4444  1.3791
13561TIP3    H262099   0.535   0.801   4.170 -1.1248 -1.2262 -0.4538
13562TIP3   OH262100   0.173   6.533   4.940  0.0520 -0.3111  0.4794
13562TIP3    H162101   0.113   6.577   5.001 -0.0114  0.2883 -0.0226
13562TIP3    H262102   0.124   6.527   4.858  1.2480  1.5465 -0.3836
13563TIP3   OH262103   2.549   0.809   2.172  0.2650  0.0279 -0.5995
13563TIP3    H162104   2.537   0.861   2.251  1.6355 -0.4073 -0.0930
13563TIP3    H262105   2.523   0.720   2.198  2.4726 -0.4956 -0.0864
13564TIP3   OH262106   3.210   1.837   2.301  0.0776  0.6259  0.7197
13564TIP3    H162107   3.250   1.894   2.367  3.3386  0.0153 -0.6241
13564TIP3    H262108   3.173   1.896   2.236 -0.5750  1.2039  1.6039
13565TIP3   OH262109   2.154   6.002   4.569  0.0400 -0.0806 -0.2344
13565TIP3    H162110   2.111   6.064   4.628 -0.5654 -0.4758 -0.2528
13565TIP3    H262111   2.081   5.958   4.524  0.4523 -1.2097  0.1918
13566TIP3   OH262112   3.017   6.999   1.447  0.1806  0.2439 -0.2880
13566TIP3    H162113   2.968   7.001   1.365 -0.0945 -0.4482 -0.1371
13566TIP3    H262114   2.959   7.040   1.511 -0.0886 -0.3301 -0.1687
13567TIP3   OH262115   0.571   6.407   4.678 -0.4526 -0.1786  0.6862
13567TIP3    H162116   0.512   6.466   4.725  0.0584  0.9972 -0.1126
13567TIP3    H262117   0.611   6.462   4.611 -1.1935 -1.8547 -1.1612
13568TIP3   OH262118   2.336   5.232   4.099  0.1254 -0.2193  0.2399
13568TIP3    H162119   2.425   5.200   4.087  0.1040  0.2111 -1.3083
13568TIP3    H262120   2.339   5.321   4.063 -0.9841 -0.3073 -0.0825
13569TIP3   OH262121   3.753   0.750   1.811 -0.1482  0.1579 -0.3131
13569TIP3    H162122   3.722   0.733   1.722  0.2350 -3.9512  0.2591
13569TIP3    H262123   3.688   0.708   1.867  1.9198 -1.1428  1.1749
13570TIP3   OH262124   2.482   5.461   2.782  0.1147 -0.4361 -0.6236
13570TIP3    H162125   2.561   5.448   2.835 -0.7198  0.1394  0.7881
13570TIP3    H262126   2.438   5.535   2.823 -1.3388 -0.9786 -1.1824
13571TIP3   OH262127   0.905   1.111   2.330 -0.2027  0.3447  0.1598
13571TIP3    H162128   0.904   1.181   2.264 -0.7407  0.7426  0.5764
13571TIP3    H262129   0.878   1.032   2.283 -0.3256  0.5757 -0.1568
13572TIP3   OH262130   0.626   1.569   2.340  0.0682  0.1454  0.2744
13572TIP3    H162131   0.536   1.572   2.375 -0.1391 -1.0062 -0.1229
13572TIP3    H262132   0.645   1.475   2.333  0.7406  0.3804 -1.0827
13573TIP3   OH262133   1.401   0.495   1.999  0.0122  0.2638  0.5208
13573TIP3    H162134   1.436   0.583   2.015 -1.7528  0.7436  2.0144
13573TIP3    H262135   1.478   0.440   1.985  1.3207  1.4645  2.6684
13574TIP3   OH262136   4.505   6.295   1.159  0.2748  0.1230  0.1826
13574TIP3    H162137   4.551   6.262   1.236 -1.9258  0.8958  1.8825
13574TIP3    H262138   4.467   6.218   1.118 -2.2369  0.1269  2.3906
13575TIP3   OH262139   3.547   2.226   0.765 -0.0590  0.0995  0.2095
13575TIP3    H162140   3.556   2.199   0.674 -0.1929  0.3772  0.1142
13575TIP3    H262141   3.588   2.156   0.815  1.8158  0.8903 -0.1627
13576TIP3   OH262142   0.474   7.062   3.158 -0.1291  0.1973  0.1416
13576TIP3    H162143   0.396   7.012   3.183 -0.2408  0.6132  0.6391
13576TIP3    H262144   0.527   7.001   3.107 -0.8949 -0.0193 -0.4005
13577TIP3   OH262145   6.826   1.844   3.900 -0.1655 -0.1468 -0.4679
13577TIP3    H162146   6.860   1.898   3.971 -1.3347  1.6641 -1.2723
13577TIP3    H262147   6.743   1.810   3.934  0.0386 -0.5826 -0.3890
13578TIP3   OH262148   7.224   1.437   0.176  0.4308  0.9556 -0.5622
13578TIP3    H162149   7.181   1.522   0.167  0.2617  0.7377 -1.8343
13578TIP3    H262150   7.203   1.390   0.095  0.8467 -0.1525 -0.0426
13579TIP3   OH262151   7.273   2.608   3.746  0.1229 -0.1229 -0.3853
13579TIP3    H162152   7.248   2.687   3.699 -0.1334 -0.2107 -0.3951
13579TIP3    H262153   7.330   2.561   3.684  2.0246  1.0676  0.4146
13580TIP3   OH262154   1.005   1.287   2.518  0.3225  0.5993 -0.2197
13580TIP3    H162155   0.930   1.310   2.571 -0.2263  0.6653 -1.0133
13580TIP3    H262156   0.973   1.219   2.458  0.4613  1.7377 -1.6149
13581TIP3   OH262157   2.568   0.567   2.834  0.5068 -0.3580  0.1084
13581TIP3    H162158   2.600   0.515   2.760 -1.0711 -3.3888  1.5016
13581TIP3    H262159   2.584   0.513   2.910 -1.6893  0.9759  1.5698
13582TIP3   OH262160   1.349   0.745   2.396  0.3281 -0.1391  0.2449
13582TIP3    H162161   1.316   0.828   2.431  0.7108 -0.6822  1.8938
13582TIP3    H262162   1.270   0.695   2.374  0.0885  0.8068 -1.1784
13583TIP3   OH262163   6.902   2.175   5.017  0.3060 -0.0160  0.6387
13583TIP3    H162164   6.977   2.152   5.072  0.2717 -1.2669  0.1752
13583TIP3    H262165   6.898   2.105   4.952  0.3385  1.4281 -0.9540
13584TIP3   OH262166   0.587   5.635   0.930  0.0185 -0.4668 -0.1275
13584TIP3    H162167   0.672   5.595   0.949  0.3227  0.2282 -0.0129
13584TIP3    H262168   0.604   5.694   0.857 -0.7388 -1.6405 -1.2732
13585TIP3   OH262169   5.882   1.347   4.040 -0.0895  0.5726  0.6013
13585TIP3    H162170   5.911   1.411   3.974 -0.6019  0.2157  0.0239
13585TIP3    H262171   5.878   1.264   3.993 -0.4252  0.3067  1.0934
13586TIP3   OH262172   1.040   1.885   0.443 -0.1917  0.1991 -0.0166
13586TIP3    H162173   1.046   1.793   0.415  1.3754  0.4328 -0.4634
13586TIP3    H262174   1.113   1.928   0.399 -1.2955  1.8009 -0.3050
13587TIP3   OH262175   1.190   2.334   2.472 -0.4485 -0.2018 -0.2830
13587TIP3    H162176   1.149   2.257   2.511  1.4461 -0.7491  0.6510
13587TIP3    H262177   1.142   2.408   2.509 -1.8741 -0.8817 -0.7207
13588TIP3   OH262178   1.278   0.582   0.764  0.4080 -0.7032  0.0969
13588TIP3    H162179   1.273   0.528   0.685  1.4270 -0.9173  0.1609
13588TIP3    H262180   1.372   0.593   0.779  0.2308 -0.9048  1.4400
13589TIP3   OH262181   3.349   7.282   2.661  0.4810 -0.4666 -0.3962
13589TIP3    H162182   3.339   7.354   2.723 -2.1155 -1.7829  0.8080
13589TIP3    H262183   3.334   7.321   2.575  0.8637  0.7621  0.0868
13590TIP3   OH262184   0.213   2.888   0.057  0.2282 -0.1211 -0.3818
13590TIP3    H162185   0.230   2.835  -0.020  0.1375  0.7234 -0.9985
13590TIP3    H262186   0.242   2.835   0.130  0.9349 -0.6683 -1.0530
13591TIP3   OH262187   4.495   7.033   2.003  0.4324  0.0696 -0.1332
13591TIP3    H162188   4.454   7.096   1.943 -0.0348  0.0706  0.1837
13591TIP3    H262189   4.542   6.973   1.946 -0.0503  0.0423 -0.5065
13592TIP3   OH262190   2.579   0.121   3.236 -0.4763  0.7054 -0.3833
13592TIP3    H162191   2.640   0.131   3.309  0.5957  0.0862 -1.1923
13592TIP3    H262192   2.493   0.120   3.278  0.1435  0.1208  0.9042
13593TIP3   OH262193   1.674   5.895   1.695 -0.2451  0.2381  0.4651
13593TIP3    H162194   1.670   5.969   1.755 -1.4668  1.2802 -0.8763
13593TIP3    H262195   1.599   5.840   1.720 -0.9904  0.8746 -0.3603
13594TIP3   OH262196   5.435   6.174   1.693 -0.2539  0.4758 -0.2392
13594TIP3    H162197   5.433   6.263   1.658  0.9271  0.1207 -1.2302
13594TIP3    H262198   5.447   6.186   1.788 -0.8230  1.3775 -0.2716
13595TIP3   OH262199   0.065   1.612   0.912 -0.4125  0.0251 -0.2449
13595TIP3    H162200   0.157   1.634   0.900  0.1489 -1.9334  0.3136
13595TIP3    H262201   0.042   1.649   0.998 -0.2342  0.7378 -0.5011
13596TIP3   OH262202   0.867   6.528   3.812  0.7834  0.5116 -0.1897
13596TIP3    H162203   0.915   6.610   3.815  0.4436  0.7569 -1.2697
13596TIP3    H262204   0.822   6.523   3.896  2.5753  0.3366  0.7876
13597TIP3   OH262205   4.159   2.303   1.983 -0.6796  0.1959 -0.1673
13597TIP3    H162206   4.086   2.361   1.959  1.5921  2.4287 -1.9256
13597TIP3    H262207   4.126   2.215   1.965 -2.4888  1.2521 -2.2726
13598TIP3   OH262208   5.784   1.200   2.798  0.6586 -0.0529  0.0534
13598TIP3    H162209   5.713   1.137   2.812  1.3745 -0.8320  0.2303
13598TIP3    H262210   5.856   1.166   2.852  2.0752 -0.7804 -2.2609
13599TIP3   OH262211   6.211   6.407   3.935 -0.5049  0.1261  0.2166
13599TIP3    H162212   6.214   6.406   4.031 -0.4388  0.3786  0.2169
13599TIP3    H262213   6.124   6.374   3.914 -0.3075 -0.4944  0.3486
13600TIP3   OH262214   0.627   6.706   2.343 -0.0686 -0.1701  0.6204
13600TIP3    H162215   0.540   6.683   2.310 -0.2923 -0.6606  1.5361
13600TIP3    H262216   0.614   6.719   2.437  0.8181 -0.0780  0.7322
13601TIP3   OH262217   0.385   1.814   1.167 -0.4881  0.2122  0.5792
13601TIP3    H162218   0.390   1.806   1.262  1.4937 -2.3111  0.3113
13601TIP3    H262219   0.410   1.727   1.134  1.0706  1.6757 -2.2923
13602TIP3   OH262220   6.878   1.639   2.247 -0.2376  0.2130 -0.1733
13602TIP3    H162221   6.892   1.732   2.265  0.0655  0.3914 -1.2828
13602TIP3    H262222   6.895   1.596   2.330  1.6506  0.9562 -0.1350
13603TIP3   OH262223   0.740   4.655   0.504 -0.1066 -0.5077 -0.3123
13603TIP3    H162224   0.825   4.698   0.506 -0.3112 -0.1303  1.2790
13603TIP3    H262225   0.712   4.660   0.413  0.6700  1.1238 -0.4710
13604TIP3   OH262226   0.300   6.059   3.360  0.3871  0.0340 -0.0181
13604TIP3    H162227   0.351   6.127   3.404  0.9229  0.7566 -1.6978
13604TIP3    H262228   0.234   6.032   3.424  2.1227 -0.0634  1.7584
13605TIP3   OH262229   5.646   1.497   0.381 -0.2586 -0.5502 -0.7642
13605TIP3    H162230   5.616   1.527   0.295  0.7282 -0.3457 -1.0409
13605TIP3    H262231   5.682   1.575   0.423 -0.2796 -0.7562 -0.3618
13606TIP3   OH262232   2.426   1.120   3.420 -0.4166  0.9971  0.4823
13606TIP3    H162233   2.495   1.183   3.398 -0.1541  1.7960  3.3757
13606TIP3    H262234   2.426   1.117   3.516 -2.4476 -1.1926  0.4594
13607TIP3   OH262235   1.808   0.010   4.838 -0.5537 -0.0698  0.5267
13607TIP3    H162236   1.900   0.034   4.839 -0.6692  0.4897 -1.1320
13607TIP3    H262237   1.761   0.090   4.861 -0.7628  0.4418 -1.6025
13608TIP3   OH262238   1.761   4.962   2.798 -0.0330  0.2355  0.0987
13608TIP3    H162239   1.684   4.986   2.849 -1.1694  0.3338 -1.6466
13608TIP3    H262240   1.730   4.954   2.708  1.9898  0.2661 -0.6383
13609TIP3   OH262241   5.943   1.144   2.345 -0.1611 -0.1044 -0.2059
13609TIP3    H162242   6.031   1.138   2.381  0.1869  0.1182 -1.0201
13609TIP3    H262243   5.942   1.081   2.273 -0.2528  0.8523 -1.0482
13610TIP3   OH262244   2.428   2.548   2.879 -0.2151 -0.0589 -0.2140
13610TIP3    H162245   2.362   2.607   2.843  0.5134  0.9682  0.1089
13610TIP3    H262246   2.511   2.581   2.846  0.1749 -1.1311 -0.3232
13611TIP3   OH262247   5.268   0.846   5.082 -0.7258 -0.3265  0.0419
13611TIP3    H162248   5.295   0.763   5.122 -0.3038 -1.2001 -1.9857
13611TIP3    H262249   5.279   0.832   4.988 -2.0214  1.5492 -0.4233
13612TIP3   OH262250   3.461   0.223   4.816  0.7377  0.2895  0.0941
13612TIP3    H162251   3.514   0.295   4.852 -0.2147  0.3378  1.4493
13612TIP3    H262252   3.371   0.247   4.837  0.3932 -1.2084  0.4166
13613TIP3   OH262253   3.249   1.730   3.583 -0.8329  0.6509  0.2062
13613TIP3    H162254   3.256   1.716   3.488  2.0092  1.5047  0.2336
13613TIP3    H262255   3.288   1.816   3.597 -0.3015  0.0945  2.2687
13614TIP3   OH262256   2.825   1.307   4.337 -0.3187 -0.1211 -0.1211
13614TIP3    H162257   2.901   1.256   4.312  0.9382  1.0413  1.2047
13614TIP3    H262258   2.755   1.277   4.279  0.7200 -2.3476 -0.2802
13615TIP3   OH262259   1.583   0.920   2.211 -0.0528 -0.0818  0.1559
13615TIP3    H162260   1.640   0.934   2.286 -0.7391 -2.9128  1.2458
13615TIP3    H262261   1.625   0.969   2.140 -0.2186  3.9735  2.6529
13616TIP3   OH262262   4.262   2.723   4.991  0.7614  0.0050  0.1101
13616TIP3    H162263   4.256   2.759   5.080  1.2280  0.6693 -0.1271
13616TIP3    H262264   4.191   2.659   4.987  1.3140 -0.7105  1.2816
13617TIP3   OH262265   4.188   5.875   4.702  0.6136  0.7004  0.1419
13617TIP3    H162266   4.112   5.883   4.644 -0.0636 -1.0601  0.7232
13617TIP3    H262267   4.261   5.853   4.643  0.4157  1.2156 -0.2965
13618TIP3   OH262268   4.430   1.958   3.412 -0.5302  0.8086 -0.8095
13618TIP3    H162269   4.355   1.920   3.367 -2.0904  1.8914  0.8197
13618TIP3    H262270   4.397   2.039   3.450  0.3739 -0.6041  3.2860
13619TIP3   OH262271   1.796   5.948   3.022  0.6757 -0.3376 -0.4085
13619TIP3    H162272   1.769   5.861   3.051 -0.3299  0.0198 -0.2551
13619TIP3    H262273   1.716   5.988   2.987  0.9083  0.8929  0.4307
13620TIP3   OH262274   4.497   7.143   2.251  0.5345 -0.0544  0.1581
13620TIP3    H162275   4.497   7.094   2.169  3.3005  0.6819 -0.3312
13620TIP3    H262276   4.444   7.220   2.233 -0.3043 -0.7425 -0.3805
13621TIP3   OH262277   3.014   0.057   3.873  0.4588 -0.4268  0.1942
13621TIP3    H162278   3.091   0.058   3.816  1.0352  1.3422  0.9665
13621TIP3    H262279   3.049   0.074   3.961 -0.8192  0.6514  0.5106
13622TIP3   OH262280   2.187   7.237   3.430 -0.5343 -0.1664  0.2408
13622TIP3    H162281   2.260   7.175   3.426 -0.7646 -0.4612  0.5349
13622TIP3    H262282   2.121   7.192   3.482 -0.3062  0.7359  1.3256
13623TIP3   OH262283   4.747   0.613   3.287  0.0542 -0.1783 -0.1273
13623TIP3    H162284   4.682   0.546   3.268 -0.9749  1.2781 -1.9610
13623TIP3    H262285   4.742   0.624   3.382 -1.7515 -0.7306 -0.1296
13624TIP3   OH262286   3.709   0.804   3.955  0.5965  0.6307 -0.3176
13624TIP3    H162287   3.645   0.760   4.011  0.1677 -2.1083 -2.8234
13624TIP3    H262288   3.665   0.885   3.929  0.1987  1.1864  2.0329
13625TIP3   OH262289   2.148   1.323   2.441  0.1077 -0.0160  0.0806
13625TIP3    H162290   2.179   1.313   2.531 -1.0824 -0.7992  0.4108
13625TIP3    H262291   2.154   1.417   2.425 -1.8605  0.4590  1.8045
13626TIP3   OH262292   2.134   0.535   3.701 -0.4704  0.6276  0.2958
13626TIP3    H162293   2.156   0.558   3.610 -0.4813  1.3728  0.4789
13626TIP3    H262294   2.143   0.440   3.704  0.9463  0.7352 -0.1068
13627TIP3   OH262295   4.564   6.841   3.711  0.0149  0.1494  0.6111
13627TIP3    H162296   4.559   6.779   3.639  1.5445  1.5126 -0.7209
13627TIP3    H262297   4.478   6.838   3.752 -0.9346 -0.5025 -1.3880
13628TIP3   OH262298   2.765   7.200   3.619  0.0720  0.0637  0.3618
13628TIP3    H162299   2.743   7.117   3.578  2.0093  0.3362 -1.3412
13628TIP3    H262300   2.683   7.232   3.656 -0.9951 -1.8767 -0.2960
13629TIP3   OH262301   6.479   2.249   3.942  0.7363  0.4653  0.3101
13629TIP3    H162302   6.543   2.194   3.897  2.4118  0.1146  3.0593
13629TIP3    H262303   6.477   2.215   4.031 -3.1461  0.5985  0.3639
13630TIP3   OH262304   2.429   0.588  15.701  0.0316 -0.2873  0.0281
13630TIP3    H162305   2.503   0.595  15.761  0.1116  0.0516 -0.1110
13630TIP3    H262306   2.352   0.603  15.756  0.0723 -0.5073  0.1459
13631TIP3   OH262307   2.551   2.787   4.024  0.5303  0.3678 -0.7253
13631TIP3    H162308   2.501   2.786   4.106  0.0698 -0.0769 -1.0092
13631TIP3    H262309   2.633   2.831   4.047  1.7824 -2.5885  0.7936
13632TIP3   OH262310   3.288   1.165   2.175 -0.6585  0.7998  0.0657
13632TIP3    H162311   3.208   1.149   2.225  0.0431 -2.2009  0.3135
13632TIP3    H262312   3.256   1.188   2.088 -1.8186  0.9461  0.5103
13633TIP3   OH262313   4.463   2.486   3.592 -0.0471  0.4680 -0.4722
13633TIP3    H162314   4.454   2.525   3.679  1.8497 -0.5627  0.2226
13633TIP3    H262315   4.485   2.559   3.535  0.3159  0.9062  0.2263
13634TIP3   OH262316   1.971   2.860   2.252 -0.0852  0.2753 -0.1654
13634TIP3    H162317   2.046   2.878   2.196 -0.3388  0.6535 -0.3875
13634TIP3    H262318   1.983   2.770   2.281  1.6087  1.0146  1.5701
13635TIP3   OH262319   2.619   1.338   3.417 -0.0998 -0.5475 -0.1030
13635TIP3    H162320   2.672   1.353   3.496  1.1238 -0.3858 -0.9466
13635TIP3    H262321   2.658   1.396   3.351 -0.9215 -0.9184 -0.9178
13636TIP3   OH262322   2.574   4.206   1.536  0.2877  0.1633 -0.4080
13636TIP3    H162323   2.553   4.298   1.555 -1.5304 -0.8182  2.6122
13636TIP3    H262324   2.665   4.196   1.565 -0.5522  0.2322  2.4371
13637TIP3   OH262325   4.479   6.413   2.839 -0.5455 -0.1751  0.3702
13637TIP3    H162326   4.413   6.423   2.770 -0.7398 -0.0509  0.5727
13637TIP3    H262327   4.561   6.439   2.797 -0.7227  0.2643  0.2918
13638TIP3   OH262328   2.628   2.096   5.566 -0.2647 -0.4504 -0.0069
13638TIP3    H162329   2.611   2.095   5.660 -0.1322 -0.0975  0.0223
13638TIP3    H262330   2.723   2.090   5.558 -0.0886  1.8944 -0.0432
13639TIP3   OH262331   2.340   2.796   3.218  0.3189  0.1286 -0.7791
13639TIP3    H162332   2.343   2.701   3.232 -1.5299 -0.3112 -2.9668
13639TIP3    H262333   2.426   2.818   3.183  1.3893 -0.4102  1.4272
13640TIP3   OH262334   3.197   1.785   5.410 -0.5730 -0.5307 -0.6597
13640TIP3    H162335   3.133   1.783   5.482 -0.7805  0.8059 -0.7865
13640TIP3    H262336   3.152   1.832   5.340 -0.7311 -2.6899 -2.0443
13641TIP3   OH262337   4.444   5.606   4.321  0.2393  0.2681 -0.6545
13641TIP3    H162338   4.463   5.678   4.261 -1.5286  1.0811 -0.2797
13641TIP3    H262339   4.489   5.531   4.282  1.1710  1.3194 -1.6579
13642TIP3   OH262340   3.583   0.282   2.722 -0.4630  0.1486 -0.3885
13642TIP3    H162341   3.608   0.289   2.814 -2.2274  0.1762  0.0943
13642TIP3    H262342   3.660   0.244   2.680  0.2654 -0.1136  1.1363
13643TIP3   OH262343   4.317   1.765   4.263  0.6166 -1.2574  0.4973
13643TIP3    H162344   4.307   1.748   4.170 -0.4991  0.0465  0.3698
13643TIP3    H262345   4.255   1.706   4.306 -1.3151  0.5494  0.2132
13644TIP3   OH262346   4.608   1.423   4.568 -0.1715  0.3478 -0.5502
13644TIP3    H162347   4.542   1.422   4.637 -1.2554 -0.8799 -1.5600
13644TIP3    H262348   4.561   1.392   4.490  1.4058  0.2235 -1.4771
13645TIP3   OH262349   3.661   1.180   2.406  0.2026 -0.0944 -0.5337
13645TIP3    H162350   3.637   1.250   2.467 -1.2602 -1.5949  0.6500
13645TIP3    H262351   3.755   1.192   2.392  0.2799  1.1578  0.8960
13646TIP3   OH262352   1.846   2.142   5.260  0.5263 -0.4556 -0.3089
13646TIP3    H162353   1.831   2.104   5.347 -1.6593  0.5241 -0.2131
13646TIP3    H262354   1.764   2.187   5.239  0.6860 -1.4008 -3.2594
13647TIP3   OH262355   3.198   1.335   3.560 -0.2639 -0.1719 -0.3464
13647TIP3    H162356   3.258   1.321   3.487  2.2513  0.8005  1.4593
13647TIP3    H262357   3.137   1.402   3.528  1.1825  0.6987 -1.3641
13648TIP3   OH262358   4.425   1.415   4.307  0.4934 -0.1626 -0.5149
13648TIP3    H162359   4.424   1.439   4.214  1.7299 -0.7782 -0.7089
13648TIP3    H262360   4.360   1.472   4.348 -1.1277 -0.9235 -2.0048
13649TIP3   OH262361   3.795   0.290   2.385  0.0378  0.1067  0.2493
13649TIP3    H162362   3.744   0.246   2.452  0.4707 -2.0490 -0.8130
13649TIP3    H262363   3.877   0.314   2.428  0.2080 -1.0394  0.5787
13650TIP3   OH262364   0.956   2.247   2.895 -0.3644  0.8920  0.4471
13650TIP3    H162365   1.022   2.178   2.896 -1.0050  0.2608 -0.4766
13650TIP3    H262366   0.938   2.263   2.803 -2.4316  0.1573  0.6836
13651TIP3   OH262367   3.238   0.195   2.788  0.4902  0.7303 -0.2055
13651TIP3    H162368   3.230   0.263   2.721 -1.1464  0.7614 -0.0011
13651TIP3    H262369   3.280   0.238   2.862  0.0535  1.3419 -0.3146
13652TIP3   OH262370   0.600   1.265   2.035  0.3837  0.1802  0.1862
13652TIP3    H162371   0.570   1.302   1.953  2.1805  0.4793 -0.3701
13652TIP3    H262372   0.571   1.174   2.033  0.7737  0.0753 -0.9679
13653TIP3   OH262373   4.501   1.407   2.551  0.8261 -0.5891 -0.1877
13653TIP3    H162374   4.507   1.431   2.643  1.7552  2.5410 -0.9935
13653TIP3    H262375   4.481   1.490   2.506 -0.5298 -2.2093 -2.7060
13654TIP3   OH262376   6.652   0.010   2.563  0.6665 -0.5058  0.2541
13654TIP3    H162377   6.577  -0.005   2.620  1.4148 -1.1316  1.0915
13654TIP3    H262378   6.697  -0.075   2.559  0.7730 -0.4091 -1.0646
13655TIP3   OH262379   1.313   0.797   3.023  0.4410 -0.0071 -0.1670
13655TIP3    H162380   1.406   0.780   3.005  1.2086  3.2747  0.3506
13655TIP3    H262381   1.284   0.851   2.950 -0.4281  0.9142  0.8533
13656TIP3   OH262382   5.036   0.310   2.694 -0.1717  0.7928  0.0989
13656TIP3    H162383   5.018   0.218   2.715 -0.6154  0.7228 -0.5891
13656TIP3    H262384   5.112   0.332   2.748  0.4115 -0.2008 -0.2941
13657TIP3   OH262385   4.071   2.042   5.127 -0.6943 -0.1202 -0.0319
13657TIP3    H162386   4.068   2.074   5.217  0.6016 -2.4618  0.8918
13657TIP3    H262387   3.998   1.980   5.122  0.2222 -1.2044 -0.0862
13658TIP3   OH262388   3.720   0.969   2.636 -0.0915  0.0853  0.1459
13658TIP3    H162389   3.687   1.058   2.630 -0.4669 -0.0754 -0.1596
13658TIP3    H262390   3.649   0.914   2.603  0.2143 -0.3114  0.1381
13659TIP3   OH262391   1.974   1.197   1.818 -0.3494  0.0663 -0.4942
13659TIP3    H162392   1.886   1.197   1.780 -0.7221  0.1085  0.3535
13659TIP3    H262393   2.027   1.248   1.757 -0.3727 -1.9397 -2.2557
13660TIP3   OH262394   4.880   0.935   0.546 -0.1483 -0.4281 -0.3881
13660TIP3    H162395   4.861   0.934   0.639  0.1717  0.8861 -0.3006
13660TIP3    H262396   4.797   0.958   0.505  0.0437  0.3899 -0.3290
13661TIP3   OH262397   4.337   2.765   3.213 -0.6455 -0.0593 -0.5550
13661TIP3    H162398   4.273   2.833   3.192 -1.7947 -1.1329 -0.5893
13661TIP3    H262399   4.323   2.697   3.148  0.1125 -0.5804 -0.1860
13662TIP3   OH262400   4.012   7.123   3.567  0.1881  0.1539  0.4557
13662TIP3    H162401   4.088   7.085   3.611  0.3830  0.4380  0.3624
13662TIP3    H262402   4.019   7.217   3.583 -0.1514  0.1792  0.4607
13663TIP3   OH262403   6.166   1.669   3.348  0.2053 -0.6608 -0.1269
13663TIP3    H162404   6.123   1.585   3.365 -2.1875  0.5460  0.1043
13663TIP3    H262405   6.218   1.686   3.426  0.0119 -1.5334  0.1964
13664TIP3   OH262406   2.964   6.294   3.121 -0.3047  0.2595 -0.5560
13664TIP3    H162407   2.871   6.297   3.145 -0.2621  0.8182 -0.4516
13664TIP3    H262408   2.993   6.385   3.124  1.2139 -0.2759  3.2093
13665TIP3   OH262409   3.554   7.227   4.447 -0.2215  0.2008 -0.5041
13665TIP3    H162410   3.501   7.234   4.526 -2.8393  1.1498 -2.2649
13665TIP3    H262411   3.547   7.135   4.421 -0.3047  0.1402 -0.2666
13666TIP3   OH262412   7.122   1.781   3.117  0.4108 -0.4203 -0.0353
13666TIP3    H162413   7.057   1.770   3.186 -0.4582 -1.5596 -1.0084
13666TIP3    H262414   7.172   1.699   3.119  1.5854  0.3048  0.4732
13667TIP3   OH262415   3.959   0.643   2.593 -0.0280  0.0022  0.8278
13667TIP3    H162416   3.988   0.553   2.583 -0.7729 -0.0779 -0.7349
13667TIP3    H262417   3.864   0.637   2.604  0.1571  0.4622  2.9310
13668TIP3   OH262418   4.190   1.874   3.329  0.5876  0.4114 -0.5352
13668TIP3    H162419   4.170   1.860   3.236  0.7841 -0.5526 -0.4318
13668TIP3    H262420   4.131   1.945   3.355 -0.1490  0.0426 -1.1554
13669TIP3   OH262421   4.388   1.446   3.042  0.2284  0.0505  0.7367
13669TIP3    H162422   4.426   1.478   3.125  2.0620 -0.2586  0.0535
13669TIP3    H262423   4.376   1.352   3.056  0.5351 -0.0012  0.6660
13670TIP3   OH262424   4.540   0.279   2.616  0.3602  0.4725 -0.1162
13670TIP3    H162425   4.621   0.328   2.601 -0.7291  2.1022 -0.8286
13670TIP3    H262426   4.513   0.304   2.705 -0.0223  0.9474 -0.3587
13671TIP3   OH262427   2.111   3.652   4.948  0.4395  0.1106 -0.1100
13671TIP3    H162428   2.022   3.677   4.974 -0.0224 -1.2818 -0.3264
13671TIP3    H262429   2.155   3.632   5.031  0.1418 -0.5189 -0.1023
13672TIP3   OH262430   3.519   1.352   4.429  0.0137 -0.0165  0.3046
13672TIP3    H162431   3.558   1.265   4.424 -0.6862 -0.6126  3.8371
13672TIP3    H262432   3.428   1.340   4.401  0.5787  0.1318 -1.6898
13673TIP3   OH262433   1.694   1.726  15.999  0.8068  0.2168 -0.0934
13673TIP3    H162434   1.746   1.679  16.063  1.0652  1.8516  0.9115
13673TIP3    H262435   1.734   1.812  15.993 -1.6273  1.4544  0.5735
13674TIP3   OH262436   1.591   1.095   3.397 -0.1016 -0.2281  0.0812
13674TIP3    H162437   1.515   1.040   3.375  0.8799 -1.3685 -0.5570
13674TIP3    H262438   1.612   1.140   3.315 -0.1105  0.0953  0.2592
13675TIP3   OH262439   3.179   0.522   0.069  0.3925 -0.0173  0.1148
13675TIP3    H162440   3.132   0.578   0.131  1.3446  0.3648  0.5017
13675TIP3    H262441   3.128   0.528  -0.012  0.3388  1.2049  0.2293
13676TIP3   OH262442   2.814   0.271   5.060  0.0332  0.1047  0.2096
13676TIP3    H162443   2.751   0.248   4.991 -3.4355 -1.7048  3.7081
13676TIP3    H262444   2.793   0.361   5.083 -0.0605  0.1033  0.1292
13677TIP3   OH262445   2.245   7.290   2.757 -0.2600  0.6862  0.2049
13677TIP3    H162446   2.168   7.328   2.715 -0.8784 -0.8511 -0.1023
13677TIP3    H262447   2.209   7.229   2.822  0.6140 -1.7557 -1.4856
13678TIP3   OH262448   3.763   5.779   2.940 -0.0403  0.3007 -0.0886
13678TIP3    H162449   3.778   5.689   2.969 -2.0884 -0.3649 -1.0170
13678TIP3    H262450   3.721   5.822   3.015  1.2454  0.5981  0.4757
13679TIP3   OH262451   3.058   1.234   2.317  0.4355  0.1415 -0.7476
13679TIP3    H162452   2.995   1.303   2.296 -1.3310 -1.3061 -0.2741
13679TIP3    H262453   3.120   1.276   2.377 -0.3811  1.4416 -0.7920
13680TIP3   OH262454   1.819   6.542   2.575  0.2847 -0.4116 -0.0827
13680TIP3    H162455   1.754   6.604   2.540  0.2572 -1.0346 -1.1669
13680TIP3    H262456   1.779   6.456   2.562  1.4918 -0.8206 -1.1175
13681TIP3   OH262457   2.779   2.422   1.918 -0.0420  0.0400 -0.3322
13681TIP3    H162458   2.694   2.426   1.961  1.1675  4.0380  1.9661
13681TIP3    H262459   2.831   2.361   1.970 -1.0067 -1.2795 -0.8929
13682TIP3   OH262460   5.138   1.013   3.542  0.1751  0.0642 -0.6203
13682TIP3    H162461   5.176   1.060   3.616 -0.3884  0.1316 -0.3728
13682TIP3    H262462   5.165   0.922   3.554 -1.2882 -0.2250  0.5664
13683TIP3   OH262463   3.064   0.428   0.998  0.2570  0.2112 -0.1309
13683TIP3    H162464   3.096   0.515   0.973  1.3307  0.1433  0.9630
13683TIP3    H262465   3.076   0.375   0.919 -0.0384  0.9497 -0.6814
13684TIP3   OH262466   1.454   1.848   4.289 -0.0909 -0.3574 -0.0545
13684TIP3    H162467   1.368   1.835   4.250 -0.1790 -2.3585  0.7573
13684TIP3    H262468   1.436   1.879   4.378  0.0596  0.5418 -0.3307
13685TIP3   OH262469   1.811   2.542   4.743  0.7734 -0.0681 -1.2008
13685TIP3    H162470   1.719   2.556   4.719  0.2298  0.7409  1.2261
13685TIP3    H262471   1.810   2.464   4.798  1.3191  0.8062  0.0726
13686TIP3   OH262472   2.919   1.354   4.609 -0.1974 -0.3584  0.6414
13686TIP3    H162473   2.963   1.439   4.605  1.6497 -1.3393 -0.3462
13686TIP3    H262474   2.889   1.339   4.519 -0.7778 -0.6159  0.8789
13687TIP3   OH262475   4.526   0.924   3.485 -0.0039  0.1086  0.5275
13687TIP3    H162476   4.555   0.835   3.467  0.4880  0.4819 -0.5902
13687TIP3    H262477   4.489   0.921   3.573 -1.2232 -1.4991 -0.0195
13688TIP3   OH262478   1.908   7.203   2.220 -0.3899  0.1111  0.0062
13688TIP3    H162479   1.955   7.274   2.265 -0.9011  1.5095 -1.5763
13688TIP3    H262480   1.817   7.212   2.248 -0.5696  0.4966 -0.6866
13689TIP3   OH262481   1.196   2.332   3.431  0.2885 -0.3952  0.0900
13689TIP3    H162482   1.254   2.397   3.470  2.1615 -1.1857 -1.2635
13689TIP3    H262483   1.164   2.373   3.350  1.1334 -0.9547 -0.5461
13690TIP3   OH262484   2.449   5.537   5.243 -0.0846 -0.1910 -0.1717
13690TIP3    H162485   2.390   5.541   5.168 -0.0307 -2.0641 -0.3336
13690TIP3    H262486   2.446   5.625   5.281 -0.8204  0.5059 -1.8182
13691TIP3   OH262487   3.785   1.700   0.716  0.2325  0.5990  0.0227
13691TIP3    H162488   3.718   1.666   0.775 -2.0707  1.2974 -2.1280
13691TIP3    H262489   3.856   1.636   0.721 -2.1822 -2.1917 -0.5740
13692TIP3   OH262490   3.038   2.085   5.625 -0.1520 -0.1578  0.2605
13692TIP3    H162491   2.978   2.085   5.551  0.5746 -1.0134 -0.3479
13692TIP3    H262492   3.071   2.175   5.629 -1.0076  0.1605  0.2279
13693TIP3   OH262493   1.833   2.377   1.405  0.1536  0.2378  0.3376
13693TIP3    H162494   1.902   2.316   1.430 -1.0428 -1.5140 -0.5581
13693TIP3    H262495   1.823   2.365   1.311  0.3108  2.2750  0.0269
13694TIP3   OH262496   4.544   1.375   3.263  0.6873 -0.0715 -0.0151
13694TIP3    H162497   4.602   1.352   3.336  1.2671 -0.5939 -0.6187
13694TIP3    H262498   4.556   1.302   3.201 -1.6900 -0.8990  0.4674
13695TIP3   OH262499   3.598   3.436   0.622 -0.2596  0.0035 -0.0033
13695TIP3    H162500   3.527   3.495   0.648 -1.3612 -1.2237 -0.1329
13695TIP3    H262501   3.620   3.462   0.533  0.2441  1.1240  0.4370
13696TIP3   OH262502   2.519   7.285   3.740 -0.1978  0.0840 -0.3865
13696TIP3    H162503   2.531   7.268   3.834 -1.6747 -2.4062 -0.6125
13696TIP3    H262504   2.488   7.376   3.736  1.5724  0.8045  1.3824
13697TIP3   OH262505   4.545   1.565   4.093  0.3136 -0.7517 -0.6655
13697TIP3    H162506   4.587   1.536   4.174 -1.9513  2.4329  1.7494
13697TIP3    H262507   4.616   1.606   4.043  1.1281  0.1526  1.1557
13698TIP3   OH262508   2.119   2.911   4.694 -0.4073 -0.2839  0.3568
13698TIP3    H162509   2.087   2.861   4.769  1.8355 -0.8434  0.9852
13698TIP3    H262510   2.101   2.855   4.618 -0.4141 -0.8298  0.7595
13699TIP3   OH262511   1.917   1.329  15.574  0.1475 -0.0299  0.1055
13699TIP3    H162512   1.826   1.298  15.573  0.3869 -0.7258 -1.9018
13699TIP3    H262513   1.959   1.276  15.641 -1.3160  1.5371  2.3517
13700TIP3   OH262514   1.650   7.256   2.304 -0.1343  0.0243 -0.7887
13700TIP3    H162515   1.634   7.297   2.389  2.2061 -1.7789  0.6081
13700TIP3    H262516   1.566   7.219   2.278 -0.5127 -0.7656  1.5171
13701TIP3   OH262517   3.192   1.356   3.118 -0.1327  0.0672 -0.0067
13701TIP3    H162518   3.130   1.330   3.049 -1.6252 -0.5904  1.5260
13701TIP3    H262519   3.233   1.274   3.144 -1.5848 -0.1367  1.7532
13702TIP3   OH262520   0.825   1.469   1.557  0.2788 -0.0528 -0.5716
13702TIP3    H162521   0.820   1.424   1.642  1.6185  0.3449 -0.2754
13702TIP3    H262522   0.736   1.464   1.522 -0.0359 -1.1829  0.3650
13703TIP3   OH262523   1.180   2.027   2.846  0.3121  0.0745 -0.2736
13703TIP3    H162524   1.158   1.937   2.870  1.3317  0.0267  0.5155
13703TIP3    H262525   1.271   2.038   2.873 -0.3573  1.9252  1.3517
13704TIP3   OH262526   3.794   1.006  14.336  0.0876  0.6419 -0.1827
13704TIP3    H162527   3.733   1.079  14.347  0.0699  0.4873  0.8136
13704TIP3    H262528   3.789   0.958  14.419  1.0791  0.2624 -0.3357
13705TIP3   OH262529   3.735   6.507   2.785 -0.0189  0.0201  0.2370
13705TIP3    H162530   3.671   6.497   2.855  1.3499  0.4189  1.5695
13705TIP3    H262531   3.820   6.499   2.828  0.9335  3.3067 -0.8375
13706TIP3   OH262532   1.012   3.569   4.435  0.2908 -0.2345  0.2931
13706TIP3    H162533   1.103   3.553   4.460  0.3203  0.1709  0.4593
13706TIP3    H262534   0.968   3.486   4.449  0.6969 -0.5089 -0.0536
13707TIP3   OH262535   3.685   2.490   2.062  0.1116 -0.5682  0.3548
13707TIP3    H162536   3.662   2.494   1.969  2.5135 -0.1542 -0.2581
13707TIP3    H262537   3.669   2.399   2.087 -0.5040 -0.6927 -0.4857
13708TIP3   OH262538   2.189   2.548   5.526  0.3357  0.0971  0.1243
13708TIP3    H162539   2.178   2.629   5.576 -2.1358 -0.4129  0.4808
13708TIP3    H262540   2.198   2.480   5.592 -0.5595 -0.2772 -0.1271
13709TIP3   OH262541   3.544   1.775   3.171  0.0344  0.0843  0.4825
13709TIP3    H162542   3.488   1.835   3.120 -0.1024 -0.6700 -0.2645
13709TIP3    H262543   3.576   1.829   3.243 -2.0845  0.4097  1.2386
13710TIP3   OH262544   1.844   0.941   2.871 -0.5800 -0.1460 -0.0188
13710TIP3    H162545   1.877   0.997   2.942  0.0615 -0.4923 -0.0438
13710TIP3    H262546   1.869   0.852   2.897  1.1933 -0.1086 -1.5137
13711TIP3   OH262547   3.069   2.838   2.248  0.1750  0.8195 -0.2900
13711TIP3    H162548   3.018   2.766   2.211 -1.0579  1.2596  0.4840
13711TIP3    H262549   3.118   2.874   2.175  0.0033 -0.1605 -0.8851
13712TIP3   OH262550   2.025   1.742   4.234 -0.4854 -0.5269  0.0255
13712TIP3    H162551   2.050   1.741   4.142  2.5038  1.0775  0.7271
13712TIP3    H262552   1.954   1.806   4.239 -1.4198 -1.4422 -1.3096
13713TIP3   OH262553   2.054   2.245   3.031  0.6619  0.5174 -0.2830
13713TIP3    H162554   2.127   2.306   3.038 -1.4293  2.9193  1.4777
13713TIP3    H262555   1.996   2.284   2.965 -0.8730  0.6954  1.1295
13714TIP3   OH262556   1.104   0.171   1.088  0.1729  0.0516 -0.6992
13714TIP3    H162557   1.145   0.165   1.002  1.6392  0.5708 -0.0489
13714TIP3    H262558   1.094   0.080   1.117  1.1463 -0.0683 -0.7339
13715TIP3   OH262559   2.238   1.542   1.239  0.4276  0.1994  0.0753
13715TIP3    H162560   2.276   1.568   1.322  0.2939  0.9437 -0.0890
13715TIP3    H262561   2.293   1.470   1.208  1.7912  1.3406 -0.2193
13716TIP3   OH262562   1.619   5.809  15.990 -0.3244 -0.2958 -0.2634
13716TIP3    H162563   1.653   5.824  15.902 -0.4200  0.7940 -0.1224
13716TIP3    H262564   1.604   5.715  15.994 -0.5299 -0.3246 -1.4811
13717TIP3   OH262565   2.659   1.900   1.046  0.1076  0.0639 -0.0660
13717TIP3    H162566   2.567   1.905   1.073 -0.1828 -0.9925 -0.8663
13717TIP3    H262567   2.703   1.963   1.103 -0.7292 -1.1138  1.9712
13718TIP3   OH262568   3.002   0.133   1.392  0.1646 -0.8220 -0.2006
13718TIP3    H162569   2.984   0.206   1.451 -1.7288 -0.8132 -0.7301
13718TIP3    H262570   3.077   0.088   1.430  1.7233  1.7440 -0.1892
13719TIP3   OH262571   1.731   0.415   3.953 -0.0126  0.1594  0.3909
13719TIP3    H162572   1.655   0.444   3.903 -0.4126  1.0163  1.4843
13719TIP3    H262573   1.802   0.474   3.926 -0.0085  0.0676  0.1986
13720TIP3   OH262574   2.808   1.150   1.053  0.1363 -0.2958  0.2667
13720TIP3    H162575   2.864   1.129   0.978  1.4456 -2.0558  1.6825
13720TIP3    H262576   2.788   1.065   1.093 -1.5480  0.5229  1.2020
13721TIP3   OH262577   3.139   0.872   3.442 -0.5042 -0.7395  0.6042
13721TIP3    H162578   3.214   0.848   3.496 -0.6492 -0.3300  0.9949
13721TIP3    H262579   3.066   0.878   3.505 -0.2777  1.6854  0.6878
13722TIP3   OH262580   1.450   6.972   2.815 -0.6277  0.1314 -0.4117
13722TIP3    H162581   1.495   6.933   2.890 -0.3719  0.6223 -0.3089
13722TIP3    H262582   1.391   6.903   2.784 -1.7518  0.3958  1.0838
13723TIP3   OH262583   4.920   2.085   3.292 -0.1771  0.0048  0.1277
13723TIP3    H162584   4.840   2.137   3.280  0.1376  0.7521  1.1507
13723TIP3    H262585   4.971   2.135   3.356  0.2580 -1.4243  0.9215
13724TIP3   OH262586   4.006   3.910   1.907 -0.5994  0.7470  0.3516
13724TIP3    H162587   3.947   3.850   1.860  0.2383  0.9886 -1.0275
13724TIP3    H262588   3.994   3.887   1.999 -1.1599 -0.7469 -0.0756
13725TIP3   OH262589   2.131   6.702   2.580  0.5067  0.6604  0.1107
13725TIP3    H162590   2.148   6.716   2.487  1.3687 -0.4961  0.0799
13725TIP3    H262591   2.167   6.779   2.623  1.7251  0.3853 -0.3745
13726TIP3   OH262592   2.222   0.047   3.091 -0.4857  0.1366 -0.2805
13726TIP3    H162593   2.272   0.047   3.173 -0.7762  2.6748 -0.0921
13726TIP3    H262594   2.249  -0.034   3.048 -0.4536 -1.3369  2.3822
13727TIP3   OH262595   4.651   7.295   2.694  0.3106  0.3800  0.1386
13727TIP3    H162596   4.580   7.322   2.753  0.2735 -0.3749  0.4330
13727TIP3    H262597   4.648   7.360   2.623  0.2175  1.1549  0.8493
13728TIP3   OH262598   1.833   2.574   1.103  0.2305 -0.2230  0.1060
13728TIP3    H162599   1.848   2.629   1.180 -0.9242 -0.7966  0.7547
13728TIP3    H262600   1.756   2.613   1.061 -0.1792 -0.9406  0.1954
13729TIP3   OH262601   1.851   1.071   2.201 -0.3227  0.6426  0.3277
13729TIP3    H162602   1.858   1.126   2.279  0.6895 -1.0079  1.4263
13729TIP3    H262603   1.939   1.036   2.189 -1.6710 -3.5885  1.7913
13730TIP3   OH262604   3.494   2.493   3.524 -0.3590  0.1206 -0.4244
13730TIP3    H162605   3.454   2.543   3.453  0.3992  3.2987  1.2720
13730TIP3    H262606   3.420   2.468   3.580 -0.6054  0.9846 -0.3426
13731TIP3   OH262607   1.673   7.195   3.358  0.0139 -0.3647  0.3393
13731TIP3    H162608   1.753   7.219   3.312  0.6440 -1.2312  0.9654
13731TIP3    H262609   1.647   7.274   3.405 -1.1956  0.8369 -2.2817
13732TIP3   OH262610   1.354   3.065   4.225 -0.2200  0.1011  0.4949
13732TIP3    H162611   1.370   3.107   4.310 -0.0581 -0.0821  0.5558
13732TIP3    H262612   1.427   3.093   4.170  0.9421 -1.6663  1.1201
13733TIP3   OH262613   3.379   0.024   5.179 -0.7363  0.0926  0.4415
13733TIP3    H162614   3.291   0.018   5.217 -1.1703  1.9605 -0.2111
13733TIP3    H262615   3.365   0.015   5.085 -0.2104  0.1962  0.3544
13734TIP3   OH262616   3.176   0.981   3.060  0.1143 -0.4396 -0.3680
13734TIP3    H162617   3.160   0.889   3.081 -0.3033 -0.5209 -1.0323
13734TIP3    H262618   3.141   1.029   3.136  1.9014 -0.8979  0.7803
13735TIP3   OH262619   2.212   2.686   3.711  0.3771  0.0395 -0.8722
13735TIP3    H162620   2.299   2.724   3.719 -0.7123  2.5218 -0.2139
13735TIP3    H262621   2.199   2.637   3.793  0.6381  0.8221 -0.3543
13736TIP3   OH262622   1.713   2.124   4.605  0.5235 -0.1427  0.1020
13736TIP3    H162623   1.664   2.198   4.641  1.0538  0.8341 -1.1458
13736TIP3    H262624   1.718   2.142   4.511  0.0556 -2.1217 -0.3374
13737TIP3   OH262625   3.474   0.547   3.258  0.4217 -0.8206  0.4127
13737TIP3    H162626   3.416   0.574   3.330 -1.6798 -2.1717 -0.7323
13737TIP3    H262627   3.531   0.481   3.297  1.2641  0.5888  1.5819
13738TIP3   OH262628   6.359   6.770   4.653  0.0502  0.0415  0.2483
13738TIP3    H162629   6.338   6.772   4.560 -0.2566 -1.2351  0.2786
13738TIP3    H262630   6.374   6.861   4.676  0.2783  0.3572 -1.0882
13739TIP3   OH262631   5.178   7.000   1.136 -0.3383  0.5223  0.5164
13739TIP3    H162632   5.089   6.965   1.129 -0.4995  0.9718  0.3029
13739TIP3    H262633   5.199   6.993   1.229 -0.8631  1.0716  0.6762
13740TIP3   OH262634   2.366   3.134   4.059  0.4378  0.1334 -0.4174
13740TIP3    H162635   2.337   3.218   4.022  2.9894  0.2995 -2.1559
13740TIP3    H262636   2.407   3.158   4.142 -0.1903  0.4406 -0.1950
13741TIP3   OH262637   1.682   3.138   4.352 -0.1371  0.2606 -0.0163
13741TIP3    H162638   1.729   3.058   4.377 -1.5374 -0.4604  0.3633
13741TIP3    H262639   1.647   3.119   4.265 -1.2845  0.0725  0.4680
13742TIP3   OH262640   4.095   0.578   5.753 -0.3620  0.1944 -0.1707
13742TIP3    H162641   4.047   0.569   5.671  0.9291 -0.2317 -0.8955
13742TIP3    H262642   4.095   0.490   5.791 -0.5915  0.3034  0.0867
13743TIP3   OH262643   4.246   0.395   3.163 -0.0841  0.0734  0.1802
13743TIP3    H162644   4.301   0.412   3.240 -0.7879 -2.4581  1.2914
13743TIP3    H262645   4.203   0.479   3.145  2.2715  1.4527  0.7631
13744TIP3   OH262646   1.527   1.204   3.627  0.2864  0.1219  0.1252
13744TIP3    H162647   1.544   1.145   3.554 -0.4396 -0.7143  0.6208
13744TIP3    H262648   1.432   1.208   3.633  0.3345 -0.0778  1.2182
13745TIP3   OH262649   2.568   5.828   4.838  0.4642  0.7264  1.0213
13745TIP3    H162650   2.498   5.849   4.776  1.0946  1.3291  0.5107
13745TIP3    H262651   2.591   5.738   4.819  0.9830  1.0629  0.0631
13746TIP3   OH262652   3.952   1.938   4.063 -0.0381 -0.9735  0.2178
13746TIP3    H162653   3.884   1.978   4.008 -0.1269 -1.7555 -0.2535
13746TIP3    H262654   3.943   1.982   4.147  1.3601  1.6104 -0.9033
13747TIP3   OH262655   2.730   1.429   5.453 -0.3044  0.0711 -0.3635
13747TIP3    H162656   2.791   1.497   5.483  0.9635 -1.1718 -0.0541
13747TIP3    H262657   2.659   1.432   5.517  1.8613 -1.8441  2.2647
13748TIP3   OH262658   3.225   5.970   3.319 -0.3515 -0.5195  0.1111
13748TIP3    H162659   3.134   5.972   3.289 -0.6414  2.3939  0.9999
13748TIP3    H262660   3.274   6.014   3.249  0.2796 -1.5241 -0.0840
13749TIP3   OH262661   1.482   2.267   1.518 -0.4994 -0.0359 -0.3503
13749TIP3    H162662   1.395   2.229   1.520 -1.3901  1.9420 -0.1288
13749TIP3    H262663   1.500   2.283   1.425 -1.1984  1.3644 -0.2515
13750TIP3   OH262664   4.317   6.975   4.724 -0.8445  0.5199 -0.0101
13750TIP3    H162665   4.335   6.983   4.818  0.9474  0.3005 -0.3375
13750TIP3    H262666   4.225   6.946   4.721 -0.3884 -1.2185  1.7049
13751TIP3   OH262667   6.980   0.969   2.352  0.2098 -0.0898 -0.7593
13751TIP3    H162668   6.913   1.023   2.393 -0.2986 -0.9109 -0.5116
13751TIP3    H262669   7.063   1.003   2.386 -0.1779 -0.3429  0.4332
13752TIP3   OH262670   5.250   5.869   5.334 -0.3724 -0.3676  0.2527
13752TIP3    H162671   5.164   5.840   5.303 -0.2487  1.4845 -1.8986
13752TIP3    H262672   5.309   5.849   5.262  0.8638 -0.8233  1.3809
13753TIP3   OH262673   2.440   2.130   3.243  0.0969  0.3148  0.1900
13753TIP3    H162674   2.464   2.176   3.162 -0.0677 -1.2587 -0.7803
13753TIP3    H262675   2.352   2.095   3.225  0.3134 -0.5559  0.8219
13754TIP3   OH262676   1.706   6.606   4.589  0.1542  0.1146  0.3951
13754TIP3    H162677   1.657   6.644   4.516  1.8736  1.8313  0.1046
13754TIP3    H262678   1.713   6.513   4.566 -0.7276  0.3170 -0.8110
13755TIP3   OH262679   0.936   0.866   5.249 -0.7746 -0.2310  0.1165
13755TIP3    H162680   0.968   0.817   5.325 -1.8393  0.0302  0.7543
13755TIP3    H262681   0.994   0.941   5.243  0.4304 -1.1944 -0.4362
13756TIP3   OH262682   3.440   3.056   4.708  0.1030  0.4963 -0.3924
13756TIP3    H162683   3.437   3.042   4.613 -2.3449  0.6415 -0.3669
13756TIP3    H262684   3.491   2.982   4.741  2.1628  1.1860 -1.9327
13757TIP3   OH262685   1.729   2.370   3.820 -0.6232  0.3514  0.2335
13757TIP3    H162686   1.650   2.408   3.782 -1.3939 -2.0878 -0.7040
13757TIP3    H262687   1.720   2.386   3.914 -2.3463 -0.0923  0.1638
13758TIP3   OH262688   3.351   0.554   5.137  0.6554  0.4471 -0.1142
13758TIP3    H162689   3.373   0.602   5.057  0.6821 -0.4021 -0.6197
13758TIP3    H262690   3.436   0.531   5.175  0.6606 -1.5153 -1.2728
13759TIP3   OH262691   2.576   0.060   5.673 -0.2607  0.1812  0.1032
13759TIP3    H162692   2.670   0.054   5.656 -0.4030 -0.9351 -0.3659
13759TIP3    H262693   2.535   0.024   5.594 -1.0762  0.4914  0.3809
13760TIP3   OH262694   3.356   1.832   5.693 -0.4680  0.6005  0.3030
13760TIP3    H162695   3.285   1.809   5.633 -0.9542 -0.4464  1.2672
13760TIP3    H262696   3.343   1.926   5.710 -1.1047  0.6103 -0.2048
13761TIP3   OH262697   2.158   2.766   4.156 -0.0368 -0.3166 -0.3232
13761TIP3    H162698   2.073   2.722   4.159 -0.0624 -0.2966 -0.7555
13761TIP3    H262699   2.206   2.723   4.085  0.5367 -0.7261  0.3021
13762TIP3   OH262700   3.388   1.590   5.342 -0.1839  0.4947  0.1062
13762TIP3    H162701   3.449   1.636   5.282 -1.3302  1.2840 -0.4751
13762TIP3    H262702   3.334   1.660   5.378  0.0691 -0.0672  1.5846
13763TIP3   OH262703   3.532   2.684   3.736 -0.2673  0.3221  0.4759
13763TIP3    H162704   3.541   2.624   3.662  1.0953  0.6726  0.3434
13763TIP3    H262705   3.517   2.628   3.812  0.4363 -0.1489  0.2646
13764TIP3   OH262706   3.387   3.100   2.136 -0.1914  0.2247 -0.8859
13764TIP3    H162707   3.339   3.168   2.089  0.5338  1.2196 -0.1849
13764TIP3    H262708   3.423   3.144   2.212 -2.7561 -1.7200  1.5475
13765TIP3   OH262709   2.431   1.781   4.611 -0.0055  0.3705 -0.2675
13765TIP3    H162710   2.512   1.801   4.564  0.5801 -0.2846  0.4564
13765TIP3    H262711   2.362   1.824   4.560  0.7725  0.7428 -1.0053
13766TIP3   OH262712   5.785   1.326   4.310  0.2720 -0.3877 -0.1889
13766TIP3    H162713   5.823   1.322   4.222  0.7652 -2.4190  0.0911
13766TIP3    H262714   5.755   1.237   4.327 -1.0032  0.2816  1.1943
13767TIP3   OH262715   4.788   1.090   5.184  0.0681 -0.1421  0.4510
13767TIP3    H162716   4.837   1.161   5.142 -2.0873  0.5417 -0.9843
13767TIP3    H262717   4.699   1.123   5.191 -0.7215 -2.2606  0.8379
13768TIP3   OH262718   3.315   1.314   5.530  0.1627  0.2676 -0.0277
13768TIP3    H162719   3.301   1.282   5.440  1.2038  0.0204 -0.1075
13768TIP3    H262720   3.288   1.240   5.585  1.4548 -0.3498 -0.1899
13769TIP3   OH262721   3.119   2.499   2.850  0.0186 -0.4729 -0.4208
13769TIP3    H162722   3.151   2.561   2.785 -1.2599 -1.7162 -2.2823
13769TIP3    H262723   3.099   2.419   2.800  1.4489 -2.3448  1.8759
13770TIP3   OH262724   6.582   1.239   3.445  0.7058  0.3503  0.3225
13770TIP3    H162725   6.525   1.316   3.455 -1.0732 -0.7574 -0.8945
13770TIP3    H262726   6.566   1.210   3.355  2.7948 -0.3328  0.1522
13771TIP3   OH262727   3.637   0.421   4.915  0.0528  0.0204 -0.1073
13771TIP3    H162728   3.663   0.472   4.992  0.4293  0.3168 -0.4325
13771TIP3    H262729   3.714   0.369   4.893  0.2805  0.6925 -0.9012
13772TIP3   OH262730   5.149   7.083   1.831 -0.1930 -0.2758 -0.7965
13772TIP3    H162731   5.147   7.179   1.827  1.8328 -0.1397  0.2743
13772TIP3    H262732   5.076   7.060   1.888 -0.7051  0.6366 -1.0661
13773TIP3   OH262733   2.768   0.850   2.324 -0.2846  0.0574  0.5164
13773TIP3    H162734   2.706   0.803   2.267  0.3525 -0.9540  0.6405
13773TIP3    H262735   2.747   0.819   2.412  0.7585 -0.7030  0.5018
13774TIP3   OH262736   3.245   0.314   1.899  0.1315  0.2373  0.2742
13774TIP3    H162737   3.327   0.267   1.914  0.3652  0.6638  0.3343
13774TIP3    H262738   3.262   0.403   1.929 -0.0856  0.5412 -0.4834
13775TIP3   OH262739   2.934   3.214   1.174  0.0440 -0.4335  0.2830
13775TIP3    H162740   2.865   3.214   1.107 -1.3391  0.2066  1.6717
13775TIP3    H262741   2.934   3.125   1.209  0.5759 -0.6929 -0.3778
13776TIP3   OH262742   3.831   1.923   0.222 -0.1249  0.4804 -0.5782
13776TIP3    H162743   3.801   1.872   0.146  0.2480 -0.4779 -0.0840
13776TIP3    H262744   3.784   1.885   0.296  2.3630 -1.0842  0.2227
13777TIP3   OH262745   1.225   3.892   4.522  0.0440 -0.0072 -0.6361
13777TIP3    H162746   1.290   3.926   4.583  0.1780  0.0127 -0.7882
13777TIP3    H262747   1.267   3.816   4.482 -0.2228 -0.3006 -0.3593
13778TIP3   OH262748   5.097   6.043   3.196  0.3893 -0.7111  0.0007
13778TIP3    H162749   5.134   6.113   3.144 -0.1049  0.9289  1.7830
13778TIP3    H262750   5.170   5.984   3.215  1.1680  0.2257 -0.1017
13779TIP3   OH262751   3.185   1.731   1.969  0.0640 -0.1475  0.4164
13779TIP3    H162752   3.182   1.637   1.987  0.3079  0.0471  1.5377
13779TIP3    H262753   3.126   1.744   1.895  2.4834 -1.6483 -1.8478
13780TIP3   OH262754   3.956   0.379   3.386 -0.1082  0.0826  0.5466
13780TIP3    H162755   3.970   0.319   3.312  0.2882 -0.8653  1.3651
13780TIP3    H262756   4.039   0.426   3.394  0.2017 -0.5224  0.9927
13781TIP3   OH262757   5.238   0.272   3.770  0.0836  0.0268 -0.8162
13781TIP3    H162758   5.185   0.254   3.847  0.9340 -0.5405 -0.3563
13781TIP3    H262759   5.197   0.221   3.699  2.0480 -3.2234  0.3032
13782TIP3   OH262760   0.914   0.928   1.918  0.3125  0.1021 -0.1447
13782TIP3    H162761   0.964   0.879   1.852 -0.2940 -0.0732 -0.4818
13782TIP3    H262762   0.944   1.018   1.909 -0.1725  0.1809 -1.0542
13783TIP3   OH262763   1.340   2.688   4.763  0.6763  0.1670  0.5903
13783TIP3    H162764   1.323   2.771   4.718  0.7690  0.0537  0.3483
13783TIP3    H262765   1.253   2.647   4.771  0.9448 -0.8382 -1.4740
13784TIP3   OH262766   2.259   1.675   3.899 -0.1844 -0.8039 -0.5182
13784TIP3    H162767   2.319   1.675   3.974  0.2770 -3.8872 -0.8285
13784TIP3    H262768   2.316   1.666   3.823 -0.8178 -0.2657 -1.0539
13785TIP3   OH262769   2.245   7.300   2.462 -0.3584  0.0737  0.3400
13785TIP3    H162770   2.201   7.216   2.453 -1.1735  0.3192  1.8553
13785TIP3    H262771   2.188   7.362   2.417  0.8519 -0.3484 -1.8466
13786TIP3   OH262772   2.931   2.793   2.761 -0.0798 -0.2100  0.4946
13786TIP3    H162773   2.945   2.883   2.792 -0.8339  0.2193 -0.3871
13786TIP3    H262774   2.991   2.783   2.688 -1.2779  0.1945 -0.5595
13787TIP3   OH262775   6.546   7.060   3.606  0.0665  0.9466  0.1578
13787TIP3    H162776   6.546   7.142   3.656 -0.1275  1.8636 -1.3266
13787TIP3    H262777   6.466   7.016   3.633 -0.1539  1.5391  0.4972
13788TIP3   OH262778   2.947   0.921   4.881 -0.9292 -0.0282  0.5576
13788TIP3    H162779   2.929   0.997   4.825  0.0988  0.3431  0.7115
13788TIP3    H262780   2.933   0.953   4.970  1.8172  0.7064  0.7863
13789TIP3   OH262781   4.313   1.125   1.739  0.0277 -0.4285  0.6437
13789TIP3    H162782   4.319   1.063   1.666  1.1817  2.2511 -1.6383
13789TIP3    H262783   4.292   1.071   1.815 -4.2827 -2.9950 -2.1586
13790TIP3   OH262784   0.619   1.332   0.299  0.2682  0.0647 -0.7573
13790TIP3    H162785   0.623   1.276   0.221 -3.2263  2.1695 -2.6014
13790TIP3    H262786   0.527   1.330   0.325  1.4805 -1.1496  3.8698
13791TIP3   OH262787   5.949   1.294   4.839 -0.2165  0.0950  0.1683
13791TIP3    H162788   6.044   1.301   4.831 -0.0743 -0.5575  1.2479
13791TIP3    H262789   5.928   1.208   4.803 -0.5327  0.6959 -1.1153
13792TIP3   OH262790   2.629   6.745   3.993 -0.5808 -0.2712  0.0045
13792TIP3    H162791   2.708   6.691   3.982  0.6068  1.4438 -0.0066
13792TIP3    H262792   2.609   6.738   4.086  1.8139  2.2886  0.7737
13793TIP3   OH262793   0.928   7.153   3.891  0.2002  0.1441 -0.2036
13793TIP3    H162794   0.980   7.232   3.905 -1.6609  1.3860 -0.2989
13793TIP3    H262795   0.971   7.109   3.818  1.5157  0.8150  0.1475
13794TIP3   OH262796   3.217   3.681   4.426  0.3336  0.2293  0.3702
13794TIP3    H162797   3.230   3.642   4.512  0.9239 -0.4960 -0.0451
13794TIP3    H262798   3.170   3.614   4.376  0.7849  0.2972 -0.1509
13795TIP3   OH262799   5.115   0.374   4.233 -0.3721 -0.2211  0.1337
13795TIP3    H162800   5.147   0.421   4.310  0.8473 -1.0370  0.1343
13795TIP3    H262801   5.025   0.350   4.255 -0.4720  0.6924  0.7682
13796TIP3   OH262802   5.141   6.591   3.510  0.9906  0.6412  0.0054
13796TIP3    H162803   5.110   6.681   3.502  0.9070  0.4466 -2.1469
13796TIP3    H262804   5.196   6.578   3.433  1.7419 -0.8797  0.7687
13797TIP3   OH262805   3.952   1.958   5.628  0.4320  0.3056  0.0456
13797TIP3    H162806   4.009   1.948   5.705 -0.1507  0.1395  0.4611
13797TIP3    H262807   3.886   2.021   5.655  0.2273  0.2520 -0.3291
13798TIP3   OH262808   3.711   2.946   0.454  0.4085 -0.2870  0.2700
13798TIP3    H162809   3.773   2.941   0.527 -0.8767 -1.7082  1.2914
13798TIP3    H262810   3.647   2.878   0.472  0.6827 -1.4627 -2.8113
13799TIP3   OH262811   3.093   0.965   3.994 -0.0257 -0.4050 -0.2759
13799TIP3    H162812   3.087   0.971   3.899 -2.3802  0.0154 -0.1367
13799TIP3    H262813   3.092   0.871   4.012 -0.6088 -0.4685 -0.6291
13800TIP3   OH262814   3.560   2.441   1.785  0.9076 -0.3748 -0.2311
13800TIP3    H162815   3.632   2.378   1.782 -0.5095 -2.0016 -0.5649
13800TIP3    H262816   3.487   2.396   1.743 -0.4687  1.0603  0.5953
13801TIP3   OH262817   3.798   2.328   5.464  0.2907  0.2777 -0.1146
13801TIP3    H162818   3.762   2.258   5.519  0.8323  0.9358  1.1089
13801TIP3    H262819   3.782   2.408   5.514  0.7579  0.8940 -0.9450
13802TIP3   OH262820   4.216   3.146   3.680 -0.3913  0.2427  0.4921
13802TIP3    H162821   4.290   3.108   3.632 -0.7252  0.3687 -0.1226
13802TIP3    H262822   4.140   3.098   3.648 -0.7123  0.8484  0.3397
13803TIP3   OH262823   2.948   5.187  15.429  0.1024  0.8944 -0.7025
13803TIP3    H162824   3.033   5.160  15.464 -0.2878 -0.9154 -1.1160
13803TIP3    H262825   2.947   5.154  15.339 -0.5441  1.9937 -1.1124
13804TIP3   OH262826   1.783   1.281   5.182  0.0850 -0.1613  0.3987
13804TIP3    H162827   1.747   1.235   5.258 -0.0468 -1.3719 -0.3749
13804TIP3    H262828   1.862   1.323   5.215  0.5082 -1.4030  1.0285
13805TIP3   OH262829   1.179   3.604   5.129 -0.5766  0.6645 -0.1162
13805TIP3    H162830   1.251   3.554   5.168 -0.4834  0.9344  0.0625
13805TIP3    H262831   1.136   3.645   5.204  0.2486  2.0454 -0.3826
13806TIP3   OH262832   4.848   6.781   2.882 -0.0436  0.1511  0.4678
13806TIP3    H162833   4.776   6.723   2.859 -0.1364  0.9029 -1.1700
13806TIP3    H262834   4.816   6.869   2.860  0.7898  0.6547  1.1972
13807TIP3   OH262835   4.552   6.780   4.554 -0.1115  0.4061 -0.0445
13807TIP3    H162836   4.497   6.858   4.547 -0.6470 -0.0191 -0.6587
13807TIP3    H262837   4.642   6.814   4.551 -0.3379  1.0181 -0.0693
13808TIP3   OH262838   3.113   6.719   3.910 -0.1028 -0.5594  0.5323
13808TIP3    H162839   3.056   6.643   3.899  0.5443 -1.0855  0.7279
13808TIP3    H262840   3.162   6.724   3.828  0.5476 -0.9481  0.8910
13809TIP3   OH262841   3.456   5.482   3.846  0.4355  0.0540  0.1294
13809TIP3    H162842   3.540   5.525   3.832  0.2957  0.0958 -0.5738
13809TIP3    H262843   3.408   5.495   3.764 -0.9025  1.5218  1.1097
13810TIP3   OH262844   1.291   1.116   2.144  0.6290  0.1733  0.1855
13810TIP3    H162845   1.319   1.086   2.231 -1.7338 -1.5781  0.4053
13810TIP3    H262846   1.299   1.038   2.089 -1.5217  0.2471 -0.2553
13811TIP3   OH262847   4.111   1.393   2.678 -0.5773 -0.6657 -0.1077
13811TIP3    H162848   4.026   1.359   2.706 -2.1761  1.7455 -1.8683
13811TIP3    H262849   4.111   1.384   2.583 -0.0791  1.9518 -0.4034
13812TIP3   OH262850   1.895   0.682   2.490  0.0739  0.0625 -0.5022
13812TIP3    H162851   1.853   0.596   2.491  0.2861 -0.0527 -1.6015
13812TIP3    H262852   1.964   0.675   2.425 -0.3773  1.2892 -1.1200
13813TIP3   OH262853   3.902   2.663   2.720 -0.0679  0.4143 -0.0503
13813TIP3    H162854   3.963   2.594   2.741  0.0706  0.2917 -0.8155
13813TIP3    H262855   3.820   2.637   2.762  0.3426  0.4599  0.7728
13814TIP3   OH262856   2.234   6.600   4.402 -0.1416 -0.4177 -0.0020
13814TIP3    H162857   2.231   6.514   4.362 -2.5658 -0.1643 -0.4723
13814TIP3    H262858   2.270   6.586   4.489 -0.3769 -1.8920 -0.1414
13815TIP3   OH262859   3.543   1.967   3.820 -0.1793  1.0137 -0.2006
13815TIP3    H162860   3.536   2.035   3.888 -1.3648  1.1379 -0.4370
13815TIP3    H262861   3.467   1.982   3.764 -1.5896 -1.7863  0.8910
13816TIP3   OH262862   1.263   7.133   0.800  0.2985  0.2176  0.7232
13816TIP3    H162863   1.223   7.108   0.717 -0.2544  0.3891  0.9360
13816TIP3    H262864   1.224   7.073   0.864 -1.6496  2.1137  1.3773
13817TIP3   OH262865   2.635   2.764   1.701  0.0297  0.8750  0.1638
13817TIP3    H162866   2.662   2.844   1.655 -1.6949  1.5476  0.2874
13817TIP3    H262867   2.591   2.712   1.634 -0.1711  0.6931  0.4381
13818TIP3   OH262868   1.795   6.595   4.300 -0.6842  0.0993 -0.4980
13818TIP3    H162869   1.859   6.667   4.292 -1.1192  0.2659 -3.0993
13818TIP3    H262870   1.819   6.550   4.381  2.7484  0.1675 -1.3983
13819TIP3   OH262871   3.434   6.060   5.183 -0.5744 -0.5558 -0.0899
13819TIP3    H162872   3.476   6.085   5.101  0.5235 -0.6682  0.4298
13819TIP3    H262873   3.346   6.098   5.177 -0.3965 -0.2925 -1.1766
13820TIP3   OH262874   5.591   6.956   3.240  0.5003  0.0473 -0.3963
13820TIP3    H162875   5.505   6.963   3.199  0.9766  1.1645 -1.2346
13820TIP3    H262876   5.575   6.907   3.320 -1.3237  2.2058  0.6329
13821TIP3   OH262877   0.105   7.165   1.220  0.3450  0.2091  0.4113
13821TIP3    H162878   0.154   7.109   1.280  0.6224 -0.6157 -0.5626
13821TIP3    H262879   0.171   7.221   1.180  0.2575  0.2706  0.3516
13822TIP3   OH262880   2.332   6.280   3.801 -0.0099 -0.4348 -0.0163
13822TIP3    H162881   2.375   6.360   3.770 -1.3726  0.1617 -0.4118
13822TIP3    H262882   2.250   6.277   3.752 -0.6905 -1.2511  1.1603
13823TIP3   OH262883   3.612   2.413   4.631 -0.0207  0.3561 -0.3987
13823TIP3    H162884   3.613   2.509   4.639 -2.3126  0.5049 -1.3697
13823TIP3    H262885   3.519   2.390   4.636  0.2192 -1.5207 -3.3129
13824TIP3   OH262886   3.165   6.641   2.705  0.3111  0.2577 -0.0235
13824TIP3    H162887   3.091   6.697   2.728  0.7649  0.9081 -0.1334
13824TIP3    H262888   3.139   6.553   2.734 -0.1700  0.6256  0.6526
13825TIP3   OH262889   6.204   0.761   4.958  0.5614  0.2129  0.7427
13825TIP3    H162890   6.256   0.800   4.888  0.6529  0.4547  0.9458
13825TIP3    H262891   6.266   0.709   5.009  0.2119 -1.2053 -0.2541
13826TIP3   OH262892   6.275   4.749   4.531 -0.3784  0.0167  0.3958
13826TIP3    H162893   6.199   4.693   4.546 -0.6934  0.3837  0.1819
13826TIP3    H262894   6.248   4.835   4.562 -0.3489  0.3451 -0.4675
13827TIP3   OH262895   4.017   0.024   5.250  0.4817 -0.3004  0.2782
13827TIP3    H162896   4.013   0.119   5.234  1.0697 -0.6325 -2.0704
13827TIP3    H262897   4.109   0.001   5.233 -0.0302 -1.5472 -0.9082
13828TIP3   OH262898   4.216   1.933   5.495 -0.1054 -0.7806  0.1555
13828TIP3    H162899   4.200   2.022   5.462  1.5170 -0.7129 -0.4685
13828TIP3    H262900   4.144   1.918   5.557  0.0392  1.2678  0.8764
13829TIP3   OH262901   3.983   1.005   1.285  0.2485  0.5623 -0.1408
13829TIP3    H162902   3.914   1.071   1.277 -0.7168 -0.4198  0.0383
13829TIP3    H262903   3.974   0.971   1.374 -2.1174 -2.8952 -1.5915
13830TIP3   OH262904   2.714   0.947   3.065  0.3113  0.0299  0.1206
13830TIP3    H162905   2.625   0.924   3.093  1.3250 -2.8872  1.0690
13830TIP3    H262906   2.727   1.036   3.099 -1.8430  0.1044  0.8580
13831TIP3   OH262907   5.636   2.386   1.480 -0.0238 -0.2214 -0.4979
13831TIP3    H162908   5.595   2.310   1.522  0.5695  0.2351  0.9419
13831TIP3    H262909   5.563   2.432   1.438 -0.3608 -1.6687 -1.5386
13832TIP3   OH262910   2.132   1.370   5.130  0.0028 -0.1845 -0.3283
13832TIP3    H162911   2.130   1.466   5.133  0.3396 -0.1471 -1.2384
13832TIP3    H262912   2.180   1.345   5.209  1.2660  0.4477 -0.8959
13833TIP3   OH262913   5.738   0.292   3.521  0.4771 -0.2446 -0.5053
13833TIP3    H162914   5.801   0.299   3.450 -0.2307  0.3526 -1.0943
13833TIP3    H262915   5.711   0.382   3.538  1.1842 -0.3027  1.0344
13834TIP3   OH262916   4.485   5.671   3.190  0.0943 -0.0703 -0.3853
13834TIP3    H162917   4.557   5.621   3.151  1.0576  1.4824 -0.6441
13834TIP3    H262918   4.527   5.721   3.260 -0.9784 -0.0842  0.2818
13835TIP3   OH262919   6.029   6.304   4.149  0.9126 -0.1053  0.1381
13835TIP3    H162920   5.986   6.346   4.223  1.6110 -1.7900  1.5235
13835TIP3    H262921   5.960   6.295   4.083 -0.1165 -0.0600  1.1943
13836TIP3   OH262922   3.407   1.919   1.963 -0.5181 -0.2970 -0.7865
13836TIP3    H162923   3.361   1.951   1.885  1.9146 -0.1180 -2.1715
13836TIP3    H262924   3.354   1.844   1.992 -1.4639 -0.3626 -2.5785
13837TIP3   OH262925   1.976   0.767   3.515 -0.0143 -0.3170 -0.6786
13837TIP3    H162926   2.022   0.792   3.595 -1.2781 -0.2298  0.0354
13837TIP3    H262927   2.026   0.808   3.444 -0.8192  2.4679  0.3061
13838TIP3   OH262928   4.567   0.734   4.164 -0.3047  0.4135 -0.0470
13838TIP3    H162929   4.507   0.804   4.140 -1.5455 -0.4127  0.5410
13838TIP3    H262930   4.510   0.666   4.202  0.7674 -1.2259 -1.3131
13839TIP3   OH262931   5.634   1.292   5.168 -0.0846  0.5062 -0.0431
13839TIP3    H162932   5.551   1.246   5.159 -1.4720  2.8461  0.6853
13839TIP3    H262933   5.641   1.311   5.262  1.2112  0.4826 -0.1217
13840TIP3   OH262934   4.114   1.667   4.909 -0.0624  0.7350  0.1538
13840TIP3    H162935   4.039   1.724   4.893  0.3188  0.9418 -0.8804
13840TIP3    H262936   4.166   1.713   4.974  0.4318  1.7359 -0.9437
13841TIP3   OH262937   3.681   0.562   2.618  0.8716  0.5014  0.0120
13841TIP3    H162938   3.632   0.595   2.543  1.2071  1.0570  0.0396
13841TIP3    H262939   3.613   0.529   2.678  0.6238 -0.2293 -0.6684
13842TIP3   OH262940   4.553   0.197   5.071 -0.0452  0.3550  0.3580
13842TIP3    H162941   4.495   0.127   5.041 -1.1845  2.1145 -1.6445
13842TIP3    H262942   4.632   0.186   5.019  0.6836 -0.8152  1.6736
13843TIP3   OH262943   5.117   0.036   1.854 -0.9653 -0.4059 -0.3954
13843TIP3    H162944   5.167   0.103   1.809  0.9225  0.9590  3.4861
13843TIP3    H262945   5.035   0.079   1.879 -1.0234 -0.4580 -0.4948
13844TIP3   OH262946   4.446   0.707   2.466 -0.2504 -0.1212  0.0165
13844TIP3    H162947   4.468   0.800   2.465 -1.4273  0.1617 -1.9285
13844TIP3    H262948   4.417   0.691   2.556  1.0865  1.1128  0.6847
13845TIP3   OH262949   2.115   6.425   2.432  0.1890  0.0038 -0.2716
13845TIP3    H162950   2.100   6.444   2.339  3.5774 -0.9344 -1.0715
13845TIP3    H262951   2.190   6.365   2.433  0.1709 -0.0680  3.0732
13846TIP3   OH262952   3.553   2.423   5.305  0.0569 -0.7261  0.1512
13846TIP3    H162953   3.470   2.470   5.314  0.8311  0.7815 -0.5050
13846TIP3    H262954   3.576   2.397   5.394  0.5114  1.6976  0.7681
13847TIP3   OH262955   6.191   0.761   5.630  0.2937  0.1185 -0.0548
13847TIP3    H162956   6.277   0.734   5.661  0.3710  2.6989  2.2302
13847TIP3    H262957   6.129   0.711   5.683  0.4282  0.6952  0.6634
13848TIP3   OH262958   6.080   2.064   2.972 -0.8728 -0.1481 -0.2652
13848TIP3    H162959   6.166   2.037   3.003 -0.1221  0.3764 -1.8406
13848TIP3    H262960   6.037   2.100   3.049  1.2604  1.9427  0.0094
13849TIP3   OH262961   3.391   7.290   3.466  0.1620  0.3973 -0.4601
13849TIP3    H162962   3.427   7.216   3.416  0.3383  0.3980 -0.3316
13849TIP3    H262963   3.467   7.333   3.504 -0.0050  0.1548  0.1466
13850TIP3   OH262964   5.818   6.607   3.845  0.2635  0.1911 -0.3865
13850TIP3    H162965   5.870   6.527   3.834  1.8870  1.2089 -0.2434
13850TIP3    H262966   5.801   6.637   3.755 -1.8342 -1.2302 -0.4976
13851TIP3   OH262967   3.626   1.643   2.045 -0.4952  0.1555 -0.5991
13851TIP3    H162968   3.577   1.591   1.982 -0.7247  0.3048 -0.5436
13851TIP3    H262969   3.562   1.666   2.112  0.3548 -2.3383  1.1381
13852TIP3   OH262970   6.505   3.209   4.877 -0.2065  0.2459 -0.7140
13852TIP3    H162971   6.514   3.301   4.901 -0.3976 -0.1476  0.9701
13852TIP3    H262972   6.414   3.188   4.898  0.0192 -0.4918 -0.4677
13853TIP3   OH262973   2.788   3.002   3.032  0.5803 -0.5444 -0.0292
13853TIP3    H162974   2.863   2.979   2.976  1.8728 -1.4233  2.0218
13853TIP3    H262975   2.824   3.006   3.120 -1.2462  1.7720  0.6644
13854TIP3   OH262976   4.119   5.463   2.435 -0.2858 -0.9374  0.1691
13854TIP3    H162977   4.116   5.390   2.374  1.4221 -0.5103 -0.4349
13854TIP3    H262978   4.064   5.530   2.395 -1.0737 -1.5179  0.2581
13855TIP3   OH262979   5.571   1.729   3.616 -0.0268  0.1742  0.4881
13855TIP3    H162980   5.641   1.744   3.552 -0.4702  2.6380  0.5265
13855TIP3    H262981   5.610   1.750   3.700 -0.7123  1.2472  0.5464
13856TIP3   OH262982   4.916   0.888   2.301  0.1068  0.0478 -0.0520
13856TIP3    H162983   4.919   0.887   2.205 -0.3205  0.4729 -0.0735
13856TIP3    H262984   4.884   0.975   2.323 -0.5178 -0.2999  0.4559
13857TIP3   OH262985   6.487   0.561   3.916  0.1669  0.3616  0.2330
13857TIP3    H162986   6.474   0.645   3.872 -1.9525 -0.5551 -1.0001
13857TIP3    H262987   6.441   0.570   3.999 -0.7550  0.1770 -0.2465
13858TIP3   OH262988   4.819   0.479   2.027 -0.3670  0.3365  0.1001
13858TIP3    H162989   4.874   0.484   2.105  0.5965  0.9514 -0.6114
13858TIP3    H262990   4.826   0.389   1.998 -0.2700  0.2499  0.3917
13859TIP3   OH262991   4.491   1.615   2.811  0.5366  0.0156  0.3129
13859TIP3    H162992   4.449   1.549   2.866  0.7819 -0.5986 -0.2398
13859TIP3    H262993   4.527   1.678   2.874 -2.3099  1.2664  0.7921
13860TIP3   OH262994   6.612   6.252   2.427 -0.1526  0.3027 -0.2870
13860TIP3    H162995   6.582   6.343   2.421 -1.6462 -0.1587 -0.0926
13860TIP3    H262996   6.570   6.208   2.354 -2.7603 -1.0911  1.9575
13861TIP3   OH262997   4.155   0.885   5.151 -0.3247 -0.4966 -0.2310
13861TIP3    H162998   4.188   0.963   5.196  0.8501  0.0408 -1.9970
13861TIP3    H262999   4.061   0.900   5.142 -0.3960 -0.1250  1.0636
13862TIP3   OH263000   5.451   7.010   4.443 -0.1735 -0.1888 -0.2350
13862TIP3    H163001   5.493   6.950   4.380  0.0970 -1.5788  1.2262
13862TIP3    H263002   5.363   7.023   4.409  0.6464  0.8375 -2.0595
13863TIP3   OH263003   3.980   2.444   1.654 -0.6919 -0.1527 -0.3286
13863TIP3    H163004   3.910   2.502   1.624 -1.1899  0.2917  1.6142
13863TIP3    H263005   4.040   2.501   1.702 -0.6088 -1.0570  0.6486
13864TIP3   OH263006   4.151   6.939   2.530  0.2915  0.4433 -0.4488
13864TIP3    H163007   4.071   6.979   2.566  0.2024 -0.5821  0.5373
13864TIP3    H263008   4.133   6.930   2.436 -0.8020  0.1499 -0.2259
13865TIP3   OH263009   4.559   2.909   2.021  0.0928  0.2505 -0.1698
13865TIP3    H163010   4.585   2.817   2.029 -0.4539  0.1025 -0.0846
13865TIP3    H263011   4.636   2.952   1.984  1.4763  0.3468  2.6751
13866TIP3   OH263012   4.088   5.214   4.856  0.1353  0.3315  0.2061
13866TIP3    H163013   4.118   5.299   4.826  2.2255 -0.1066  0.9138
13866TIP3    H263014   4.109   5.213   4.950 -0.7964 -0.5822  0.4219
13867TIP3   OH263015   6.370   2.041   2.905  0.3594 -0.6224  0.3792
13867TIP3    H163016   6.382   2.083   2.820 -0.0691  0.1826  0.7128
13867TIP3    H263017   6.431   1.967   2.903  1.7370  0.4762  0.0859
13868TIP3   OH263018   3.771   1.908   3.443  0.0573 -0.3300 -0.2505
13868TIP3    H163019   3.703   1.942   3.386  0.7872  0.4193 -0.6744
13868TIP3    H263020   3.853   1.939   3.405  0.6110 -0.7671  0.5646
13869TIP3   OH263021   6.448   1.669   2.184  0.6507  0.2500 -0.4785
13869TIP3    H163022   6.492   1.648   2.267  0.3757 -0.3246 -0.4744
13869TIP3    H263023   6.486   1.753   2.157  2.1905 -0.5275 -0.7929
13870TIP3   OH263024   3.444   1.589   2.954  0.6201 -0.1483 -1.0948
13870TIP3    H163025   3.484   1.556   3.035  1.7983  0.4988 -1.4018
13870TIP3    H263026   3.430   1.682   2.971  1.5400  0.1425 -1.8881
13871TIP3   OH263027   5.502   2.322   4.043  0.7610  0.0414 -0.1876
13871TIP3    H163028   5.504   2.237   3.999  1.6797  0.7087 -1.4579
13871TIP3    H263029   5.585   2.363   4.021  1.2270  0.4439  2.1390
13872TIP3   OH263030   6.227   1.237   4.830 -0.4802  0.0348 -0.1707
13872TIP3    H163031   6.241   1.176   4.903  0.3182  1.5363  0.9611
13872TIP3    H263032   6.222   1.323   4.872  1.3580  1.0705 -2.0067
13873TIP3   OH263033   5.136   6.162   5.143  0.0512  0.0596  0.3999
13873TIP3    H163034   5.083   6.146   5.221  1.6633  0.3990  1.6128
13873TIP3    H263035   5.106   6.098   5.079 -2.3487  0.7757  0.7494
13874TIP3   OH263036   1.801   1.448   4.812 -0.0882  0.1338 -0.1459
13874TIP3    H163037   1.735   1.482   4.752 -2.1625 -0.9150  1.4776
13874TIP3    H263038   1.855   1.524   4.834 -1.1291  1.1359 -1.0143
13875TIP3   OH263039   4.471   2.254   1.703  0.6215  0.4659 -0.7297
13875TIP3    H163040   4.552   2.278   1.658  0.5953 -0.2400 -1.1537
13875TIP3    H263041   4.479   2.160   1.719  0.4082  0.6180  0.2943
13876TIP3   OH263042   0.104   1.244   0.667 -0.2900 -0.0333  0.0077
13876TIP3    H163043   0.088   1.262   0.575 -2.0436 -0.0930  0.2932
13876TIP3    H263044   0.176   1.180   0.667 -1.3766 -1.2769 -1.3692
13877TIP3   OH263045   5.142   0.111   4.462 -0.3706 -0.1014  0.2060
13877TIP3    H163046   5.076   0.169   4.423 -2.2025 -2.2254  0.0356
13877TIP3    H263047   5.091   0.052   4.518  1.4764 -1.4272  0.5124
13878TIP3   OH263048   4.929   1.717   1.944  0.5017 -0.4904  0.2526
13878TIP3    H163049   5.006   1.754   1.987  0.9413  0.3022 -1.1801
13878TIP3    H263050   4.954   1.713   1.851 -0.1245 -2.8773  0.1598
13879TIP3   OH263051   4.170   5.915   0.536  0.1080 -0.3672  0.2215
13879TIP3    H163052   4.146   6.007   0.539 -1.5714 -0.8464  1.5567
13879TIP3    H263053   4.223   5.901   0.614  2.7026  0.0691 -1.3760
13880TIP3   OH263054   2.582   6.948   3.608 -0.0642  0.2612 -0.2961
13880TIP3    H163055   2.592   6.858   3.576  0.8465  0.9113 -1.9241
13880TIP3    H263056   2.489   6.967   3.596 -0.0001  0.0085 -1.2876
13881TIP3   OH263057   7.277   5.459   3.583  0.2141 -0.5234 -0.0114
13881TIP3    H163058   7.183   5.461   3.566  0.1586 -2.4224 -0.0372
13881TIP3    H263059   7.284   5.433   3.675  0.7144 -0.7612 -0.1144
13882TIP3   OH263060   5.994   6.380   2.775 -0.1106  0.1543  0.1539
13882TIP3    H163061   5.999   6.460   2.723 -0.0220  0.5474  0.7590
13882TIP3    H263062   6.085   6.353   2.787 -0.1149  0.2163  0.3304
13883TIP3   OH263063   4.882   3.340   0.253 -1.2534  0.1291  0.1279
13883TIP3    H163064   4.801   3.297   0.223 -0.5463 -0.6638 -0.6855
13883TIP3    H263065   4.918   3.280   0.318  0.7452 -1.5062 -2.4203
13884TIP3   OH263066   4.938   7.163   2.038 -0.0139  0.4332  0.6186
13884TIP3    H163067   4.907   7.074   2.021 -0.3750  0.1383  2.6408
13884TIP3    H263068   5.030   7.152   2.064 -0.1236  0.6110  1.0950
13885TIP3   OH263069   4.253   1.063   4.434  0.1346 -0.5499  0.3493
13885TIP3    H163070   4.247   0.969   4.421  0.6910 -0.4282 -0.8063
13885TIP3    H263071   4.300   1.073   4.517 -1.7704 -1.2972  1.5844
13886TIP3   OH263072   5.385   6.621   1.356  0.5954  0.1028  0.1214
13886TIP3    H163073   5.374   6.599   1.449  1.1131  0.7412  0.3401
13886TIP3    H263074   5.456   6.685   1.355  0.8839 -0.2238 -0.7613
13887TIP3   OH263075   3.811   0.966   3.082  0.2468 -0.5017  0.3232
13887TIP3    H163076   3.805   0.913   3.002  1.8782 -2.5459  1.5084
13887TIP3    H263077   3.894   1.014   3.072 -0.6786  1.0332 -0.2313
13888TIP3   OH263078   3.240   5.563   3.628 -0.2662 -0.5319 -0.2197
13888TIP3    H163079   3.207   5.524   3.546 -0.2268  0.8167 -0.8840
13888TIP3    H263080   3.162   5.571   3.683 -0.0370 -2.9930  0.5483
13889TIP3   OH263081   4.363   6.978   2.904  0.1580 -0.4940  0.1515
13889TIP3    H163082   4.290   6.959   2.963 -0.0606 -2.6173 -0.7899
13889TIP3    H263083   4.330   7.049   2.848 -1.3778 -1.7796 -0.5979
13890TIP3   OH263084   5.498   0.053   1.764 -0.5904 -0.3298 -0.0168
13890TIP3    H163085   5.589   0.070   1.740 -0.9087 -1.1037 -1.8652
13890TIP3    H263086   5.489  -0.042   1.757 -0.5427 -0.6960  3.8802
13891TIP3   OH263087   3.670   2.944   2.674  0.2342  0.2560 -0.8498
13891TIP3    H163088   3.648   2.995   2.751  0.8592 -1.5985  0.6082
13891TIP3    H263089   3.766   2.944   2.672  0.2279 -0.0344 -1.3867
13892TIP3   OH263090   3.186   0.608   3.725 -0.4915  0.3514  0.2660
13892TIP3    H163091   3.179   0.579   3.815 -0.8295  0.4437  0.2677
13892TIP3    H263092   3.115   0.671   3.713 -0.5221  0.2530 -0.0973
13893TIP3   OH263093   3.871   0.221   1.076  0.3889 -0.0264 -0.5409
13893TIP3    H163094   3.787   0.265   1.071 -0.2257 -0.8055  2.3682
13893TIP3    H263095   3.930   0.285   1.115  0.1912 -0.7622  0.9963
13894TIP3   OH263096   2.875   0.572   4.642  0.5376 -0.2348  0.3329
13894TIP3    H163097   2.965   0.547   4.661  0.5919  0.1446  0.5927
13894TIP3    H263098   2.822   0.505   4.684  0.6809  0.0554  0.9805
13895TIP3   OH263099   3.882   6.747   5.548  0.4848 -0.0854  0.3800
13895TIP3    H163100   3.850   6.830   5.583  0.6426  0.4348 -0.6821
13895TIP3    H263101   3.970   6.738   5.584  0.2186 -0.1090  1.0218
13896TIP3   OH263102   5.546   2.394   2.945  0.1621 -1.1087 -0.2375
13896TIP3    H163103   5.641   2.386   2.960  0.3361  0.5409 -0.2983
13896TIP3    H263104   5.507   2.374   3.030  0.7351  0.6980  0.5001
13897TIP3   OH263105   3.940   1.332   0.869  0.1910  0.0668  0.0376
13897TIP3    H163106   3.970   1.274   0.799 -1.6375 -0.8564  0.0014
13897TIP3    H263107   3.981   1.416   0.850  1.2701 -0.6907 -1.0357
13898TIP3   OH263108   5.518   6.730   5.089  0.2495 -0.1517  0.6445
13898TIP3    H163109   5.503   6.725   5.184  0.7943  0.5478  0.7672
13898TIP3    H263110   5.593   6.788   5.080 -0.3830  0.5183 -0.2769
13899TIP3   OH263111   2.866   1.067   0.778 -0.0620  0.4841 -0.1501
13899TIP3    H163112   2.841   1.028   0.694  2.3871  1.1580 -1.2219
13899TIP3    H263113   2.935   1.130   0.756 -0.3668  1.7091  2.2015
13900TIP3   OH263114   5.189   0.703   4.583  0.2316 -0.5510  0.3983
13900TIP3    H163115   5.228   0.668   4.503  0.6155  0.1633  0.2707
13900TIP3    H263116   5.132   0.774   4.552 -0.9825 -1.4225  0.6016
13901TIP3   OH263117   2.857   0.972   5.153  0.2881  0.5382  0.9508
13901TIP3    H163118   2.834   0.918   5.229  0.6049  1.5201  1.7657
13901TIP3    H263119   2.774   0.990   5.110 -0.0564  0.9887  1.7755
13902TIP3   OH263120   3.879   5.704   3.593  0.3454  0.6837  0.2413
13902TIP3    H163121   3.796   5.742   3.621  0.2762  0.7784 -0.0966
13902TIP3    H263122   3.946   5.755   3.640  0.1961  0.3130  0.8622
13903TIP3   OH263123   2.768   1.628  15.658 -0.4321 -0.5352  0.1314
13903TIP3    H163124   2.846   1.587  15.620  0.3882  1.9575 -0.9408
13903TIP3    H263125   2.740   1.692  15.593 -0.3154  2.2584  2.7279
13904TIP3   OH263126   3.877   0.996   4.143 -0.4809 -0.0740 -0.4001
13904TIP3    H163127   3.841   0.973   4.058  2.5201  2.1850 -2.3932
13904TIP3    H263128   3.835   1.079   4.166 -2.8471 -1.6936  1.4033
13905TIP3   OH263129   3.365   0.282   3.995 -0.1401  0.8925 -0.2382
13905TIP3    H163130   3.400   0.297   3.907  0.9252 -0.6564 -0.1079
13905TIP3    H263131   3.435   0.310   4.054  0.2575 -0.6625  0.0528
13906TIP3   OH263132   5.299   1.802   2.759 -0.2828 -0.4681  0.1944
13906TIP3    H163133   5.321   1.767   2.672  0.0450  1.1213 -0.3755
13906TIP3    H263134   5.377   1.784   2.812  0.7678  1.3722 -0.6952
13907TIP3   OH263135   0.126   1.380   2.609  0.3400 -1.0022 -0.0684
13907TIP3    H163136   0.151   1.402   2.519  1.3883 -0.5422  0.3263
13907TIP3    H263137   0.123   1.284   2.611 -0.3112 -1.0003 -0.7513
13908TIP3   OH263138   4.366   0.002   5.033 -0.5562 -0.0629  0.1398
13908TIP3    H163139   4.288  -0.007   4.979 -0.0416 -1.9804 -0.3117
13908TIP3    H263140   4.350  -0.055   5.108  0.5232 -0.7359 -0.1169
13909TIP3   OH263141   4.609   0.274   3.455  0.3040  0.2813 -0.1957
13909TIP3    H163142   4.577   0.185   3.443 -0.5648  0.4833  0.5317
13909TIP3    H263143   4.685   0.265   3.513 -0.0496  0.0502  0.2338
13910TIP3   OH263144   4.976   6.906   1.983  0.1851 -0.1967  0.3583
13910TIP3    H163145   4.887   6.897   1.949  0.8371 -2.6689 -0.8772
13910TIP3    H263146   4.983   6.837   2.050 -0.3826  3.2172  4.1079
13911TIP3   OH263147   3.034   2.067   3.368 -0.1386  0.6584 -0.8457
13911TIP3    H163148   3.126   2.061   3.390 -1.0560 -2.0894  2.6829
13911TIP3    H263149   3.010   2.158   3.389  1.2724  0.7638  0.3502
13912TIP3   OH263150   6.439   0.265   4.236 -0.5729  0.1077 -0.4572
13912TIP3    H163151   6.473   0.333   4.294 -1.8441 -0.1947  0.6728
13912TIP3    H263152   6.503   0.259   4.166 -0.8871  3.1006 -1.0454
13913TIP3   OH263153   5.428   1.315   2.109 -0.2352 -0.1809 -0.0541
13913TIP3    H163154   5.374   1.393   2.110 -0.0236 -0.0358  0.2519
13913TIP3    H263155   5.366   1.242   2.106 -0.5791 -0.1368  3.6932
13914TIP3   OH263156   4.121   2.287   4.942  0.2549  0.5706 -0.4580
13914TIP3    H163157   4.198   2.344   4.938  0.1595  0.8383  0.9873
13914TIP3    H263158   4.156   2.199   4.957  0.2700  0.8499  1.3220
13915TIP3   OH263159   5.851   7.032   3.111  0.3687 -0.2572 -0.4747
13915TIP3    H163160   5.862   7.126   3.120  1.0362 -0.0733 -2.7720
13915TIP3    H263161   5.770   7.012   3.157  1.1044  1.1532  1.5090
13916TIP3   OH263162   5.646   1.467   2.367 -0.2910  0.1719 -0.0412
13916TIP3    H163163   5.642   1.388   2.420  1.2206  0.1586  0.0705
13916TIP3    H263164   5.647   1.538   2.431 -1.7812  0.2990 -0.1438
13917TIP3   OH263165   3.948   1.904   4.585 -0.4665  0.1608  0.8601
13917TIP3    H163166   3.983   1.818   4.608  0.6575  0.6108  0.8607
13917TIP3    H263167   3.904   1.935   4.664  1.3022  0.6669  1.6599
13918TIP3   OH263168   4.730   3.424   3.559  0.1871  0.3653 -0.6188
13918TIP3    H163169   4.810   3.433   3.611  0.8810  0.7538 -1.7281
13918TIP3    H263170   4.667   3.482   3.601  1.3027  2.0969 -1.2812
13919TIP3   OH263171   5.517   1.991   2.588 -0.5783 -0.3655  0.2682
13919TIP3    H163172   5.467   2.042   2.652 -0.2736  0.0409  0.1829
13919TIP3    H263173   5.451   1.939   2.543 -0.6463 -1.7491  1.8893
13920TIP3   OH263174   2.237   0.276   1.967 -0.0842 -0.2002 -0.4063
13920TIP3    H163175   2.156   0.284   2.018  0.3012 -0.0563  0.1831
13920TIP3    H263176   2.286   0.206   2.009  0.1742 -0.1816 -0.6705
13921TIP3   OH263177   2.852   0.254   3.919 -0.8042 -0.1541 -0.2125
13921TIP3    H163178   2.887   0.288   4.001 -0.8694  2.4831 -1.2221
13921TIP3    H263179   2.905   0.177   3.900  0.3997  0.2620  1.3747
13922TIP3   OH263180   5.841   1.325   3.489  0.1133 -0.0226  0.7051
13922TIP3    H163181   5.813   1.381   3.417  0.6532 -1.4103 -0.6234
13922TIP3    H263182   5.858   1.385   3.561 -1.2934  1.3162 -0.0503
13923TIP3   OH263183   2.254   0.282   2.953 -0.4436 -0.1499 -0.6520
13923TIP3    H163184   2.202   0.286   3.033 -0.2145  1.1773 -0.5599
13923TIP3    H263185   2.278   0.190   2.945 -2.0878 -0.6340 -0.2405
13924TIP3   OH263186   3.832   1.686   3.752 -0.4944 -0.1594 -0.2796
13924TIP3    H163187   3.908   1.654   3.801  1.0129 -1.3549 -3.2898
13924TIP3    H263188   3.759   1.676   3.813  1.2849 -1.7265  1.6847
13925TIP3   OH263189   4.847   0.260   3.618 -0.2650  0.0304 -0.2960
13925TIP3    H163190   4.853   0.194   3.687  0.0243 -1.6968 -1.9157
13925TIP3    H263191   4.819   0.339   3.662 -2.4720 -1.6543  1.4086
13926TIP3   OH263192   4.571   6.097   3.027  0.5223 -0.5835 -0.8292
13926TIP3    H163193   4.600   6.049   3.104 -0.6428  1.2221  0.7834
13926TIP3    H263194   4.647   6.100   2.970  1.3437 -2.0961  0.1443
13927TIP3   OH263195   4.782   1.412   1.851 -0.0974 -0.2893  0.7630
13927TIP3    H163196   4.792   1.321   1.824  0.1567 -0.2932  0.8683
13927TIP3    H263197   4.859   1.430   1.905 -0.8136 -0.4202  1.8606
13928TIP3   OH263198   0.616   6.923   3.812  0.0983  0.1497 -0.1936
13928TIP3    H163199   0.609   6.874   3.731 -0.6441 -0.4987  0.2591
13928TIP3    H263200   0.541   6.983   3.811 -1.8798 -2.1986  1.5646
13929TIP3   OH263201   4.743   2.780   1.646 -0.6991 -0.0675  0.3447
13929TIP3    H163202   4.702   2.750   1.727 -1.4509  1.7523  0.6693
13929TIP3    H263203   4.833   2.800   1.671 -0.5565 -0.7935  0.4188
13930TIP3   OH263204   5.602   0.406   2.849  0.0364  0.4351 -0.2336
13930TIP3    H163205   5.684   0.450   2.874  0.5227 -1.3216  1.4421
13930TIP3    H263206   5.534   0.451   2.899  0.2611  0.6435 -0.1133
13931TIP3   OH263207   3.204   1.916   0.380  0.0819  0.2490 -0.3016
13931TIP3    H163208   3.129   1.876   0.335 -0.7710  0.2546  1.0786
13931TIP3    H263209   3.165   1.984   0.434  0.8202 -1.0921  2.0057
13932TIP3   OH263210   5.662   2.964   2.643 -0.4683 -0.1218  0.4924
13932TIP3    H163211   5.753   2.936   2.635 -0.0708  1.5039 -1.0929
13932TIP3    H263212   5.658   3.010   2.727  0.2295 -0.0417  0.4799
13933TIP3   OH263213   4.971   1.784   1.684 -0.6082  0.4228 -0.0503
13933TIP3    H163214   4.952   1.871   1.651  0.7744  0.5919 -0.4100
13933TIP3    H263215   4.889   1.736   1.674 -0.4583  0.7029 -2.9398
13934TIP3   OH263216   6.413   6.490   2.097 -0.2460 -0.0054 -0.3927
13934TIP3    H163217   6.504   6.470   2.119 -0.3576 -0.4290 -0.3120
13934TIP3    H263218   6.401   6.454   2.009 -0.3800 -0.0941 -0.3384
13935TIP3   OH263219   5.899   0.291   5.510  0.4280  0.2970  0.3708
13935TIP3    H163220   5.894   0.368   5.454 -2.1710 -0.3553 -0.3349
13935TIP3    H263221   5.886   0.324   5.598  0.0593  0.7567  0.1431
13936TIP3   OH263222   4.431   2.011   2.873 -0.2979  0.0390  0.0779
13936TIP3    H163223   4.479   2.086   2.909 -0.7098  0.3303  0.0224
13936TIP3    H263224   4.454   2.009   2.781  0.5925 -0.5791  0.3134
13937TIP3   OH263225   1.157   1.149   1.550 -0.1104 -0.0821  0.8946
13937TIP3    H163226   1.165   1.071   1.494  1.4569  0.5308  0.2341
13937TIP3    H263227   1.064   1.152   1.573 -0.4949 -1.2247 -0.4081
13938TIP3   OH263228   2.876   2.643   1.765 -0.2532  0.2578  0.6662
13938TIP3    H163229   2.858   2.558   1.805 -3.0312 -0.0064 -1.0004
13938TIP3    H263230   2.790   2.676   1.738  0.9847  2.6828 -0.5278
13939TIP3   OH263231   4.068   7.278   0.180 -0.3811 -0.3110 -0.4890
13939TIP3    H163232   4.080   7.336   0.105 -0.4719 -1.9448 -1.7843
13939TIP3    H263233   3.998   7.218   0.154 -1.1339 -0.2664  1.3040
13940TIP3   OH263234   1.256   3.252   3.617  0.5411  0.3110  0.2300
13940TIP3    H163235   1.263   3.204   3.699 -1.9169  0.8913  0.8233
13940TIP3    H263236   1.304   3.333   3.631 -0.3628  0.6681  1.3050
13941TIP3   OH263237   3.161   1.848   2.855  0.0998  0.6364  0.3827
13941TIP3    H163238   3.093   1.831   2.920 -0.1679 -1.7218 -0.4490
13941TIP3    H263239   3.136   1.930   2.814 -2.7850 -0.6256 -0.5194
13942TIP3   OH263240   4.939   1.130   3.910 -0.3310 -0.1782 -0.3031
13942TIP3    H163241   4.857   1.125   3.860 -0.4539 -1.0370 -0.0358
13942TIP3    H263242   4.939   1.050   3.963 -0.4543  0.9761  1.4820
13943TIP3   OH263243   3.851   1.341   3.463  0.4464  0.3021  0.2398
13943TIP3    H163244   3.808   1.413   3.417  1.3179  0.0741 -0.9729
13943TIP3    H263245   3.782   1.302   3.517 -1.0440 -0.4118 -2.0832
13944TIP3   OH263246   6.275   1.596   3.095  0.5627 -0.8625  0.1605
13944TIP3    H163247   6.211   1.636   3.035  1.6623  0.5058 -0.1112
13944TIP3    H263248   6.241   1.614   3.182  0.8735  0.3592  0.0289
13945TIP3   OH263249   3.839   7.046   2.988 -0.0342 -0.1631 -0.1341
13945TIP3    H163250   3.769   7.038   3.053 -0.9697  0.0855 -1.1011
13945TIP3    H263251   3.900   7.109   3.026 -1.2244  0.9730 -0.0691
13946TIP3   OH263252   4.156   0.729   2.193  0.1281  0.1042  0.0048
13946TIP3    H163253   4.218   0.800   2.209  0.0879 -0.2036  1.6059
13946TIP3    H263254   4.181   0.694   2.108  2.8136 -0.6644  1.0488
13947TIP3   OH263255   3.973   2.663   3.778  0.2809  0.4108  0.2970
13947TIP3    H163256   3.911   2.725   3.739 -0.5631 -0.7688 -0.2436
13947TIP3    H263257   3.957   2.580   3.732  2.2793  0.0935  0.1152
13948TIP3   OH263258   3.503   4.897   2.914  0.2503  0.1952 -0.2745
13948TIP3    H163259   3.432   4.886   2.851  1.2597  0.0322 -1.4034
13948TIP3    H263260   3.580   4.860   2.870  0.6663 -1.2975  1.6455
13949TIP3   OH263261   4.749   2.994   0.864 -0.4857  0.2736 -0.2677
13949TIP3    H163262   4.803   3.028   0.935 -0.6331  0.4226 -0.2253
13949TIP3    H263263   4.775   2.902   0.855 -1.2016 -0.0384  0.6800
13950TIP3   OH263264   5.632   1.219   3.606  0.1816  0.5337 -0.2163
13950TIP3    H163265   5.700   1.263   3.555 -1.3274  2.8283 -0.3735
13950TIP3    H263266   5.557   1.280   3.602 -1.1315 -0.8998  1.7691
13951TIP3   OH263267   4.223   2.085   0.320  0.1108 -0.4627 -0.0239
13951TIP3    H163268   4.250   1.996   0.297 -0.9173 -1.2188  1.5491
13951TIP3    H263269   4.155   2.107   0.257  0.3524 -0.8115 -0.4058
13952TIP3   OH263270   4.969   1.310   5.132  0.1519 -0.0305  0.4045
13952TIP3    H163271   4.941   1.306   5.223 -1.3945  0.4677 -0.0390
13952TIP3    H263272   5.023   1.389   5.127 -0.9788  0.7636  0.5671
13953TIP3   OH263273   3.034   0.649   4.914 -0.6229  0.0190 -0.4300
13953TIP3    H163274   3.044   0.743   4.902 -1.2775  0.0161 -1.0660
13953TIP3    H263275   2.946   0.639   4.951 -0.8057 -0.3842 -0.9661
13954TIP3   OH263276   4.326   2.503   2.868  0.0062 -0.6078 -0.7236
13954TIP3    H163277   4.260   2.517   2.936  0.3851 -2.0751 -0.0376
13954TIP3    H263278   4.409   2.521   2.912  0.2514 -1.5220 -0.8116
13955TIP3   OH263279   3.698   1.447   2.538  0.3525  0.8874  0.4105
13955TIP3    H163280   3.635   1.502   2.584 -0.2635 -0.8665  1.7478
13955TIP3    H263281   3.764   1.425   2.603 -0.6531 -1.8263  0.6031
13956TIP3   OH263282   4.939   2.204   5.220 -0.6449  0.6877  0.7028
13956TIP3    H163283   4.932   2.299   5.210 -2.1221  0.3793 -1.7106
13956TIP3    H263284   4.864   2.180   5.275 -0.5205  0.8583  0.9483
13957TIP3   OH263285   5.016   2.225   3.498 -0.2551 -0.5498 -0.0614
13957TIP3    H163286   4.939   2.243   3.553 -0.9042 -2.6364 -0.2614
13957TIP3    H263287   5.063   2.156   3.544  0.8554 -0.1367 -0.5674
13958TIP3   OH263288   4.688   0.038   4.480 -0.0798 -0.1845  0.2570
13958TIP3    H163289   4.648   0.028   4.567  0.4091 -2.3872  0.2535
13958TIP3    H263290   4.779   0.063   4.498 -0.2518  0.3599  0.3625
13959TIP3   OH263291   2.579   7.104   4.714 -0.4208 -0.3225  0.0186
13959TIP3    H163292   2.656   7.049   4.727 -0.0286  0.4412  0.9826
13959TIP3    H263293   2.529   7.096   4.795  0.3578  1.8474  0.7547
13960TIP3   OH263294   3.461   1.781   1.136  0.4731 -0.6563 -0.3646
13960TIP3    H163295   3.540   1.833   1.149  0.7863 -1.6287  1.8201
13960TIP3    H263296   3.414   1.826   1.065  2.0625  1.0024 -0.4027
13961TIP3   OH263297   5.550   7.303   2.879 -0.7538 -0.1151  0.3062
13961TIP3    H163298   5.543   7.350   2.962  1.5165 -0.4903  0.7220
13961TIP3    H263299   5.607   7.357   2.825 -0.1759 -1.1109 -0.1037
13962TIP3   OH263300   4.624   2.253   4.145  0.3417 -0.2313 -0.1981
13962TIP3    H163301   4.532   2.237   4.123  0.1607  0.9925 -0.3583
13962TIP3    H263302   4.630   2.233   4.239 -0.3516  0.7832  0.0719
13963TIP3   OH263303   4.295   7.120   3.695  0.0437  0.3850 -0.3692
13963TIP3    H163304   4.300   7.215   3.685 -0.3614  0.3085 -1.3095
13963TIP3    H263305   4.342   7.085   3.621 -0.2199 -0.1548 -0.2836
13964TIP3   OH263306   6.198   0.058   2.989  0.6646  0.0419  0.3173
13964TIP3    H163307   6.218  -0.027   2.951  0.0163  0.2403 -0.4702
13964TIP3    H263308   6.270   0.115   2.958  1.6576 -0.4520  1.6844
13965TIP3   OH263309   4.986   0.919   4.884 -0.0193 -0.5427  0.7168
13965TIP3    H163310   4.956   0.877   4.965 -1.9972 -0.6113 -0.0127
13965TIP3    H263311   4.905   0.939   4.837  1.1213 -1.1251 -1.5545
13966TIP3   OH263312   6.473   0.798   3.739 -0.1553 -0.3781  0.3739
13966TIP3    H163313   6.545   0.821   3.679  0.2999 -0.8603  0.7241
13966TIP3    H263314   6.484   0.858   3.813  0.3805 -1.0025  0.7985
13967TIP3   OH263315   5.610   7.300   1.441 -0.2639 -0.5019  0.2359
13967TIP3    H163316   5.611   7.219   1.493 -0.5729 -0.6411  0.0235
13967TIP3    H263317   5.583   7.272   1.354  1.4249 -0.4489 -0.3113
13968TIP3   OH263318   4.604   0.116   3.763  0.3238 -0.5179  0.8503
13968TIP3    H163319   4.595   0.046   3.828  0.8299 -0.4293  1.0229
13968TIP3    H263320   4.691   0.101   3.725  0.4179 -0.0011  0.8628
13969TIP3   OH263321   5.851   0.918   3.009 -0.0631 -0.6080 -0.8233
13969TIP3    H163322   5.907   0.995   3.014  0.1711 -0.8231  0.1201
13969TIP3    H263323   5.906   0.847   3.042 -1.1090 -0.7054  0.7516
13970TIP3   OH263324   5.515   0.674   4.654 -0.4261  0.5335 -0.2207
13970TIP3    H163325   5.541   0.606   4.716 -4.2913 -1.6737 -0.8499
13970TIP3    H263326   5.542   0.641   4.569 -2.8903 -0.6259 -0.6027
13971TIP3   OH263327   5.302   6.635   1.646 -0.6260 -0.4222 -0.3420
13971TIP3    H163328   5.216   6.651   1.607 -1.0505 -1.8919 -0.0332
13971TIP3    H263329   5.300   6.679   1.731 -0.9040 -0.0712 -0.5318
13972TIP3   OH263330   6.230   2.563   4.522 -0.4749 -0.6369 -1.0217
13972TIP3    H163331   6.163   2.609   4.572  2.2073  1.7498  0.4584
13972TIP3    H263332   6.258   2.491   4.579  0.6483  0.4573 -0.1615
13973TIP3   OH263333   6.608   6.860   3.446  0.6286  0.1077  0.2757
13973TIP3    H163334   6.603   6.940   3.499  0.0237 -0.8139  1.6384
13973TIP3    H263335   6.585   6.789   3.507  1.3132 -1.1273 -0.8707
13974TIP3   OH263336   5.536   1.498   5.395  0.0555 -0.0789 -0.2330
13974TIP3    H163337   5.546   1.508   5.490 -0.4032 -1.3853 -0.0321
13974TIP3    H263338   5.474   1.426   5.385  0.3243 -0.1483 -1.5315
13975TIP3   OH263339   4.441   6.238   3.285  0.3015 -0.7521 -0.4654
13975TIP3    H163340   4.520   6.259   3.334 -1.0389  4.2243 -0.1955
13975TIP3    H263341   4.397   6.171   3.338  2.5742 -1.0084  1.1619
13976TIP3   OH263342   4.493   6.647   2.543  0.4169  0.1571  0.2798
13976TIP3    H163343   4.501   6.728   2.492 -1.7556  1.2046  1.5202
13976TIP3    H263344   4.433   6.670   2.614 -1.3382 -2.9555 -0.1388
13977TIP3   OH263345   5.338   6.288   0.622 -0.1748  0.0643 -0.6260
13977TIP3    H163346   5.272   6.244   0.568 -1.3007  0.0923  0.6880
13977TIP3    H263347   5.300   6.373   0.641 -0.0789 -0.1804  0.7162
13978TIP3   OH263348   3.529   6.760   3.960  0.1067 -0.1305  0.0930
13978TIP3    H163349   3.600   6.783   4.020 -0.2605 -1.1750  0.9435
13978TIP3    H263350   3.462   6.723   4.017 -0.4544 -0.6491 -0.9150
13979TIP3   OH263351   6.578   1.614   3.099 -0.5220 -0.4693 -0.2198
13979TIP3    H163352   6.488   1.601   3.071 -0.2957 -1.4756 -0.5094
13979TIP3    H263353   6.627   1.546   3.053  0.7987  1.6987 -2.1578
13980TIP3   OH263354   4.036   6.597   2.778  0.2519  0.1186  0.3548
13980TIP3    H163355   3.988   6.675   2.806  1.0222  0.8299 -0.2624
13980TIP3    H263356   4.123   6.630   2.754  0.0202 -0.6360 -1.6709
13981TIP3   OH263357   5.608   0.930   4.605  0.0069 -0.0154  0.0151
13981TIP3    H163358   5.581   1.003   4.661 -0.5311  0.0954 -0.3817
13981TIP3    H263359   5.563   0.854   4.643  1.0231 -0.2421  0.7717
13982TIP3   OH263360   0.098   2.435   2.667  0.1287 -0.0633  0.0424
13982TIP3    H163361   0.075   2.346   2.639 -0.5237  0.0027  0.3775
13982TIP3    H263362   0.166   2.423   2.733 -0.5010 -0.3494  0.6447
13983TIP3   OH263363   5.822   0.425   0.910 -0.0078 -0.1815  0.0222
13983TIP3    H163364   5.864   0.342   0.931 -0.2899 -0.1378  0.7919
13983TIP3    H263365   5.893   0.489   0.911 -0.1098 -0.0581  1.6099
13984TIP3   OH263366   6.826   7.082   4.937  0.5464  0.3322 -0.4348
13984TIP3    H163367   6.831   7.112   5.028  1.4812  1.7461 -0.9410
13984TIP3    H263368   6.852   7.158   4.885  1.4849 -0.9075 -1.8204
13985TIP3   OH263369   2.114   1.855   3.435 -0.1381  0.1468  0.2664
13985TIP3    H163370   2.045   1.800   3.474 -2.3498  1.6484 -1.4162
13985TIP3    H263371   2.095   1.943   3.468  2.0290  0.3046  1.1404
13986TIP3   OH263372   4.155   1.683   2.842  0.7010  0.2910  0.1611
13986TIP3    H163373   4.222   1.719   2.784  1.3876 -1.0678  0.0972
13986TIP3    H263374   4.196   1.607   2.883 -0.2117  0.4753  1.4573
13987TIP3   OH263375   5.788   0.821   3.318  0.1493 -0.1581 -0.3231
13987TIP3    H163376   5.820   0.908   3.340  0.0384  0.4288 -2.3346
13987TIP3    H263377   5.855   0.785   3.259 -0.6524 -0.7123 -0.9141
13988TIP3   OH263378   4.254   1.727   5.318 -0.4352  0.4996  0.0103
13988TIP3    H163379   4.184   1.666   5.342 -0.6143  0.8234  0.3222
13988TIP3    H263380   4.237   1.805   5.371  2.0192 -0.5840  2.5702
13989TIP3   OH263381   2.962   0.577   1.431 -0.1072 -0.7250 -0.9980
13989TIP3    H163382   2.882   0.529   1.452  0.2441 -1.1248 -0.5205
13989TIP3    H263383   2.979   0.557   1.339 -2.4743  2.2264 -2.1465
13990TIP3   OH263384   4.835   5.844   1.287 -0.1612 -0.4773  0.3865
13990TIP3    H163385   4.765   5.854   1.352 -0.7883 -1.9747 -0.0266
13990TIP3    H263386   4.801   5.887   1.208  0.0796  0.2588  0.6872
13991TIP3   OH263387   4.619   6.478   0.278 -0.0302 -0.5663  0.2706
13991TIP3    H163388   4.552   6.409   0.279 -1.9445  1.1835 -2.0588
13991TIP3    H263389   4.679   6.451   0.209 -0.3959 -0.2228 -0.1757
13992TIP3   OH263390   4.760   1.121   1.974  0.1661  0.2438 -0.2588
13992TIP3    H163391   4.821   1.057   2.010  1.1203  1.2742 -0.0112
13992TIP3    H263392   4.733   1.174   2.048  0.2478  0.8317 -0.6432
13993TIP3   OH263393   6.412   2.142   4.434  0.5377 -0.0336  0.4199
13993TIP3    H163394   6.451   2.203   4.496 -1.7671  0.1765  1.7253
13993TIP3    H263395   6.380   2.197   4.363  1.2041 -0.0426  0.1128
13994TIP3   OH263396   6.338   4.662   5.520 -0.6225 -0.0932 -0.6012
13994TIP3    H163397   6.279   4.627   5.453 -0.5273 -0.3757 -0.5410
13994TIP3    H263398   6.353   4.752   5.494 -3.3798  0.8881  0.9501
13995TIP3   OH263399   5.233   5.977   0.258  0.0600 -0.2747 -0.1688
13995TIP3    H163400   5.281   5.983   0.341  0.9139  1.6667 -0.7651
13995TIP3    H263401   5.191   6.062   0.249 -0.3722 -0.6249 -1.5228
13996TIP3   OH263402   5.216   5.515   3.935  0.4617 -0.0144  0.1825
13996TIP3    H163403   5.262   5.573   3.995  0.5818 -1.2080  1.2677
13996TIP3    H263404   5.241   5.427   3.963 -1.6953 -0.6615  0.1372
13997TIP3   OH263405   4.595   0.626   3.590 -0.4402  0.8384 -0.5723
13997TIP3    H163406   4.521   0.582   3.547  0.1083 -0.1368 -0.5525
13997TIP3    H263407   4.595   0.590   3.679 -0.7273  1.8072 -0.1811
13998TIP3   OH263408   4.407   0.708   3.351  0.2471 -0.1544  0.4349
13998TIP3    H163409   4.475   0.700   3.284 -0.6509  0.3407 -0.5343
13998TIP3    H263410   4.361   0.788   3.329 -1.1935 -0.9332  0.6012
13999TIP3   OH263411   3.364   6.268   4.644 -0.0951 -0.3911 -0.0030
13999TIP3    H163412   3.272   6.243   4.648  0.1308 -1.0747  1.4847
13999TIP3    H263413   3.365   6.359   4.674 -0.3515 -0.1723 -0.6444
14000TIP3   OH263414   2.382   7.296   5.058  0.3605  0.0018  0.8986
14000TIP3    H163415   2.308   7.342   5.097 -0.5112 -0.6520  0.0412
14000TIP3    H263416   2.424   7.362   5.002 -0.4611 -0.0271  0.2313
14001TIP3   OH263417   5.440   1.356   1.810 -0.3466  0.3131  0.1068
14001TIP3    H163418   5.479   1.343   1.897 -1.4553  1.8649  0.8576
14001TIP3    H263419   5.497   1.421   1.768  0.8369 -1.2638 -0.7752
14002TIP3   OH263420   3.690   0.344   5.701 -0.0827  0.8205 -0.2065
14002TIP3    H163421   3.678   0.282   5.629 -0.8652 -0.6423  1.1344
14002TIP3    H263422   3.635   0.419   5.677 -2.9261 -0.9949  0.3327
14003TIP3   OH263423   3.231   1.844   4.547  0.2690 -0.1581  0.0303
14003TIP3    H163424   3.262   1.785   4.479 -1.2351 -0.9565 -0.0018
14003TIP3    H263425   3.227   1.790   4.626 -0.2289  0.1359  0.2103
14004TIP3   OH263426   4.215   0.236   2.890  0.0047  0.0410  0.1070
14004TIP3    H163427   4.176   0.314   2.851 -1.1232 -0.0937  0.9291
14004TIP3    H263428   4.221   0.256   2.983 -0.1344 -0.7787  0.2977
14005TIP3   OH263429   5.988   6.338   3.393  0.3222 -0.4934  0.2376
14005TIP3    H163430   5.954   6.271   3.334  0.8100 -1.9107  1.5310
14005TIP3    H263431   6.054   6.293   3.444 -1.1437  0.2924  2.9181
14006TIP3   OH263432   3.725   0.824   2.868 -0.3876 -0.0992 -0.1425
14006TIP3    H163433   3.631   0.834   2.885 -0.3653 -0.4101  0.1640
14006TIP3    H263434   3.737   0.856   2.778 -0.5452  1.3837  0.3398
14007TIP3   OH263435   4.873   1.918   3.054  0.8405 -0.3591 -0.5407
14007TIP3    H163436   4.873   1.856   3.127  0.9347 -0.9347 -1.0277
14007TIP3    H263437   4.965   1.925   3.029  0.8371  0.0217 -0.4556
14008TIP3   OH263438   4.263   0.125   3.237 -0.0628  0.7258  0.1631
14008TIP3    H163439   4.234   0.212   3.209  2.6359  2.1562  1.5129
14008TIP3    H263440   4.349   0.115   3.197 -0.8183 -1.8652 -0.8948
14009TIP3   OH263441   4.257   3.234   3.944 -0.2761  0.2361 -0.3462
14009TIP3    H163442   4.335   3.270   3.902  1.4893 -0.7369  2.0048
14009TIP3    H263443   4.241   3.152   3.899  0.5016  0.1012 -0.3878
14010TIP3   OH263444   3.243   0.882   2.690 -0.0908  0.9235 -0.3167
14010TIP3    H163445   3.153   0.897   2.720  0.1350 -0.3945  1.0471
14010TIP3    H263446   3.242   0.792   2.657  0.7616  0.8728 -0.1927
14011TIP3   OH263447   5.885   0.655   3.764  0.1706 -0.5299  0.4283
14011TIP3    H163448   5.868   0.749   3.773  1.0433 -0.3824  0.6225
14011TIP3    H263449   5.954   0.638   3.828 -0.9346 -1.5777  1.3513
14012TIP3   OH263450   7.121   0.766   5.277 -0.5095 -0.0397 -0.5646
14012TIP3    H163451   7.110   0.853   5.238  1.6037 -0.0570 -1.2740
14012TIP3    H263452   7.121   0.781   5.371 -1.4632  0.5411 -0.6466
14013TIP3   OH263453   6.505   6.889   5.174  0.6521  0.7028 -0.2425
14013TIP3    H163454   6.472   6.968   5.132 -0.4165  0.9972  1.1298
14013TIP3    H263455   6.552   6.843   5.104 -1.4643  0.9501 -1.8867
14014TIP3   OH263456   1.692   2.119   3.499  0.3051 -0.0011  0.2087
14014TIP3    H163457   1.765   2.177   3.474  0.7499 -0.5573  0.1981
14014TIP3    H263458   1.731   2.032   3.500 -0.5796 -0.4118 -0.6873
14015TIP3   OH263459   2.738   1.842   4.153  0.3381 -0.8465  0.2440
14015TIP3    H163460   2.826   1.810   4.134  0.6095  1.2444 -2.3960
14015TIP3    H263461   2.708   1.880   4.070 -1.7679  1.3797  1.9366
14016TIP3   OH263462   6.301   2.635   5.119  0.0334  0.2832 -0.2442
14016TIP3    H163463   6.209   2.644   5.143 -0.0302 -1.5979  0.2920
14016TIP3    H263464   6.325   2.547   5.147  1.8837  0.5851 -0.7822
14017TIP3   OH263465   3.273   3.482   3.195 -0.2022 -0.5486 -0.2171
14017TIP3    H163466   3.291   3.450   3.284  2.2133  1.5277  0.1124
14017TIP3    H263467   3.212   3.555   3.208  1.1172  0.5660 -0.0859
14018TIP3   OH263468   5.138   0.892   4.112 -0.4415  0.3682  0.2420
14018TIP3    H163469   5.127   0.954   4.183 -0.7235 -0.9622  1.3872
14018TIP3    H263470   5.052   0.851   4.103  0.4375 -1.8029  1.3694
14019TIP3   OH263471   3.318   7.152   4.105 -0.1083 -0.2756 -0.0278
14019TIP3    H163472   3.299   7.076   4.050 -0.7100 -0.9168  1.0634
14019TIP3    H263473   3.398   7.189   4.067 -0.8585 -0.3291 -1.7320
14020TIP3   OH263474   6.325   3.253   4.416 -0.5672 -0.0620 -0.0245
14020TIP3    H163475   6.374   3.325   4.377  0.6294 -0.4212  0.7670
14020TIP3    H263476   6.267   3.295   4.480 -1.2517  0.3600 -0.9108
14021TIP3   OH263477   3.172   1.613   5.161  0.2629  0.5471  0.0782
14021TIP3    H163478   3.227   1.603   5.239 -0.9043  0.7645  0.9351
14021TIP3    H263479   3.103   1.673   5.188 -0.1883  0.5628 -1.1090
14022TIP3   OH263480   5.124   0.426   1.895 -0.3002 -0.4411  0.0865
14022TIP3    H163481   5.131   0.470   1.980 -0.2885  0.3279 -0.3118
14022TIP3    H263482   5.206   0.376   1.888  0.6317  1.1310 -0.3895
14023TIP3   OH263483   4.630   1.082   2.838 -0.4817  0.1712  0.8816
14023TIP3    H163484   4.538   1.094   2.815 -0.2473  0.8270  0.2658
14023TIP3    H263485   4.646   1.146   2.907 -0.6189 -0.3076  1.3639
14024TIP3   OH263486   3.471   7.056   5.139 -0.4865  0.3746 -0.1567
14024TIP3    H163487   3.392   7.037   5.189  0.2781  0.0655  0.9615
14024TIP3    H263488   3.485   7.150   5.151 -1.1796  0.6048 -1.1041
14025TIP3   OH263489   4.765   1.556   2.963 -0.1548 -0.0737  0.4918
14025TIP3    H163490   4.841   1.608   2.988 -0.6997 -0.1248  2.3263
14025TIP3    H263491   4.690   1.612   2.983 -0.6284  0.2428 -1.9178
14026TIP3   OH263492   4.228   1.028   1.180 -0.6649  0.3670  0.4897
14026TIP3    H163493   4.158   1.006   1.241 -1.3813  1.7777  0.1998
14026TIP3    H263494   4.183   1.049   1.098  0.1431  0.5108  0.0746
14027TIP3   OH263495   2.115   6.943   1.477 -0.6350  0.0898 -0.2669
14027TIP3    H163496   2.137   6.972   1.565 -1.1857 -0.5385  0.0823
14027TIP3    H263497   2.150   7.011   1.420 -0.7881  0.7948  0.4688
14028TIP3   OH263498   5.948   0.145   5.038 -0.4316 -0.3541  0.6402
14028TIP3    H163499   5.932   0.153   5.133 -0.1092  0.5296  0.6217
14028TIP3    H263500   5.925   0.231   5.003 -0.3074 -0.6041 -0.0558
14029TIP3   OH263501   4.743   1.137   2.348  0.4607  0.1049 -0.0599
14029TIP3    H163502   4.753   1.183   2.432 -1.5942 -0.3789  0.4852
14029TIP3    H263503   4.753   1.205   2.282  2.1012  0.4938  0.5838
14030TIP3   OH263504   4.828   7.272   3.722  0.2764  0.6941 -0.3166
14030TIP3    H163505   4.786   7.186   3.719  0.9798  0.3975 -2.2009
14030TIP3    H263506   4.921   7.252   3.736  0.5110  1.1339 -1.2506
14031TIP3   OH263507   2.983   0.976   2.731  0.2571 -0.3136  0.0921
14031TIP3    H163508   2.928   0.911   2.776  1.0584 -0.7395  0.4738
14031TIP3    H263509   2.945   0.983   2.644  0.5858 -1.8413 -0.1936
14032TIP3   OH263510   4.900   7.076   0.350  0.2189 -0.0521 -0.4728
14032TIP3    H163511   4.824   7.068   0.409  1.4051  2.2536  1.4739
14032TIP3    H263512   4.940   6.989   0.351 -0.4069 -0.3547  1.2990
14033TIP3   OH263513   2.815   2.440   0.496 -0.1081 -0.0372  1.0500
14033TIP3    H163514   2.783   2.479   0.577  1.7313 -2.1687  2.8593
14033TIP3    H263515   2.909   2.458   0.496 -0.1638  0.3336 -0.8543
14034TIP3   OH263516   4.219   0.536   2.397 -0.0252  0.0106 -0.4860
14034TIP3    H163517   4.307   0.573   2.403 -0.6700  1.4521  0.3204
14034TIP3    H263518   4.172   0.596   2.340 -0.4034 -0.9163 -1.1456
14035TIP3   OH263519   4.711   5.176   5.269  0.2716 -0.6311  0.0416
14035TIP3    H163520   4.791   5.155   5.318  1.8619  2.8140 -0.9063
14035TIP3    H263521   4.730   5.147   5.179  1.0447  1.3785 -0.4752
14036TIP3   OH263522   3.809   5.368   4.174 -0.9634 -0.4127 -0.0924
14036TIP3    H163523   3.776   5.430   4.109 -2.1567 -0.7345  0.1930
14036TIP3    H263524   3.847   5.297   4.123  0.4822  0.5573 -0.4267
14037TIP3   OH263525   3.923   0.756   2.344 -0.2282 -0.4929 -0.0812
14037TIP3    H163526   3.981   0.734   2.417  0.3641 -1.0163 -0.7060
14037TIP3    H263527   3.982   0.764   2.269 -0.5350  2.2060 -0.0939
14038TIP3   OH263528   5.179   2.838   4.307 -0.0011 -0.0347  0.0493
14038TIP3    H163529   5.085   2.827   4.289 -0.0600  1.0749 -0.3569
14038TIP3    H263530   5.223   2.783   4.242 -0.3393  0.2840 -0.4501
14039TIP3   OH263531   4.559   7.064   3.150  0.2816  0.3859 -0.0346
14039TIP3    H163532   4.536   7.014   3.072 -0.2740  0.6960 -0.0782
14039TIP3    H263533   4.475   7.095   3.185  0.4470 -0.5409  1.2285
14040TIP3   OH263534   2.291   2.786   2.792 -0.0985  0.1100  0.2685
14040TIP3    H163535   2.353   2.853   2.820 -1.0704  1.2858 -0.3586
14040TIP3    H263536   2.235   2.772   2.868  0.8243 -0.8510  0.7888
14041TIP3   OH263537   5.830   6.271   0.661  0.0971  0.1253 -0.0395
14041TIP3    H163538   5.742   6.300   0.686 -0.7443 -1.8044 -0.6430
14041TIP3    H263539   5.846   6.314   0.577 -0.7005 -0.3200 -0.4253
14042TIP3   OH263540   4.116   0.492   2.828 -0.3597 -0.1054 -0.3999
14042TIP3    H163541   4.025   0.465   2.820 -0.4554  0.5582 -1.6367
14042TIP3    H263542   4.116   0.554   2.901 -1.2637  1.4307 -1.6732
14043TIP3   OH263543   1.600   7.196   3.974  0.6069  0.0918 -0.4650
14043TIP3    H163544   1.682   7.200   4.023  1.0401 -1.0464 -1.0945
14043TIP3    H263545   1.536   7.238   4.032  1.3793 -0.0834  0.5244
14044TIP3   OH263546   4.983   0.288   2.369 -0.6251 -0.9937  0.7407
14044TIP3    H163547   5.018   0.296   2.458 -0.5432 -1.8546  0.7836
14044TIP3    H263548   4.916   0.357   2.364 -1.0725 -1.3477  1.6754
14045TIP3   OH263549   4.834   1.406   5.385 -0.1560  0.3763  0.2663
14045TIP3    H163550   4.777   1.421   5.309 -1.7758  0.7457  1.5139
14045TIP3    H263551   4.785   1.443   5.459  0.8959 -0.9583  1.6623
14046TIP3   OH263552   7.028   0.113   4.240  0.1396 -0.3172  0.4136
14046TIP3    H163553   6.987   0.158   4.314  1.9685 -1.5166  2.2142
14046TIP3    H263554   6.984   0.028   4.237 -0.9950  0.2918 -0.8847
14047TIP3   OH263555   7.004   1.667   0.968  0.1115 -0.1156 -0.1660
14047TIP3    H163556   6.997   1.593   0.908 -0.2848 -0.6289  0.5037
14047TIP3    H263557   7.056   1.634   1.041 -0.2465  0.1931  0.2347
14048TIP3   OH263558   6.083   2.617   1.151  0.8558 -0.0182 -0.1911
14048TIP3    H163559   6.033   2.698   1.137  0.5836 -0.0777  0.3941
14048TIP3    H263560   6.082   2.606   1.246  2.2333  0.1261 -0.1575
14049TIP3   OH263561   0.394   3.681   1.303  0.1644 -0.0126  0.0023
14049TIP3    H163562   0.349   3.765   1.317 -0.0330 -0.3472  1.5215
14049TIP3    H263563   0.341   3.636   1.238 -0.5390  0.4468  0.2504
14050TIP3   OH263564   6.581   2.175   3.542  0.0324  1.2856 -0.0201
14050TIP3    H163565   6.495   2.193   3.505  0.5802  0.8342 -1.5262
14050TIP3    H263566   6.642   2.194   3.472  1.0641  0.1734  0.5537
14051TIP3   OH263567   5.353   6.986   0.878 -0.1985 -0.2258  0.3034
14051TIP3    H163568   5.293   7.002   0.951 -0.5010 -0.0448  0.0170
14051TIP3    H263569   5.302   6.936   0.815  0.6207 -1.9797  1.0134
14052TIP3   OH263570   4.276   0.667   2.682 -0.2723 -0.3203 -0.4055
14052TIP3    H163571   4.227   0.603   2.733 -0.5416  0.7455  0.7285
14052TIP3    H263572   4.211   0.707   2.625 -0.1693 -0.8328 -0.8797
14053TIP3   OH263573   7.029   1.787   2.663  0.0647 -0.4048 -0.0773
14053TIP3    H163574   7.023   1.726   2.736 -0.8166 -0.9791 -0.6272
14053TIP3    H263575   7.037   1.873   2.704 -0.3313 -0.7313  0.6906
14054TIP3   OH263576   7.073   0.115   2.254 -0.0291  0.3653  0.4683
14054TIP3    H163577   7.020   0.061   2.195  0.4323  1.3175 -0.8367
14054TIP3    H263578   7.029   0.108   2.338 -1.5841  0.2247 -0.3302
14055TIP3   OH263579   3.690   5.840   2.025 -0.4683  0.2136 -0.7314
14055TIP3    H163580   3.732   5.911   1.976  0.2570  0.1059 -0.2711
14055TIP3    H263581   3.699   5.867   2.117  2.5992 -1.9689 -0.3310
14056TIP3   OH263582   0.064   2.493   3.162 -0.4027  0.2813 -0.0172
14056TIP3    H163583   0.025   2.413   3.127  1.5728 -0.2286 -1.1213
14056TIP3    H263584   0.158   2.476   3.161 -0.1597  0.8257  4.1817
14057TIP3   OH263585   4.854   1.409   2.769 -0.5663 -0.1643  0.1677
14057TIP3    H163586   4.936   1.376   2.808  0.2339  2.1468  0.5313
14057TIP3    H263587   4.810   1.454   2.841 -1.2559  0.2460 -0.5025
14058TIP3   OH263588   6.286   0.947   1.332  0.3479 -0.2905  0.0143
14058TIP3    H163589   6.276   0.925   1.425  0.3822 -0.8722 -0.1194
14058TIP3    H263590   6.274   1.042   1.329 -0.9109 -0.4196  0.4542
14059TIP3   OH263591   6.618   0.849   3.521 -0.8238 -1.0533 -0.6586
14059TIP3    H163592   6.667   0.844   3.439 -0.2608 -1.0535 -0.3236
14059TIP3    H263593   6.664   0.915   3.573 -2.3376  0.3907 -1.1048
14060TIP3   OH263594   6.780   1.416   2.703  0.0574 -0.2898  0.1541
14060TIP3    H163595   6.791   1.422   2.798 -0.6631 -0.5298  0.2538
14060TIP3    H263596   6.856   1.365   2.674  2.4995  3.1800  0.1166
14061TIP3   OH263597   0.491   3.430   4.266  0.1089  0.2087 -0.8085
14061TIP3    H163598   0.465   3.341   4.288 -1.8944  1.3644  1.6650
14061TIP3    H263599   0.562   3.451   4.327  0.3639  0.4206 -1.1726
14062TIP3   OH263600   0.898   0.751   0.968  0.8641 -0.0662  0.2147
14062TIP3    H163601   0.803   0.747   0.958  0.9362 -1.9000  0.1445
14062TIP3    H263602   0.924   0.661   0.988  2.5851  0.4238  0.2548
14063TIP3   OH263603   6.203   0.743   3.671 -0.2382 -0.4272  0.9400
14063TIP3    H163604   6.294   0.772   3.676  0.6858 -2.9169 -0.6087
14063TIP3    H263605   6.176   0.734   3.763  1.1669 -0.0392  1.4085
14064TIP3   OH263606   0.091   2.685   3.993 -0.8834 -0.2581  0.1366
14064TIP3    H163607   0.063   2.662   3.905  0.1659 -2.8476  0.4467
14064TIP3    H263608   0.027   2.751   4.022 -1.5393  0.2268 -2.3323
14065TIP3   OH263609   6.942   0.386   2.784 -0.2016  0.0070  0.1711
14065TIP3    H163610   6.966   0.367   2.874  1.6146  0.4282 -0.2106
14065TIP3    H263611   7.011   0.344   2.731 -0.8987  0.2971 -0.9973
14066TIP3   OH263612   0.494   0.906   2.875 -0.1239  0.1645  0.2119
14066TIP3    H163613   0.523   0.828   2.921  1.2579  0.8898  0.5857
14066TIP3    H263614   0.407   0.884   2.843 -0.3315 -1.0090  1.5550
14067TIP3   OH263615   5.396   1.199   1.479 -0.6678 -0.4510  0.1866
14067TIP3    H163616   5.486   1.223   1.458 -1.2597  0.9677 -0.7760
14067TIP3    H263617   5.390   1.107   1.453  0.5680 -0.6175  0.4657
14068TIP3   OH263618   7.122   0.995   2.844 -0.1578  0.0859 -0.1745
14068TIP3    H163619   7.087   0.911   2.874  0.6406 -0.7070 -1.4298
14068TIP3    H263620   7.146   0.980   2.753 -0.4408  1.8208 -0.5523
14069TIP3   OH263621   6.480   1.764   2.629  0.1055  0.2518  0.2857
14069TIP3    H163622   6.539   1.748   2.703 -0.7803  0.9184  1.1497
14069TIP3    H263623   6.399   1.718   2.651  0.4380 -1.0442 -1.1108
14070TIP3   OH263624   6.086   0.893   0.965 -0.4925 -1.3175 -0.2410
14070TIP3    H163625   6.156   0.919   0.905 -0.2623  0.5925  0.8065
14070TIP3    H263626   6.131   0.839   1.031 -0.5728 -2.6037 -1.2146
14071TIP3   OH263627   4.882   6.649   3.895 -0.1240 -0.3192 -0.0679
14071TIP3    H163628   4.917   6.738   3.902  0.3586 -0.3284 -2.1481
14071TIP3    H263629   4.792   6.656   3.927  0.6044  0.4230  1.9653
14072TIP3   OH263630   5.019   1.819   3.387  0.1848  0.3186 -0.1022
14072TIP3    H163631   4.983   1.905   3.367 -0.2905  0.4058  1.0624
14072TIP3    H263632   5.043   1.782   3.302 -0.4699  1.2255 -0.6897
14073TIP3   OH263633   6.479   0.969   5.487 -0.6265 -0.1844  0.0137
14073TIP3    H163634   6.519   0.941   5.404  0.7491  0.9175  0.2758
14073TIP3    H263635   6.508   0.903   5.550  1.4406  0.9839  0.3443
14074TIP3   OH263636   0.784   2.583   2.428  0.7367  0.0054 -0.3676
14074TIP3    H163637   0.761   2.660   2.376  1.5419  0.4856 -0.0215
14074TIP3    H263638   0.721   2.516   2.401  0.2741  0.6692 -0.9484
14075TIP3   OH263639   5.659   7.221   3.285 -0.2206  0.3169 -0.4841
14075TIP3    H163640   5.597   7.148   3.281  1.1116 -0.8257 -0.7342
14075TIP3    H263641   5.640   7.264   3.369 -2.7709  1.3043 -1.5071
14076TIP3   OH263642   0.528   7.134   1.429 -0.0613  0.3078  0.1846
14076TIP3    H163643   0.526   7.111   1.522 -0.0028 -0.5082 -0.0161
14076TIP3    H263644   0.606   7.189   1.420  0.9703 -1.1149  0.2757
14077TIP3   OH263645   5.841   2.073   4.140  0.0989  0.5672  0.9764
14077TIP3    H163646   5.790   2.084   4.060  2.0296  2.3667 -0.0842
14077TIP3    H263647   5.872   1.983   4.137 -1.8135 -0.1022  0.9204
14078TIP3   OH263648   5.857   2.242   0.959  0.3410  0.9190 -0.4874
14078TIP3    H163649   5.923   2.292   0.911  0.8367 -0.0417 -0.8087
14078TIP3    H263650   5.774   2.285   0.937  0.9258  2.6341  0.5471
14079TIP3   OH263651   6.847   2.537   2.633  0.3108 -0.6022  0.2534
14079TIP3    H163652   6.933   2.499   2.648  0.1905 -1.2197 -0.5925
14079TIP3    H263653   6.865   2.625   2.599  0.6405 -1.2574 -1.3245
14080TIP3   OH263654   6.876   0.466   2.303 -0.0303 -0.3479  0.4897
14080TIP3    H163655   6.924   0.409   2.364  2.8051  1.0518 -0.3641
14080TIP3    H263656   6.835   0.531   2.360  0.8871 -0.2753  1.0908
14081TIP3   OH263657   6.772   1.138   5.534  0.2962  0.0701 -0.3185
14081TIP3    H163658   6.744   1.226   5.559 -3.2059 -0.2864 -2.5501
14081TIP3    H263659   6.722   1.079   5.590 -0.5261 -0.5252 -1.6341
14082TIP3   OH263660   4.702   0.954   4.780  0.3259 -0.1041  0.2465
14082TIP3    H163661   4.637   1.023   4.795 -0.3462 -0.2541 -1.8067
14082TIP3    H263662   4.674   0.882   4.836  0.0522  0.6714  1.1220
14083TIP3   OH263663   0.310   2.712   3.539  0.1577 -0.4022  0.3213
14083TIP3    H163664   0.348   2.765   3.610 -0.1879 -0.1473  0.3151
14083TIP3    H263665   0.257   2.774   3.489  0.8589 -0.4522 -0.4990
14084TIP3   OH263666   6.661   2.438  15.950  0.0437  0.0567  0.6475
14084TIP3    H163667   6.692   2.463  16.037 -2.7681 -0.6367  1.9291
14084TIP3    H263668   6.603   2.510  15.924  1.2507  0.4950 -0.8920
14085TIP3   OH263669   4.091   0.042   2.630  0.1493 -0.0673  0.2952
14085TIP3    H163670   4.118  -0.041   2.669  0.6739  0.2748  0.6674
14085TIP3    H263671   4.172   0.092   2.622 -0.2443  0.6184  0.5788
14086TIP3   OH263672   6.461   0.155   2.384 -0.0298  0.3400  0.0217
14086TIP3    H163673   6.405   0.091   2.428 -0.5471 -0.9127 -2.3755
14086TIP3    H263674   6.537   0.164   2.441 -2.0657  1.1157  2.6906
14087TIP3   OH263675   5.823   2.628  15.721 -0.2255  0.2094  0.2739
14087TIP3    H163676   5.773   2.709  15.708 -0.2168 -0.0424 -1.4887
14087TIP3    H263677   5.914   2.654  15.709 -0.1805  0.0676  0.3183
14088TIP3   OH263678   5.519   2.367   2.407 -0.1832 -0.0645  0.1096
14088TIP3    H163679   5.424   2.355   2.405 -0.1353 -0.4357 -0.0285
14088TIP3    H263680   5.534   2.425   2.482 -0.3718 -1.5388  1.3171
14089TIP3   OH263681   4.161   2.245   4.242 -0.1667  0.0695  0.2514
14089TIP3    H163682   4.135   2.330   4.278  0.7809  0.9166 -1.0065
14089TIP3    H263683   4.078   2.201   4.223 -0.6803  1.0763  0.1020
14090TIP3   OH263684   0.165   6.728   1.287 -0.5171 -0.0878 -0.3639
14090TIP3    H163685   0.143   6.801   1.229 -1.4633 -0.8142 -0.9277
14090TIP3    H263686   0.244   6.757   1.333 -0.7972  1.2256 -0.6947
14091TIP3   OH263687   6.844   1.309   3.469 -0.0197 -0.1898  0.3058
14091TIP3    H163688   6.874   1.333   3.557  1.0120 -1.0989  0.2207
14091TIP3    H263689   6.749   1.299   3.477 -0.2628  2.1308  0.7336
14092TIP3   OH263690   5.706   1.402   2.940 -0.0636  0.1629 -0.5558
14092TIP3    H163691   5.704   1.319   2.893  1.8986 -0.1751 -0.1118
14092TIP3    H263692   5.795   1.435   2.926  0.1498  0.6883  1.7685
14093TIP3   OH263693   5.432   6.503   3.506 -0.5149  0.0212  0.0593
14093TIP3    H163694   5.463   6.444   3.574  1.7634  0.6333 -0.4157
14093TIP3    H263695   5.400   6.580   3.554  1.7626  0.7612  0.4305
14094TIP3   OH263696   6.918   0.468   1.012 -0.0429 -0.3082  0.4481
14094TIP3    H163697   6.841   0.497   0.962  1.6660  0.4256 -1.8545
14094TIP3    H263698   6.888   0.465   1.103 -2.3555  1.4667 -0.2041
14095TIP3   OH263699   6.355   1.605   4.761  0.7481 -0.0450  0.2677
14095TIP3    H163700   6.416   1.564   4.822  1.1025 -0.2127 -0.1935
14095TIP3    H263701   6.324   1.533   4.706 -0.5965 -0.1284  1.1013
14096TIP3   OH263702   7.238   7.228   3.339  0.5574  0.1127 -0.6078
14096TIP3    H163703   7.148   7.200   3.324  0.5876  0.0081 -0.5889
14096TIP3    H263704   7.283   7.211   3.256  0.7703 -0.6496 -0.3379
14097TIP3   OH263705   6.674   2.204   1.948 -0.0542  0.0124 -0.4305
14097TIP3    H163706   6.752   2.251   1.980 -0.2627 -0.0095  0.1038
14097TIP3    H263707   6.709   2.130   1.899  0.2720  0.3214 -0.6661
14098TIP3   OH263708   5.782   6.600   2.312 -0.2292 -0.0925  0.8168
14098TIP3    H163709   5.779   6.618   2.406 -0.5411 -1.3445  1.0515
14098TIP3    H263710   5.764   6.685   2.271 -1.7340  0.1325  1.8991
14099TIP3   OH263711   0.273   0.817   2.611  0.0469 -0.0051 -0.0538
14099TIP3    H163712   0.244   0.906   2.632 -1.1296 -0.4338  0.1909
14099TIP3    H263713   0.227   0.762   2.675 -1.1641 -1.0381 -1.7964
14100TIP3   OH263714   0.653   6.342   2.118 -0.5170 -0.2331  0.5472
14100TIP3    H163715   0.699   6.316   2.198  0.4338 -0.8790 -0.2075
14100TIP3    H263716   0.596   6.268   2.097 -1.2040  0.1702  0.9294
14101TIP3   OH263717   0.256   2.227   4.093 -0.1852  0.3770  0.5100
14101TIP3    H163718   0.188   2.229   4.160 -1.0402  2.4755 -0.3900
14101TIP3    H263719   0.324   2.170   4.130 -1.4020  0.0899  2.3868
14102TIP3   OH263720   4.575   5.980   2.513  0.2831 -0.2756  0.6388
14102TIP3    H163721   4.535   6.066   2.515 -1.0068 -0.8548  0.1568
14102TIP3    H263722   4.521   5.927   2.572  1.4939 -0.5795  1.4987
14103TIP3   OH263723   6.349   6.474   4.249  0.1314  0.0621  0.5653
14103TIP3    H163724   6.304   6.544   4.298 -0.9097  0.3391 -0.7452
14103TIP3    H263725   6.297   6.395   4.268  0.8526 -0.2164  1.4225
14104TIP3   OH263726   0.173   2.326   3.620  0.5273  0.0047  0.5945
14104TIP3    H163727   0.241   2.388   3.593  1.0241 -0.2144  1.3182
14104TIP3    H263728   0.195   2.305   3.711 -0.5198 -0.0675  0.8322
14105TIP3   OH263729   3.702   1.903   2.446  0.1567  0.3004 -0.7432
14105TIP3    H163730   3.786   1.857   2.441  0.1978  0.4086 -1.0417
14105TIP3    H263731   3.703   1.964   2.372  1.2711  2.7551  1.2376
14106TIP3   OH263732   6.341   6.782   2.470  0.2277 -0.2598 -0.3157
14106TIP3    H163733   6.311   6.749   2.555  0.9007  1.1226  0.4663
14106TIP3    H263734   6.363   6.873   2.486 -1.7800  0.6459 -2.4984
14107TIP3   OH263735   5.541   0.587   2.123  0.1002  0.0300  0.0441
14107TIP3    H163736   5.629   0.620   2.106  0.0822 -0.4741 -1.0738
14107TIP3    H263737   5.507   0.644   2.192  0.9488  0.8342 -0.1881
14108TIP3   OH263738   0.323   2.052   3.664  0.7788  0.9670 -0.6310
14108TIP3    H163739   0.402   2.034   3.613  0.6983  0.0532 -0.4406
14108TIP3    H263740   0.321   2.147   3.671  2.7806  0.9346  0.7850
14109TIP3   OH263741   7.229   2.265   3.082 -0.4699  0.1963 -0.1374
14109TIP3    H163742   7.145   2.278   3.037 -1.7409  0.6826  2.2554
14109TIP3    H263743   7.254   2.175   3.061 -0.8865  0.5035 -1.9951
14110TIP3   OH263744   0.910   1.578   3.451  0.2933  0.3273 -0.2783
14110TIP3    H163745   0.994   1.533   3.464  0.3541  1.1761  2.5969
14110TIP3    H263746   0.845   1.517   3.485  0.0289  0.8684  0.1930
14111TIP3   OH263747   3.799   1.171   5.345  0.1530  0.2691 -0.3188
14111TIP3    H163748   3.869   1.229   5.314  0.3396  0.5557  0.6251
14111TIP3    H263749   3.827   1.145   5.433 -0.0222 -1.1001 -0.6513
14112TIP3   OH263750   5.837   7.124   0.320 -0.1567 -0.2469 -0.3169
14112TIP3    H163751   5.830   7.096   0.229  1.5166 -0.3766 -0.4308
14112TIP3    H263752   5.864   7.216   0.315 -1.8871  0.2962  0.0578
14113TIP3   OH263753   5.913   0.211   2.492  0.1909 -0.0796  0.0143
14113TIP3    H163754   5.822   0.238   2.501  0.6851  1.6139  0.0493
14113TIP3    H263755   5.956   0.246   2.571  1.0979  0.1089 -0.5570
14114TIP3   OH263756   1.475   7.300   0.147 -0.2898 -0.3136 -0.2338
14114TIP3    H163757   1.454   7.390   0.124 -0.5118 -0.6592 -1.3918
14114TIP3    H263758   1.507   7.305   0.237  1.3405  1.1273 -0.8807
14115TIP3   OH263759   0.251   0.121   2.277 -0.2073 -0.2965  0.2665
14115TIP3    H163760   0.167   0.089   2.309 -0.1567 -0.4455  0.2528
14115TIP3    H263761   0.304   0.135   2.356  0.7769 -3.0470  0.1674
14116TIP3   OH263762   6.864   1.062   1.217  0.2853  0.4500 -0.3728
14116TIP3    H163763   6.908   0.990   1.171  2.4355  1.4982 -0.0340
14116TIP3    H263764   6.773   1.057   1.188  0.8768 -1.0460 -2.0622
14117TIP3   OH263765   1.353   0.124   2.741 -0.1144 -0.7152  0.2305
14117TIP3    H163766   1.317   0.050   2.789  0.3966 -0.8593  0.3846
14117TIP3    H263767   1.437   0.141   2.781 -0.7302  0.6917  0.9474
14118TIP3   OH263768   6.496   3.477   2.786  0.4352 -0.1860  0.0277
14118TIP3    H163769   6.431   3.428   2.736  1.0074  0.3258 -1.2203
14118TIP3    H263770   6.562   3.503   2.722  0.0435  2.4024  0.5893
14119TIP3   OH263771   0.722   7.303   2.310  0.0568 -0.1468 -0.0404
14119TIP3    H163772   0.681   7.221   2.336 -0.7341  0.3790  0.3857
14119TIP3    H263773   0.657   7.348   2.257 -0.6953  1.5594  2.2541
14120TIP3   OH263774   3.599   1.064   3.863  0.0227  0.6047  0.0421
14120TIP3    H163775   3.593   1.157   3.886 -1.6592  1.1850 -2.5113
14120TIP3    H263776   3.671   1.060   3.799 -0.2853  0.2491 -0.2824
14121TIP3   OH263777   5.007   1.601  15.948  0.4655 -0.0833  0.2147
14121TIP3    H163778   5.002   1.557  15.863  0.5896  1.6680 -0.7203
14121TIP3    H263779   4.949   1.551  16.004  0.2774 -1.1871 -0.9447
14122TIP3   OH263780   5.799   0.409   3.240  0.2081 -0.0569 -0.2259
14122TIP3    H163781   5.711   0.420   3.276 -0.3663 -0.5876 -1.4365
14122TIP3    H263782   5.786   0.410   3.145  1.6188  0.7075 -0.4272
14123TIP3   OH263783   0.147   1.576   3.831  0.2200  0.1846 -0.1851
14123TIP3    H163784   0.072   1.636   3.836  1.2774  1.5863 -1.1458
14123TIP3    H263785   0.195   1.603   3.754  2.6000  0.3014  1.2919
14124TIP3   OH263786   5.838   1.488   1.571 -0.9261  0.0585  0.2333
14124TIP3    H163787   5.791   1.452   1.645 -1.6812  0.3836 -0.0875
14124TIP3    H263788   5.838   1.583   1.586 -0.1066  0.0389  0.3920
14125TIP3   OH263789   6.501   1.426   2.791  0.2970  0.1526  0.6267
14125TIP3    H163790   6.451   1.500   2.758 -0.3585 -0.7998 -0.5451
14125TIP3    H263791   6.567   1.410   2.724 -1.1599 -1.9206 -0.3613
14126TIP3   OH263792   5.627   0.435   1.140 -0.2468  0.0451 -0.6086
14126TIP3    H163793   5.675   0.403   1.064  0.7258  1.7756 -0.7607
14126TIP3    H263794   5.695   0.468   1.199 -1.1364  1.1130 -0.1476
14127TIP3   OH263795   5.408   7.230   2.345 -0.0313  0.3052  0.0895
14127TIP3    H163796   5.361   7.197   2.269  1.2442  0.2001 -0.6741
14127TIP3    H263797   5.349   7.294   2.385 -0.2464  1.2227 -1.6605
14128TIP3   OH263798   6.276   0.004   1.550  0.2639 -0.2756 -0.2775
14128TIP3    H163799   6.276   0.070   1.481  1.9364 -1.4595 -1.4705
14128TIP3    H263800   6.278  -0.079   1.503 -2.7013 -1.2398  1.1837
14129TIP3   OH263801   7.057   2.463   3.186  0.0289 -0.1152 -0.2478
14129TIP3    H163802   7.113   2.511   3.125 -0.7855  1.0272 -0.1259
14129TIP3    H263803   7.110   2.389   3.216  1.7453  1.3887  0.4829
14130TIP3   OH263804   4.937   6.169   4.778 -0.4990  0.0165  0.3139
14130TIP3    H163805   5.015   6.139   4.826 -0.3754  0.0981  0.1607
14130TIP3    H263806   4.894   6.229   4.839  0.9830  2.0703 -0.6234
14131TIP3   OH263807   6.419   0.826   2.656 -0.2055  0.0948  0.1266
14131TIP3    H163808   6.338   0.869   2.686 -1.2210 -1.0183 -0.9384
14131TIP3    H263809   6.414   0.831   2.561  1.3982  0.7461  0.0756
14132TIP3   OH263810   1.267   5.773   3.460 -0.5768 -0.2345 -0.0242
14132TIP3    H163811   1.215   5.753   3.538  0.6211  1.8210  1.3456
14132TIP3    H263812   1.293   5.688   3.427 -1.3034 -1.1590  1.6843
14133TIP3   OH263813   0.625   3.873   1.602  0.1029 -0.1130  0.4180
14133TIP3    H163814   0.532   3.848   1.600  0.8102 -2.8662 -0.0717
14133TIP3    H263815   0.668   3.809   1.546  2.3306  1.1497  0.6383
14134TIP3   OH263816   5.525   0.424   2.590 -0.1884  0.5291 -0.2927
14134TIP3    H163817   5.548   0.412   2.682 -0.1191  1.7875 -0.1468
14134TIP3    H263818   5.599   0.472   2.552 -1.9084  3.4355 -0.1070
14135TIP3   OH263819   1.365   1.943  15.978  0.1556 -0.0939  0.2405
14135TIP3    H163820   1.431   1.926  16.046  0.8324  0.5411 -0.2585
14135TIP3    H263821   1.283   1.913  16.017  0.2128  2.0653  2.1252
14136TIP3   OH263822   4.742   2.023   2.474  0.4289  0.3193 -0.0273
14136TIP3    H163823   4.761   2.097   2.416 -1.6169  0.7949 -0.1117
14136TIP3    H263824   4.732   1.948   2.414  0.2901  0.4230 -0.1353
14137TIP3   OH263825   5.616   2.025   0.424  0.2705 -0.6356 -0.2662
14137TIP3    H163826   5.580   1.969   0.493 -1.9214  1.4034  0.2801
14137TIP3    H263827   5.561   2.009   0.348 -0.9042  1.3801  0.1385
14138TIP3   OH263828   4.227   2.311   2.257  0.3746 -0.1228 -0.0622
14138TIP3    H163829   4.186   2.397   2.242 -2.2431 -1.4752 -0.9379
14138TIP3    H263830   4.243   2.278   2.169  1.6286 -0.4268  0.2835
14139TIP3   OH263831   3.756   6.677   1.803 -0.0647  0.0095  0.8244
14139TIP3    H163832   3.700   6.616   1.756 -0.8272  0.4365  1.1639
14139TIP3    H263833   3.804   6.622   1.866  2.0533 -0.7867 -1.3814
14140TIP3   OH263834   5.851   5.994   0.763  0.3365  0.4311  0.8229
14140TIP3    H163835   5.833   6.086   0.746 -0.3904 -0.0198 -0.9953
14140TIP3    H263836   5.945   5.984   0.749 -0.3445 -0.1200 -4.3155
14141TIP3   OH263837   0.031   0.804   2.274  0.1439 -0.0026 -0.5522
14141TIP3    H163838  -0.027   0.739   2.314  1.3655 -0.7544  0.0090
14141TIP3    H263839   0.111   0.800   2.326  0.6461  1.1471 -1.2237
14142TIP3   OH263840   6.040   2.371   0.763 -0.1789  0.3428 -0.1046
14142TIP3    H163841   6.057   2.308   0.693  0.5751  1.7834 -1.2426
14142TIP3    H263842   5.970   2.427   0.730 -1.7667 -0.6836  1.4359
14143TIP3   OH263843   5.504   6.459   1.683  0.7501  0.4218  0.0642
14143TIP3    H163844   5.436   6.526   1.672  2.0241  1.7213 -0.0403
14143TIP3    H263845   5.525   6.461   1.776  1.1407  0.5355 -0.0227
14144TIP3   OH263846   4.208   0.921   2.888  0.1013 -0.0751  0.4711
14144TIP3    H163847   4.186   0.863   2.816  0.8013 -0.1743  0.3326
14144TIP3    H263848   4.237   1.002   2.845  1.1232 -0.3533  0.6248
14145TIP3   OH263849   6.209   0.230   5.728 -0.1698  0.0679  0.4389
14145TIP3    H163850   6.117   0.222   5.754 -0.8030 -1.1355 -2.0024
14145TIP3    H263851   6.257   0.175   5.791 -1.1676  0.2666  1.3911
14146TIP3   OH263852   0.195   1.214   2.317 -0.0418 -0.6501 -0.4918
14146TIP3    H163853   0.289   1.206   2.329 -0.1395  0.5261  1.2893
14146TIP3    H263854   0.181   1.304   2.289 -0.8526  0.1793  2.3396
14147TIP3   OH263855   4.709   6.283   2.127  0.9435  0.3316  0.2894
14147TIP3    H163856   4.687   6.355   2.187  2.1498  0.9680 -0.0306
14147TIP3    H263857   4.651   6.296   2.052  0.8783  0.7451  0.4095
14148TIP3   OH263858   2.526   0.492   3.680 -0.1525  0.0329  0.2793
14148TIP3    H163859   2.501   0.530   3.764 -0.7340  1.9489 -0.7237
14148TIP3    H263860   2.547   0.567   3.624 -3.1242 -0.9392 -2.3357
14149TIP3   OH263861   5.436   1.476   2.918  0.4182  0.1445 -0.0276
14149TIP3    H163862   5.446   1.570   2.933 -1.6069  0.6102 -1.3374
14149TIP3    H263863   5.523   1.439   2.933  1.4541  2.3633 -0.4353
14150TIP3   OH263864   5.246   1.389   3.694 -0.1672 -0.4148  0.2228
14150TIP3    H163865   5.331   1.433   3.696 -0.3277 -0.0640 -0.6560
14150TIP3    H263866   5.266   1.298   3.717  0.3395 -0.1802  0.7364
14151TIP3   OH263867   5.619   6.379   1.451 -0.0208  0.4855 -0.3913
14151TIP3    H163868   5.559   6.409   1.382 -0.2434  1.8874  0.4163
14151TIP3    H263869   5.586   6.419   1.531  0.4970 -0.8016  0.4758
14152TIP3   OH263870   1.249   2.279   1.389  0.3707 -0.1143 -0.4208
14152TIP3    H163871   1.164   2.243   1.415  0.6182  0.3093  0.9952
14152TIP3    H263872   1.238   2.301   1.296 -0.6200 -1.3465 -0.6054
14153TIP3   OH263873   7.235   0.580   3.640 -0.2880  0.4424 -0.0450
14153TIP3    H163874   7.172   0.508   3.642 -0.5728  0.6138 -1.8316
14153TIP3    H263875   7.182   0.659   3.645 -0.0070  0.5393  1.4266
14154TIP3   OH263876   6.229   3.469   1.611 -0.0739  0.7490 -0.3689
14154TIP3    H163877   6.252   3.421   1.691 -0.5957  0.2901 -0.4941
14154TIP3    H263878   6.213   3.400   1.546  2.0105  1.1305 -1.3304
14155TIP3   OH263879   7.014   0.749   2.899 -0.3672  0.8646 -0.0891
14155TIP3    H163880   7.031   0.692   2.825  2.1138 -0.6797  1.5937
14155TIP3    H263881   6.932   0.717   2.936 -1.1217  1.0470 -1.5739
14156TIP3   OH263882   6.954   1.524   5.167  0.1460  0.3836 -0.2372
14156TIP3    H163883   7.043   1.559   5.174 -0.8045  2.6160  1.2203
14156TIP3    H263884   6.961   1.434   5.200  1.8311  0.6083  0.0675
14157TIP3   OH263885   5.701   1.213   2.179  0.5444 -0.3159  0.2420
14157TIP3    H163886   5.625   1.271   2.168 -0.0181 -1.3954 -1.6496
14157TIP3    H263887   5.741   1.243   2.261  0.7216  3.2702 -1.0351
14158TIP3   OH263888   0.092   1.277   4.190  0.1500 -0.3071 -0.4594
14158TIP3    H163889   0.120   1.289   4.099  0.7938  0.6595 -0.1356
14158TIP3    H263890   0.157   1.218   4.228  0.3249 -0.0805 -0.4071
14159TIP3   OH263891   5.021   0.260   3.157 -0.5061 -0.1845  0.2106
14159TIP3    H163892   5.004   0.343   3.203 -0.7455 -0.4718  0.6458
14159TIP3    H263893   4.989   0.193   3.217  0.8023 -0.6591  0.3736
14160TIP3   OH263894   4.733   1.486   3.652  0.2945  0.1185  0.5559
14160TIP3    H163895   4.748   1.517   3.563 -0.9599 -0.8085  0.0102
14160TIP3    H263896   4.647   1.521   3.676  0.0953 -0.6276  0.9558
14161TIP3   OH263897   3.926   1.227   2.348 -0.3454  0.1489 -0.2908
14161TIP3    H163898   3.922   1.146   2.297 -0.3528  0.2090 -0.3844
14161TIP3    H263899   4.015   1.229   2.382 -0.4511 -0.0799  0.0031
14162TIP3   OH263900   0.619   7.258   1.968  0.3812  0.5295  0.1384
14162TIP3    H163901   0.661   7.275   1.883  0.4478  0.7119  0.2090
14162TIP3    H263902   0.658   7.322   2.027  0.0545  0.6469  0.2221
14163TIP3   OH263903   0.744   6.700   1.098  0.3433 -0.0647 -0.1768
14163TIP3    H163904   0.828   6.736   1.072 -0.1264  0.5306 -0.9083
14163TIP3    H263905   0.762   6.650   1.178  0.9149  2.2702  1.1857
14164TIP3   OH263906   1.237   0.361   2.178 -0.1863 -0.2358 -0.2725
14164TIP3    H163907   1.290   0.391   2.103 -0.9239 -0.1690 -0.7781
14164TIP3    H263908   1.170   0.305   2.139 -0.1848 -0.7187  0.4185
14165TIP3   OH263909   6.393   0.143   4.497  0.3683 -0.2719 -0.1998
14165TIP3    H163910   6.432   0.229   4.510 -3.5038  1.5858 -0.0109
14165TIP3    H263911   6.419   0.117   4.409  0.6524  1.6259 -0.6827
14166TIP3   OH263912   3.896   1.353   1.517 -0.2328  0.6152 -0.1364
14166TIP3    H163913   3.848   1.432   1.491 -0.3264  0.4108 -0.5918
14166TIP3    H263914   3.829   1.286   1.530 -0.1612  0.6321  0.3458
14167TIP3   OH263915   6.968   7.197   2.723 -0.9314  0.6470 -0.3274
14167TIP3    H163916   6.960   7.237   2.809  0.0859 -1.2781  0.6955
14167TIP3    H263917   6.891   7.142   2.714 -1.6830  1.8272 -1.1925
14168TIP3   OH263918   5.020   0.285   1.666 -0.3342  0.5257  0.3438
14168TIP3    H163919   5.071   0.295   1.585 -2.8267  2.7009 -1.0232
14168TIP3    H263920   5.051   0.355   1.723  1.3523 -0.9470  1.2967
14169TIP3   OH263921   5.608   7.055   0.984 -0.1220 -0.0505 -0.6335
14169TIP3    H163922   5.583   7.052   1.076 -0.1624  1.9965 -0.5399
14169TIP3    H263923   5.525   7.051   0.936 -0.2832  1.2958 -0.4889
14170TIP3   OH263924   6.345   1.357   4.067 -0.3995 -0.0864  0.2800
14170TIP3    H163925   6.364   1.264   4.079  0.0624  0.0964  0.9882
14170TIP3    H263926   6.263   1.370   4.115  0.7503  0.3599  2.1517
14171TIP3   OH263927   6.802   4.924   2.580 -0.6828  0.0605 -0.0229
14171TIP3    H163928   6.708   4.934   2.594 -0.2792  2.2202  1.3150
14171TIP3    H263929   6.821   4.835   2.609 -1.9710  0.2993  1.5892
14172TIP3   OH263930   5.018   1.401   3.923 -0.1970  0.1458  0.3094
14172TIP3    H163931   5.071   1.402   4.002 -1.2245  1.1958  1.0002
14172TIP3    H263932   4.982   1.312   3.919  0.0936  0.0054  0.8596
14173TIP3   OH263933   0.080   0.208   3.200  0.2406  0.3097  0.2163
14173TIP3    H163934   0.022   0.183   3.272 -0.3227  2.6461  0.6184
14173TIP3    H263935   0.134   0.131   3.185 -2.1255 -1.4901  0.6651
14174TIP3   OH263936   0.596   6.290   3.241 -0.1249  0.6535  0.0960
14174TIP3    H163937   0.600   6.229   3.167 -2.7089 -0.0562  0.5019
14174TIP3    H263938   0.504   6.317   3.245  0.2180  1.5867  2.3434
14175TIP3   OH263939   4.742   6.539   3.626  0.2383 -0.2329 -0.3189
14175TIP3    H163940   4.805   6.489   3.574  1.8094 -0.0325  1.3350
14175TIP3    H263941   4.793   6.572   3.700 -1.5111  1.1032  0.3285
14176TIP3   OH263942   5.622   7.144   5.607  0.2330  0.3019  1.0158
14176TIP3    H163943   5.674   7.079   5.654  1.1763  1.1499  1.1665
14176TIP3    H263944   5.682   7.218   5.593 -0.2946  0.4374 -0.7175
14177TIP3   OH263945   6.780   6.522   1.352 -0.0365  0.1006 -0.7932
14177TIP3    H163946   6.806   6.614   1.351 -1.0248  0.3853 -0.5453
14177TIP3    H263947   6.733   6.510   1.269  1.9601 -0.7391 -1.8483
14178TIP3   OH263948   6.171   0.707   2.977 -0.0551  0.0450  0.7291
14178TIP3    H163949   6.237   0.642   3.003  0.9943  1.6913  2.3006
14178TIP3    H263950   6.222   0.781   2.943 -1.0863  1.2088  1.6524
14179TIP3   OH263951   6.350   0.542   1.776 -0.4932 -0.1308 -0.2742
14179TIP3    H163952   6.427   0.585   1.813 -1.8748  1.1832  1.1154
14179TIP3    H263953   6.373   0.449   1.775  0.3577  0.0372  1.9429
14180TIP3   OH263954   3.881   1.818   1.949 -0.0689  0.0383  0.2290
14180TIP3    H163955   3.814   1.750   1.959  1.1855 -1.1375  0.8796
14180TIP3    H263956   3.917   1.829   2.038  0.2090  1.0680 -0.0023
14181TIP3   OH263957   1.275   6.955   3.363  0.1074  0.0903  0.1326
14181TIP3    H163958   1.295   6.996   3.447 -1.9978 -0.3898  0.8888
14181TIP3    H263959   1.339   6.992   3.303 -0.5334  3.0404  1.2109
14182TIP3   OH263960   5.676   6.302   4.363  0.3613  0.2824  0.6981
14182TIP3    H163961   5.708   6.392   4.362  0.5638  0.2189  1.2488
14182TIP3    H263962   5.755   6.249   4.359  0.1615  0.1211 -1.6209
14183TIP3   OH263963   6.832   0.070   3.172  0.2548  0.4416  0.2827
14183TIP3    H163964   6.754   0.015   3.159  1.1091 -0.8931  0.6587
14183TIP3    H263965   6.862   0.089   3.083 -0.5147  0.9841  0.1347
14184TIP3   OH263966   1.324   7.068   0.213 -0.2281  0.3107 -0.5234
14184TIP3    H163967   1.355   7.001   0.153  0.9631  0.4347 -0.0555
14184TIP3    H263968   1.363   7.149   0.180 -0.9618  0.6501 -0.5776
14185TIP3   OH263969   6.095   2.283   2.280 -0.1853  0.2493  0.0991
14185TIP3    H163970   6.086   2.322   2.367  1.6415 -0.1998  0.5057
14185TIP3    H263971   6.182   2.310   2.251 -0.1692 -0.8855 -0.9380
14186TIP3   OH263972   5.021   1.416   2.236  0.4384 -0.4134  0.3370
14186TIP3    H163973   5.071   1.388   2.312 -0.0844  1.7450  1.5368
14186TIP3    H263974   5.020   1.512   2.241 -2.5501 -0.3327 -0.4295
14187TIP3   OH263975   0.300   2.402   2.886 -0.5030  0.3438  0.0383
14187TIP3    H163976   0.333   2.332   2.942  0.0488 -0.3176 -1.0969
14187TIP3    H263977   0.349   2.480   2.914  0.9244 -0.3060 -0.5700
14188TIP3   OH263978   6.042   0.703   2.224 -0.1688  0.4565 -0.3176
14188TIP3    H163979   6.055   0.644   2.299 -1.2583 -0.0981 -0.5586
14188TIP3    H263980   6.117   0.686   2.167 -0.7284 -1.0492 -0.6154
14189TIP3   OH263981   5.139   0.149   3.535  0.0114 -0.7598 -0.6579
14189TIP3    H163982   5.066   0.141   3.473 -0.2289 -2.7866 -0.1496
14189TIP3    H263983   5.192   0.071   3.519  0.7386 -0.5387  0.6601
14190TIP3   OH263984   2.055   7.196   0.448  0.1764 -0.9650 -0.4570
14190TIP3    H163985   2.033   7.278   0.403  1.6031 -0.8170 -0.9502
14190TIP3    H263986   2.138   7.215   0.493 -0.2016 -1.7231  0.5778
14191TIP3   OH263987   0.328   6.670   0.406  0.1906 -0.3601 -0.1443
14191TIP3    H163988   0.320   6.620   0.487  5.4313 -0.5819  0.4060
14191TIP3    H263989   0.327   6.605   0.336  1.4976 -0.7053  0.1647
14192TIP3   OH263990   5.161   0.454   2.204 -0.0367  0.3376  0.0615
14192TIP3    H163991   5.144   0.548   2.214  2.4666  0.8119  0.1948
14192TIP3    H263992   5.174   0.423   2.294 -0.2969 -0.0130 -0.0254
14193TIP3   OH263993   7.243   1.502   2.066 -0.3186 -0.6219  0.2288
14193TIP3    H163994   7.266   1.522   1.976 -1.2881 -0.0132  0.1097
14193TIP3    H263995   7.162   1.450   2.059 -0.0390 -1.1250  0.7128
14194TIP3   OH263996   5.757   2.719   2.885 -0.4961 -0.1590 -0.2927
14194TIP3    H163997   5.840   2.754   2.918  0.2981 -0.0479 -2.3376
14194TIP3    H263998   5.696   2.794   2.889 -0.1049  0.1502 -0.1474
14195TIP3   OH263999   1.195   6.482   2.118 -0.1478  0.6736  0.1999
14195TIP3    H164000   1.254   6.425   2.068 -0.2524  0.5112  0.2591
14195TIP3    H264001   1.188   6.439   2.204 -1.6715 -0.2104 -0.3439
14196TIP3   OH264002   5.557   5.763   4.956 -0.3261 -0.2209 -0.4934
14196TIP3    H164003   5.648   5.779   4.930 -0.7712  1.7746 -0.8804
14196TIP3    H264004   5.561   5.681   5.005  1.4730 -0.8658 -1.6440
14197TIP3   OH264005   6.546   0.038   3.701  0.1613  0.1496  0.5083
14197TIP3    H164006   6.483   0.110   3.701  2.2813  2.0784 -0.8830
14197TIP3    H264007   6.620   0.071   3.751  0.7077 -1.5140  0.8365
14198TIP3   OH264008   2.888   6.454   4.945  0.0844 -0.3878  0.4648
14198TIP3    H164009   2.826   6.527   4.932  1.4707  0.7900  0.2784
14198TIP3    H264010   2.936   6.449   4.863  0.0855 -1.4483  0.5261
14199TIP3   OH264011   1.694   0.799   0.889  0.1697  0.0236  0.3169
14199TIP3    H164012   1.736   0.782   0.973 -0.1471  0.6648  0.6069
14199TIP3    H264013   1.622   0.859   0.910 -0.4938 -0.5573 -0.2685
14200TIP3   OH264014   6.781   1.129   2.841  0.3110 -0.0508 -0.5533
14200TIP3    H164015   6.785   1.068   2.767 -0.2573  1.0054 -1.4634
14200TIP3    H264016   6.860   1.182   2.834  0.5599 -0.3533 -0.0472
14201TIP3   OH264017   6.558   0.528   3.605  0.5368 -0.1531  0.3418
14201TIP3    H164018   6.498   0.464   3.644 -1.4106  0.2342 -1.9057
14201TIP3    H264019   6.529   0.612   3.640  0.7631 -0.1281  0.4687
14202TIP3   OH264020   5.520   1.324   4.467  0.3304  0.6450 -0.0047
14202TIP3    H164021   5.523   1.414   4.498  1.3578  0.1913  1.2825
14202TIP3    H264022   5.597   1.316   4.409  0.9809  0.2508  0.9003
14203TIP3   OH264023   5.783   2.376   3.343  0.2106  0.5423 -0.0977
14203TIP3    H164024   5.842   2.452   3.340  1.3879 -0.3231  0.6151
14203TIP3    H264025   5.841   2.300   3.334 -0.7175 -0.3481  1.1967
14204TIP3   OH264026   6.824   0.083   1.280 -0.1988 -0.3481  0.0700
14204TIP3    H164027   6.756   0.081   1.348 -1.5851 -0.9912 -1.2866
14204TIP3    H264028   6.774   0.085   1.198  1.4472 -1.8314 -0.9808
14205TIP3   OH264029   3.492   1.537   2.663 -0.9562 -0.7343 -0.0514
14205TIP3    H164030   3.414   1.585   2.636  0.1242  1.2381  0.1698
14205TIP3    H264031   3.484   1.530   2.758  0.5799  2.2967  0.3902
14206TIP3   OH264032   5.835   2.974   1.628 -0.1898 -0.1235 -0.3892
14206TIP3    H164033   5.785   3.056   1.630 -1.5669 -0.9581  0.8598
14206TIP3    H264034   5.818   2.937   1.542 -0.6476  0.2744 -0.4748
14207TIP3   OH264035   4.823   1.859   3.629 -1.0980 -0.1278 -0.0794
14207TIP3    H164036   4.782   1.781   3.590 -2.1316  0.1686  0.3929
14207TIP3    H264037   4.749   1.911   3.661 -0.3247  0.2098  1.1801
14208TIP3   OH264038   0.886   0.345   2.131  0.1280  0.3143  0.3009
14208TIP3    H164039   0.849   0.432   2.116  2.0041  1.0546 -0.2161
14208TIP3    H264040   0.857   0.322   2.219 -3.3625 -0.1130 -0.8871
14209TIP3   OH264041   6.580   1.839   3.986 -0.1292 -0.1663  0.0225
14209TIP3    H164042   6.588   1.902   4.058 -1.1934 -0.3954  0.3644
14209TIP3    H264043   6.532   1.765   4.025  0.8796 -1.0766 -0.4426
14210TIP3   OH264044   0.053   2.951   2.032 -0.6925 -0.1985 -0.8124
14210TIP3    H164045   0.089   2.871   2.070 -0.4671 -0.2048 -1.0430
14210TIP3    H264046   0.052   3.013   2.105  1.5353  0.3805 -1.2368
14211TIP3   OH264047   0.032   2.408   4.455  0.8263 -0.0751  0.3884
14211TIP3    H164048   0.051   2.492   4.413  1.5646 -0.3238  0.2255
14211TIP3    H264049  -0.052   2.423   4.499 -0.3938 -0.0601 -1.8558
14212TIP3   OH264050   0.279   2.198   3.082  0.7161  0.1659  0.3527
14212TIP3    H164051   0.271   2.242   3.166 -0.7593 -0.1657  0.4016
14212TIP3    H264052   0.304   2.108   3.104 -1.5700 -0.4487  0.5747
14213TIP3   OH264053   1.013   0.195   5.113 -0.1424  0.2773  0.2160
14213TIP3    H164054   0.980   0.265   5.169  0.5128 -0.1057  1.0858
14213TIP3    H264055   0.997   0.115   5.162  1.0300 -0.0064  0.1455
14214TIP3   OH264056   0.661   1.728   1.611 -0.4220  0.3391  0.3387
14214TIP3    H164057   0.743   1.778   1.617 -0.4628  0.4537 -0.0297
14214TIP3    H264058   0.647   1.694   1.699  0.6533 -0.6864  0.1321
14215TIP3   OH264059   6.237   6.258   4.667  0.2268  0.1422  0.8547
14215TIP3    H164060   6.307   6.305   4.622  1.3169 -2.0682  0.1747
14215TIP3    H264061   6.252   6.276   4.760  1.6700 -0.2181  0.7121
14216TIP3   OH264062   6.718   1.062   3.702 -0.1581  0.4398 -0.1688
14216TIP3    H164063   6.650   1.120   3.668  1.3242  1.7808 -0.9133
14216TIP3    H264064   6.744   1.102   3.785  0.1260  0.2520 -0.1673
14217TIP3   OH264065   6.808   2.409   3.596  0.0605  0.3522 -0.1466
14217TIP3    H164066   6.826   2.405   3.502 -1.6847 -0.1019 -0.4808
14217TIP3    H264067   6.855   2.334   3.632  0.2124  0.1457 -0.7586
14218TIP3   OH264068   0.264   6.806   2.606  0.1449  0.0355 -0.0663
14218TIP3    H164069   0.196   6.784   2.543  0.4071  1.4678 -0.8686
14218TIP3    H264070   0.219   6.808   2.691 -0.8909  1.3111 -0.6354
14219TIP3   OH264071   6.053   0.823   2.496 -0.3543 -0.0313  0.7562
14219TIP3    H164072   6.068   0.730   2.479  2.8844  0.3062  1.3812
14219TIP3    H264073   5.958   0.832   2.499 -0.7274 -3.6700  2.5211
14220TIP3   OH264074   5.878   6.422   1.324  0.0472 -0.8429 -0.2776
14220TIP3    H164075   5.790   6.392   1.348 -0.9692  1.7397 -0.5746
14220TIP3    H264076   5.872   6.442   1.231  1.0829 -1.0947 -0.4036
14221TIP3   OH264077   3.675   5.883   3.694 -0.4554  0.0547 -0.1655
14221TIP3    H164078   3.692   5.977   3.707 -0.4677 -0.0108  0.3287
14221TIP3    H264079   3.615   5.860   3.764  0.5196 -0.6038  0.4718
14222TIP3   OH264080   5.187   0.303   2.919  0.4482 -0.3064 -0.1679
14222TIP3    H164081   5.141   0.320   3.001  1.1839 -0.4460  0.2762
14222TIP3    H264082   5.268   0.353   2.926 -0.1815  0.9373 -1.4648
14223TIP3   OH264083   5.987   1.597   2.675  1.1075  0.3248  0.6576
14223TIP3    H164084   6.014   1.538   2.604  2.0382  0.5536  0.8152
14223TIP3    H264085   5.925   1.658   2.633  1.4014  0.2531  0.1171
14224TIP3   OH264086   4.267   1.256   5.536 -0.6808 -0.3902  0.1902
14224TIP3    H164087   4.350   1.210   5.551 -0.7371 -0.5748 -0.0679
14224TIP3    H264088   4.290   1.349   5.540 -0.3146 -0.4351 -0.6606
14225TIP3   OH264089   0.353   1.639   3.630  0.1200 -0.2993  0.1027
14225TIP3    H164090   0.419   1.579   3.595  0.1435 -0.6333  0.6984
14225TIP3    H264091   0.353   1.713   3.570  0.6549 -0.5441 -0.2056
14226TIP3   OH264092   3.871   1.658   2.838  0.0175 -0.0789 -0.0635
14226TIP3    H164093   3.851   1.748   2.864 -0.7896  0.0858 -1.2189
14226TIP3    H264094   3.965   1.649   2.854  0.1824  1.0933 -0.2948
14227TIP3   OH264095   1.757   6.743   2.336  0.4429 -0.5343  0.0976
14227TIP3    H164096   1.755   6.827   2.290 -0.2445 -0.3025  0.5407
14227TIP3    H264097   1.845   6.737   2.372  0.1631  0.4884  0.9579
14228TIP3   OH264098   6.647   1.584   3.769 -0.6178  0.4983  0.3376
14228TIP3    H164099   6.611   1.646   3.833 -0.6461  0.7034  0.1235
14228TIP3    H264100   6.699   1.638   3.710  0.7371  0.0986  1.1284
14229TIP3   OH264101   1.487   0.357   2.300  0.2979 -0.1086 -0.2858
14229TIP3    H164102   1.458   0.392   2.385 -1.9594 -2.5392  0.0293
14229TIP3    H264103   1.405   0.338   2.254  1.4705 -2.3371 -1.4908
14230TIP3   OH264104   6.609   1.632   2.407  0.5909  0.3762  1.0451
14230TIP3    H164105   6.575   1.662   2.492  2.0471  1.2123  1.3372
14230TIP3    H264106   6.696   1.597   2.426  1.0323  0.8060 -0.1494
14231TIP3   OH264107   5.898   1.809   0.805 -0.1157  0.0206  0.1828
14231TIP3    H164108   5.965   1.874   0.783  0.0313 -0.4494 -0.7949
14231TIP3    H264109   5.879   1.824   0.897 -1.0953  2.4011 -0.3638
14232TIP3   OH264110   1.197   2.248   4.866  0.4283  0.5315  0.1000
14232TIP3    H164111   1.118   2.298   4.888  0.1432  0.7919 -1.4491
14232TIP3    H264112   1.268   2.312   4.871  0.1541  0.9601 -1.2069
14233TIP3   OH264113   1.867   3.198   1.635  0.0288  0.1185 -0.0835
14233TIP3    H164114   1.793   3.139   1.648 -0.7474  0.6959 -1.7700
14233TIP3    H264115   1.931   3.170   1.700 -1.0598 -1.3814  0.3790
14234TIP3   OH264116   3.241   1.418   2.500  0.0140  0.3686  0.0609
14234TIP3    H164117   3.326   1.440   2.460 -0.1184 -0.0473 -0.4576
14234TIP3    H264118   3.261   1.404   2.593  0.4823  0.4605 -0.0254
14235TIP3   OH264119   1.023   1.719   3.254 -0.0796 -0.7377  0.3368
14235TIP3    H164120   0.981   1.661   3.318 -0.1519 -0.9126  0.1319
14235TIP3    H264121   1.094   1.760   3.302  0.8798 -2.0784  0.0962
14236TIP3   OH264122   0.499   0.602   1.096 -0.4721 -0.1361 -0.0628
14236TIP3    H164123   0.579   0.603   1.149 -0.9121  2.3932  0.6180
14236TIP3    H264124   0.429   0.588   1.158 -0.6168 -1.8847 -0.6041
14237TIP3   OH264125   1.365   0.061   3.522 -0.2574  0.3184 -0.4958
14237TIP3    H164126   1.332   0.121   3.456  0.4607  0.3382 -0.8448
14237TIP3    H264127   1.460   0.069   3.517 -0.2005  0.5784  0.7795
14238TIP3   OH264128   2.111   3.877   1.788 -0.5975 -0.2307 -0.1762
14238TIP3    H164129   2.192   3.903   1.745 -1.1489 -0.7576 -1.5516
14238TIP3    H264130   2.041   3.902   1.727 -1.3075 -2.2413 -0.2317
14239TIP3   OH264131   2.512   1.507   4.625  1.0759  0.2337 -0.2580
14239TIP3    H164132   2.580   1.532   4.688  0.0627  0.3480  0.8049
14239TIP3    H264133   2.450   1.580   4.627 -0.8493 -1.3818  1.3638
14240TIP3   OH264134   7.097   0.636   3.154 -0.8048 -0.1875 -0.4007
14240TIP3    H164135   7.079   0.696   3.226 -0.3243 -0.8828  0.3095
14240TIP3    H264136   7.130   0.692   3.083  0.6653  0.2620  0.6192
14241TIP3   OH264137   3.570   1.602   0.928  0.4372 -0.0870  0.1349
14241TIP3    H164138   3.542   1.539   0.994  0.7909 -0.7905 -0.3806
14241TIP3    H264139   3.598   1.679   0.978  0.8795 -0.6867  0.8044
14242TIP3   OH264140   0.829   1.420   2.743  0.0534  0.5706 -0.0980
14242TIP3    H164141   0.823   1.348   2.806  0.5087  1.2227  0.6997
14242TIP3    H264142   0.752   1.475   2.761  0.0651  0.6402 -0.2579
14243TIP3   OH264143   6.055   6.585   4.686  0.1356  0.2777  0.2234
14243TIP3    H164144   5.968   6.547   4.704 -1.2676  2.1522 -2.2780
14243TIP3    H264145   6.057   6.664   4.740 -0.8671  1.6883 -1.7494
14244TIP3   OH264146   1.157   1.548   4.518 -0.2789  0.0397  0.3031
14244TIP3    H164147   1.198   1.547   4.432 -1.3997 -3.0103 -0.2538
14244TIP3    H264148   1.140   1.641   4.536  1.0716  0.8041 -2.1940
14245TIP3   OH264149   5.800   2.654   3.365  0.0010 -0.6721  0.2722
14245TIP3    H164150   5.750   2.591   3.418 -1.8126  0.7560  0.3036
14245TIP3    H264151   5.773   2.739   3.398 -2.3935  0.3356 -3.9349
14246TIP3   OH264152   0.508   1.386   3.072  0.2014  0.6564  0.7084
14246TIP3    H164153   0.531   1.452   3.138 -0.5182  2.1612 -0.4986
14246TIP3    H264154   0.418   1.362   3.092  1.2148 -1.7575  2.5857
14247TIP3   OH264155   0.011   1.454   4.672  0.0631  0.3537 -0.3836
14247TIP3    H164156   0.078   1.450   4.740  0.4761  0.1531 -0.8029
14247TIP3    H264157  -0.003   1.547   4.658 -2.4535  0.4844  2.3644
14248TIP3   OH264158   7.138   2.584   0.941 -0.2871  0.7375  0.4472
14248TIP3    H164159   7.043   2.593   0.955 -0.3901  0.0088  0.2707
14248TIP3    H264160   7.177   2.627   1.017 -0.7666  0.9915  0.5543
14249TIP3   OH264161   0.449   7.236   4.599 -0.6266 -0.3231 -0.3257
14249TIP3    H164162   0.444   7.323   4.559 -1.7377  0.1802  0.8859
14249TIP3    H264163   0.358   7.212   4.617 -0.2367 -1.0681  0.7306
14250TIP3   OH264164   1.044   4.369   2.540 -0.2718  0.6589  0.0724
14250TIP3    H164165   1.083   4.296   2.588 -0.8881  0.1564 -0.1897
14250TIP3    H264166   1.118   4.426   2.520  0.1906  0.1864  0.4194
14251TIP3   OH264167   6.144   3.696   2.713 -0.7884 -0.4766 -0.0641
14251TIP3    H164168   6.191   3.618   2.684  0.6296  0.5360 -0.5238
14251TIP3    H264169   6.053   3.668   2.719 -0.3117 -2.1292 -0.3607
14252TIP3   OH264170   0.318   1.919   2.186 -0.0692 -0.0726 -0.0261
14252TIP3    H164171   0.245   1.946   2.242 -2.0295 -1.4861 -1.7739
14252TIP3    H264172   0.387   1.894   2.247 -1.6285 -0.2220  1.7459
14253TIP3   OH264173   0.681   0.981   5.309  0.0048  0.1134  0.5153
14253TIP3    H164174   0.769   0.980   5.270  0.1153 -0.7567  0.7719
14253TIP3    H264175   0.659   1.074   5.316  0.2935  0.3061 -0.9215
14254TIP3   OH264176   2.962   0.507   3.355  0.1724  0.1928 -0.2995
14254TIP3    H164177   2.896   0.502   3.286 -1.1189  0.2569  0.9001
14254TIP3    H264178   2.918   0.552   3.427  1.3538 -0.2452  0.7148
14255TIP3   OH264179   2.415   3.192   5.084 -0.5533  0.0512  0.2457
14255TIP3    H164180   2.487   3.235   5.129 -1.6920  2.1781  0.1185
14255TIP3    H264181   2.346   3.259   5.080 -2.4982 -1.8966  0.3079
14256TIP3   OH264182   7.190   0.533   2.263  0.7929 -0.5274 -0.6880
14256TIP3    H164183   7.257   0.497   2.205  0.1364 -1.3490 -0.9536
14256TIP3    H264184   7.178   0.465   2.330  0.2909 -0.3426 -0.5904
14257TIP3   OH264185   1.925   3.826   4.712  0.0393  0.0763  0.0050
14257TIP3    H164186   1.961   3.898   4.764 -0.9266  0.0907  0.6552
14257TIP3    H264187   1.949   3.747   4.760  2.7056 -0.1815 -1.6562
14258TIP3   OH264188   1.099   0.797   0.802 -0.8540  0.3856  0.5401
14258TIP3    H164189   1.151   0.717   0.811 -0.1421  0.2883 -3.5986
14258TIP3    H264190   1.016   0.776   0.844 -0.8700 -2.7365 -0.9205
14259TIP3   OH264191   2.328   2.898   0.011 -0.9477 -0.0182 -1.0502
14259TIP3    H164192   2.292   2.809   0.009  0.6246 -0.7545  1.0036
14259TIP3    H264193   2.269   2.949  -0.044 -2.3978 -2.1475 -1.5529
14260TIP3   OH264194   0.262   0.324   1.050  0.1956  0.1718  0.2715
14260TIP3    H164195   0.167   0.331   1.061  0.4257  1.2112  1.6902
14260TIP3    H264196   0.298   0.357   1.132  1.8476  2.3113 -1.2749
14261TIP3   OH264197   1.222   4.381   3.590 -0.0633 -0.0995 -0.0309
14261TIP3    H164198   1.272   4.344   3.517  1.5095 -0.0071  0.9658
14261TIP3    H264199   1.147   4.323   3.600  0.9726 -1.5067 -0.2008
14262TIP3   OH264200   0.816   0.826   4.419 -0.2896  0.1205 -0.3020
14262TIP3    H164201   0.769   0.759   4.369 -1.1284  0.3589  0.1471
14262TIP3    H264202   0.776   0.822   4.506  0.2706  0.5925 -0.0252
14263TIP3   OH264203   0.702   0.006   0.757 -0.2487 -0.0190 -0.2563
14263TIP3    H164204   0.697  -0.068   0.817  0.1283  0.8149  0.8244
14263TIP3    H264205   0.616   0.046   0.762 -0.4566 -0.3920 -0.8509
14264TIP3   OH264206   2.187   1.832   1.091 -0.0604 -0.1822  0.4035
14264TIP3    H164207   2.166   1.885   1.167  0.5493  0.7470 -0.0667
14264TIP3    H264208   2.262   1.779   1.119  1.5154  1.6853 -0.2120
14265TIP3   OH264209   0.485   2.842   2.022 -0.0889  0.3994  0.1033
14265TIP3    H164210   0.485   2.903   1.948 -0.7357  0.3463  0.0548
14265TIP3    H264211   0.452   2.894   2.096 -1.0860 -0.0121 -0.0449
14266TIP3   OH264212   0.941   1.341   3.652 -0.2330 -0.3026 -0.3066
14266TIP3    H164213   0.993   1.402   3.600 -0.0639 -1.0665 -1.0481
14266TIP3    H264214   0.878   1.304   3.590  0.1755 -1.4538 -0.0470
14267TIP3   OH264215   1.371   1.715   5.118 -0.1898  0.3537  0.2605
14267TIP3    H164216   1.420   1.694   5.197 -0.7600  2.7952  1.2932
14267TIP3    H264217   1.286   1.747   5.149 -1.1468 -0.4698 -1.4031
14268TIP3   OH264218   2.754   2.415   2.747  0.4185  0.0609 -0.2776
14268TIP3    H164219   2.742   2.423   2.652  0.3820  0.9330 -0.1990
14268TIP3    H264220   2.718   2.496   2.783 -1.5246 -1.1688  0.6536
14269TIP3   OH264221   6.021   3.791   3.743  0.1473 -0.0011  0.0525
14269TIP3    H164222   6.009   3.713   3.797  0.3415  1.0227  1.6298
14269TIP3    H264223   5.940   3.842   3.756  0.6768  0.7884  0.2991
14270TIP3   OH264224   1.646   3.027   1.651 -0.1842  0.1765 -0.2682
14270TIP3    H164225   1.612   2.949   1.606  2.6734 -1.9956  1.1114
14270TIP3    H264226   1.599   3.028   1.734 -0.1091 -0.2151 -0.2162
14271TIP3   OH264227   1.464   3.719   4.941 -0.0475 -0.2903  0.2585
14271TIP3    H164228   1.496   3.716   5.031 -1.8449  1.5274  0.9918
14271TIP3    H264229   1.382   3.768   4.946 -0.3894 -0.5164 -2.3160
14272TIP3   OH264230   2.275   1.745   2.827  0.3142 -0.1162 -0.2652
14272TIP3    H164231   2.289   1.688   2.902  1.7216  1.0076  0.3573
14272TIP3    H264232   2.181   1.762   2.827  0.1399 -1.0490  0.5631
14273TIP3   OH264233   0.371   2.599   2.192  0.0563 -0.1270 -0.4854
14273TIP3    H164234   0.439   2.665   2.184 -0.9687  1.0359  0.1876
14273TIP3    H264235   0.316   2.611   2.115 -0.2638 -0.0328 -0.2452
14274TIP3   OH264236   0.695   3.642  15.480  0.6926 -0.3451 -0.0278
14274TIP3    H164237   0.666   3.733  15.467 -0.1927 -0.6701 -0.4283
14274TIP3    H264238   0.623   3.590  15.444  1.1462 -1.2048  0.3125
14275TIP3   OH264239   1.727   1.484   4.155  0.0835 -0.0945 -0.2957
14275TIP3    H164240   1.670   1.457   4.227 -1.6334 -0.2241 -1.6522
14275TIP3    H264241   1.741   1.578   4.170 -0.6856 -0.0097 -0.0536
14276TIP3   OH264242   2.158   2.253   3.796 -0.5653  0.1320  0.2231
14276TIP3    H164243   2.130   2.342   3.816 -0.1608  0.4025 -0.4025
14276TIP3    H264244   2.082   2.198   3.816  0.0322  0.3011  3.1463
14277TIP3   OH264245   3.465   2.075   1.720  0.1221 -0.1120 -0.5844
14277TIP3    H164246   3.451   2.162   1.682  0.3522 -0.7069 -2.0764
14277TIP3    H264247   3.386   2.026   1.696 -0.8625  0.2091  1.8632
14278TIP3   OH264248   7.250   3.579   2.390 -0.4105  0.7007  0.0666
14278TIP3    H164249   7.332   3.551   2.430 -0.2366  0.0674 -0.7022
14278TIP3    H264250   7.185   3.516   2.423  0.0002 -0.7288 -1.7448
14279TIP3   OH264251   1.933   3.079   1.882  0.1597 -0.2303 -0.3756
14279TIP3    H164252   1.844   3.076   1.917 -1.3460 -0.0113 -3.9189
14279TIP3    H264253   1.981   3.134   1.944 -2.2337 -0.0956  1.4436
14280TIP3   OH264254   2.614   5.574   3.733  0.2158 -0.0539  0.2174
14280TIP3    H164255   2.610   5.481   3.756  0.1902  0.3420  1.9206
14280TIP3    H264256   2.631   5.575   3.639  2.4461 -1.7852  0.5606
14281TIP3   OH264257   1.455   3.297   1.583  0.5618 -0.0671 -0.3906
14281TIP3    H164258   1.528   3.242   1.611  0.4503  0.1796  0.3987
14281TIP3    H264259   1.378   3.254   1.619  0.4673  0.5581  0.1829
14282TIP3   OH264260   1.868   3.597   2.394 -0.2517 -0.0473 -0.1580
14282TIP3    H164261   1.911   3.681   2.376 -0.6613  0.4908  1.2957
14282TIP3    H264262   1.797   3.592   2.329 -0.0252  0.5800 -0.4569
14283TIP3   OH264263   0.520   2.424   4.066  0.0894 -0.0258 -0.5204
14283TIP3    H164264   0.469   2.361   4.014 -0.0681  0.9483 -1.5542
14283TIP3    H264265   0.456   2.491   4.092  0.4643  0.2169 -0.2224
14284TIP3   OH264266   1.613   1.153   2.840 -0.0411  0.2234 -0.6241
14284TIP3    H164267   1.684   1.089   2.843  0.2771  0.6002 -0.1099
14284TIP3    H264268   1.641   1.216   2.774  1.2436  1.7012  1.2736
14285TIP3   OH264269   0.232   1.199   0.358  0.2410 -0.3800 -0.5806
14285TIP3    H164270   0.234   1.104   0.365  1.8123 -0.3144 -0.0535
14285TIP3    H264271   0.320   1.227   0.384 -0.5867  1.2851  0.5003
14286TIP3   OH264272   6.265   4.128   5.035  0.3021  0.2365  0.6687
14286TIP3    H164273   6.246   4.083   5.117  0.6426 -0.3385  0.4315
14286TIP3    H264274   6.248   4.221   5.054 -0.1497  0.0391  1.2240
14287TIP3   OH264275   3.135   0.619   2.587  0.1473 -0.2855  0.3749
14287TIP3    H164276   3.109   0.544   2.534 -1.2366 -0.1166  0.7854
14287TIP3    H264277   3.169   0.582   2.668  0.3153 -0.4930  0.2076
14288TIP3   OH264278   0.258   3.871   0.924 -0.5828  0.1098  0.5672
14288TIP3    H164279   0.249   3.824   0.841  2.0494  1.2733 -0.4129
14288TIP3    H264280   0.306   3.951   0.902 -0.4927  0.7988  3.1001
14289TIP3   OH264281   1.519   1.428  15.503  0.7908 -0.2994 -0.0147
14289TIP3    H164282   1.568   1.505  15.474 -0.9497  0.8797  0.0896
14289TIP3    H264283   1.578   1.384  15.564  1.3134  1.7179  1.0097
14290TIP3   OH264284   1.394   1.805   5.554 -0.0041  0.6167 -0.2938
14290TIP3    H164285   1.346   1.832   5.631 -3.7509 -0.8187 -1.9969
14290TIP3    H264286   1.399   1.883   5.499 -3.2787  0.0828 -1.4643
14291TIP3   OH264287   6.774   1.824   0.133 -0.0806  0.0269 -0.1201
14291TIP3    H164288   6.860   1.859   0.109 -0.5929  0.6921 -1.0234
14291TIP3    H264289   6.713   1.871   0.076 -1.0828 -0.1192  0.8291
14292TIP3   OH264290   6.330   1.731   0.667  0.4309  0.0286 -0.4489
14292TIP3    H164291   6.338   1.734   0.762 -0.6573  1.5151 -0.3983
14292TIP3    H264292   6.419   1.744   0.635  0.4848  1.7238  0.3387
14293TIP3   OH264293   0.625   3.554   2.603  0.3117 -0.2016 -0.3049
14293TIP3    H164294   0.662   3.469   2.578 -1.1405 -0.4877 -1.5620
14293TIP3    H264295   0.701   3.607   2.625  1.2845 -1.6489 -0.0819
14294TIP3   OH264296   2.766   1.693   2.116  0.2487  0.8957  0.1062
14294TIP3    H164297   2.675   1.669   2.097  0.6927 -0.0962 -0.8033
14294TIP3    H264298   2.799   1.622   2.172  0.0149  2.0338  1.7497
14295TIP3   OH264299   1.405   2.545   2.630  0.4141  0.1345 -0.2448
14295TIP3    H164300   1.454   2.491   2.693  2.4827  2.0594 -0.1620
14295TIP3    H264301   1.316   2.546   2.665  0.4903 -2.6110  0.1477
14296TIP3   OH264302   3.809   1.066   0.712  0.4447 -0.5714  0.1269
14296TIP3    H164303   3.778   1.111   0.633  2.8826  0.8908 -0.0519
14296TIP3    H264304   3.762   1.108   0.784 -0.4047 -0.6225 -0.3965
14297TIP3   OH264305   1.436   3.030   0.584 -0.3263 -0.1976 -0.5392
14297TIP3    H164306   1.388   3.099   0.538  2.0145  1.4784 -0.5797
14297TIP3    H264307   1.404   3.035   0.674 -0.8183  0.3460 -0.7396
14298TIP3   OH264308   1.780   6.688   3.558 -0.0606 -0.3905 -0.3929
14298TIP3    H164309   1.703   6.739   3.531  1.1444  1.9114  0.4137
14298TIP3    H264310   1.855   6.737   3.524  1.1407 -1.6706  0.3656
14299TIP3   OH264311   1.068   2.586   2.109  0.4532  0.0601  0.4131
14299TIP3    H164312   0.993   2.581   2.049  0.3670 -0.7915  0.5743
14299TIP3    H264313   1.124   2.653   2.071 -0.6306  1.0736  0.5670
14300TIP3   OH264314   1.667   2.805   2.038  0.2056  0.0056  0.1062
14300TIP3    H164315   1.709   2.812   2.124 -0.8613  1.3642  0.5347
14300TIP3    H264316   1.628   2.892   2.023 -0.9875 -0.7066 -1.0376
14301TIP3   OH264317   2.445   0.434   3.369  0.0752  0.1056  0.7980
14301TIP3    H164318   2.448   0.506   3.432  2.2200  0.2032  0.6211
14301TIP3    H264319   2.534   0.398   3.370 -0.5666 -1.5559 -0.2547
14302TIP3   OH264320   0.908   2.745   1.452 -0.3055  0.2995 -0.0977
14302TIP3    H164321   0.910   2.652   1.475 -0.4873  0.4846  0.6638
14302TIP3    H264322   0.940   2.747   1.362 -2.9381 -0.8341 -1.1315
14303TIP3   OH264323   1.523   2.014   2.938 -0.5083 -0.1085 -0.2886
14303TIP3    H164324   1.513   2.072   3.013 -0.2915 -0.8882  0.3492
14303TIP3    H264325   1.528   1.926   2.976  2.2348 -0.3058 -1.0159
14304TIP3   OH264326   7.031   1.937   1.246  0.5000  0.1261  0.1613
14304TIP3    H164327   6.990   2.014   1.284  1.4171  0.8485 -0.2896
14304TIP3    H264328   7.107   1.971   1.200  0.7867 -1.0268 -0.2301
14305TIP3   OH264329   0.846   2.339   2.586 -0.3639  0.5051 -0.8324
14305TIP3    H164330   0.839   2.342   2.490 -1.3233  0.3267 -0.7781
14305TIP3    H264331   0.806   2.255   2.610 -1.2598  1.1008 -0.1890
14306TIP3   OH264332   7.161   0.604   2.692 -0.9637 -0.0705 -0.1416
14306TIP3    H164333   7.146   0.676   2.630 -0.3453 -1.0044 -1.3928
14306TIP3    H264334   7.124   0.527   2.648  1.2050 -1.1031 -0.1962
14307TIP3   OH264335   0.687   1.593   2.895 -0.3810  0.1957 -0.5052
14307TIP3    H164336   0.633   1.670   2.873 -1.6572 -0.5398 -0.0136
14307TIP3    H264337   0.641   1.553   2.969  1.1662 -0.1414  0.2944
14308TIP3   OH264338   1.466   2.968   1.847  0.6445  0.1267 -0.0525
14308TIP3    H164339   1.392   3.026   1.863  0.6000  0.4961 -1.4811
14308TIP3    H264340   1.431   2.900   1.789  1.2769 -0.0093 -0.2832
14309TIP3   OH264341   7.189   1.566   1.560  0.5222 -0.0322  0.1754
14309TIP3    H164342   7.201   1.550   1.654 -1.0351  1.2596  0.6103
14309TIP3    H264343   7.127   1.639   1.556  1.3666  0.6046 -1.8479
14310TIP3   OH264344   0.176   2.453   1.124 -0.4067 -0.3126 -0.2572
14310TIP3    H164345   0.193   2.380   1.185  2.9557  0.3064 -0.3862
14310TIP3    H264346   0.119   2.415   1.057 -1.0674 -2.0325  1.2300
14311TIP3   OH264347   2.372   5.258   0.969 -0.7832 -0.4082 -0.4914
14311TIP3    H164348   2.406   5.269   1.058  0.5513 -2.7152 -0.7077
14311TIP3    H264349   2.448   5.270   0.912 -1.3295 -0.5501 -1.2576
14312TIP3   OH264350   0.950   1.890   1.733 -0.5862  0.1168 -0.5047
14312TIP3    H164351   0.940   1.961   1.670 -0.7653  0.3350 -0.2308
14312TIP3    H264352   0.886   1.909   1.801 -0.0552  0.1503 -0.0092
14313TIP3   OH264353   0.719   2.902   3.061  0.3025 -0.1329 -0.1815
14313TIP3    H164354   0.814   2.911   3.061  0.1747  1.4165  0.3061
14313TIP3    H264355   0.692   2.932   2.974  0.0809  1.9912  0.5709
14314TIP3   OH264356   3.059   3.692   1.990  0.0410 -0.1527 -0.1598
14314TIP3    H164357   3.031   3.782   2.007  1.2323  0.1306  0.3256
14314TIP3    H264358   3.018   3.670   1.906  0.0441  0.9849 -0.4700
14315TIP3   OH264359   0.972   1.739   1.504 -0.4945 -0.1556 -0.6197
14315TIP3    H164360   0.903   1.680   1.533  1.3553 -1.3479  1.4859
14315TIP3    H264361   0.984   1.800   1.577  1.6882 -0.8941 -0.3339
14316TIP3   OH264362   1.517   5.421   2.001 -0.0374  0.1171  0.0406
14316TIP3    H164363   1.437   5.382   2.035 -1.2102  0.2984 -2.4296
14316TIP3    H264364   1.499   5.515   2.000  0.1059  0.1398 -0.7257
14317TIP3   OH264365   1.902   1.233   2.427  0.7928  0.6603  0.1202
14317TIP3    H164366   1.993   1.263   2.424  0.5104  1.4195 -1.3250
14317TIP3    H264367   1.898   1.175   2.503  2.1154  1.8407  1.1123
14318TIP3   OH264368   1.965   3.123   5.125 -0.0226 -0.2398  0.3037
14318TIP3    H164369   1.973   3.193   5.061 -0.6275 -0.9377 -0.5405
14318TIP3    H264370   2.055   3.095   5.142  0.2234  0.7213  0.6402
14319TIP3   OH264371   1.760   1.959   3.125  0.5379 -0.6333 -0.5217
14319TIP3    H164372   1.706   2.027   3.164 -2.1120 -3.0069  0.1343
14319TIP3    H264373   1.748   1.883   3.183  2.7451 -1.9050 -1.6649
14320TIP3   OH264374   4.524   4.968  15.175  0.9127  0.2032 -0.1320
14320TIP3    H164375   4.585   5.019  15.228  0.4555  0.4017  0.2070
14320TIP3    H264376   4.490   4.901  15.234 -0.6251  1.2662  0.2243
14321TIP3   OH264377   0.257   3.194   4.471  0.2404  0.1214 -0.1115
14321TIP3    H164378   0.245   3.196   4.376  0.2171  0.2870 -0.1053
14321TIP3    H264379   0.334   3.138   4.484  1.4187  1.6190 -0.3630
14322TIP3   OH264380   2.318   6.893   3.995  0.3876  0.5718 -0.2537
14322TIP3    H164381   2.332   6.950   3.919  2.5876  0.9871  0.4547
14322TIP3    H264382   2.405   6.873   4.028 -0.5444  0.9823  2.6203
14323TIP3   OH264383   0.948   2.973   5.073 -0.1334  0.5446 -0.6057
14323TIP3    H164384   1.016   2.916   5.111  0.0189 -0.7800 -2.7526
14323TIP3    H264385   0.929   3.037   5.141  2.0055 -0.1567  0.7002
14324TIP3   OH264386   6.555   2.383   1.096  0.0057  0.2789 -0.3818
14324TIP3    H164387   6.650   2.384   1.088 -0.0384 -0.8295 -1.0045
14324TIP3    H264388   6.522   2.380   1.006 -0.5718 -2.1900 -0.1273
14325TIP3   OH264389   1.407   1.076   3.904  0.0971 -0.6034  0.3701
14325TIP3    H164390   1.472   1.134   3.863 -0.0067 -1.2519 -0.7316
14325TIP3    H264391   1.366   1.130   3.971  0.6144  0.3324 -0.0562
14326TIP3   OH264392   2.698   1.288   1.257 -0.4600  0.5587 -0.1012
14326TIP3    H164393   2.785   1.278   1.295 -1.0243 -1.9978  0.6498
14326TIP3    H264394   2.704   1.247   1.170 -0.9268  0.2505  0.0058
14327TIP3   OH264395   0.771   2.010   4.290 -0.7179  0.8392 -0.5858
14327TIP3    H164396   0.829   2.086   4.288  0.0334  0.2668 -0.9064
14327TIP3    H264397   0.824   1.941   4.331 -1.2309  0.3580 -0.7300
14328TIP3   OH264398   2.357   3.028   0.529  0.3921 -0.4446  0.2931
14328TIP3    H164399   2.274   2.993   0.563  0.1898 -1.1006 -0.8507
14328TIP3    H264400   2.343   3.034   0.435  1.4377  0.0344  0.1691
14329TIP3   OH264401   7.076   2.887   2.096 -0.3123 -0.2951 -0.0474
14329TIP3    H164402   7.014   2.858   2.163 -1.5111 -1.4697 -1.6216
14329TIP3    H264403   7.149   2.925   2.145 -2.1579  0.9034  1.8544
14330TIP3   OH264404   1.498   2.817   1.477  0.2018  0.5682  0.3140
14330TIP3    H164405   1.537   2.883   1.420 -2.2847  1.6730 -0.1397
14330TIP3    H264406   1.499   2.736   1.425  1.7572  0.5986  0.2726
14331TIP3   OH264407   1.184   1.956   3.128 -0.1458 -0.3718 -0.2659
14331TIP3    H164408   1.108   2.005   3.159  0.6396  0.6131  0.1390
14331TIP3    H264409   1.147   1.880   3.082 -1.3547 -0.4058  0.7382
14332TIP3   OH264410   4.943   3.357   3.745 -0.3190  0.8564 -0.9892
14332TIP3    H164411   5.032   3.323   3.746 -0.8673 -0.6033  1.2785
14332TIP3    H264412   4.927   3.385   3.835 -2.8233 -0.7628 -0.8911
14333TIP3   OH264413   1.233   0.549   3.927  0.0413  0.2216 -0.4969
14333TIP3    H164414   1.162   0.614   3.923 -0.8285 -0.5341  1.6310
14333TIP3    H264415   1.311   0.597   3.902 -0.8290  1.7469 -0.3375
14334TIP3   OH264416   1.208   5.583   1.302  0.0251  0.1946  0.0046
14334TIP3    H164417   1.163   5.656   1.344  0.2720 -0.5037  1.5112
14334TIP3    H264418   1.301   5.607   1.306  0.0992 -0.1736  0.4259
14335TIP3   OH264419   0.097   3.251   4.705  0.9008 -0.2301  0.1137
14335TIP3    H164420   0.113   3.218   4.616 -0.8203  1.2873 -0.7985
14335TIP3    H264421   0.081   3.345   4.692  2.8784  0.4500  2.3023
14336TIP3   OH264422   6.576   3.606   2.549  0.3477 -0.9092  0.1454
14336TIP3    H164423   6.522   3.636   2.476 -0.7073 -2.4945  0.2575
14336TIP3    H264424   6.626   3.533   2.513  0.3162 -1.2698  0.8335
14337TIP3   OH264425   2.388   2.963   2.376 -0.9189 -0.0657 -0.1088
14337TIP3    H164426   2.335   3.039   2.401 -1.6672 -1.5180  2.9182
14337TIP3    H264427   2.366   2.896   2.440  2.1253 -1.8281 -0.8034
14338TIP3   OH264428   0.098   1.817   1.594  0.1437 -0.0429  0.0235
14338TIP3    H164429   0.117   1.725   1.612  2.1294  0.3623  0.1055
14338TIP3    H264430   0.003   1.820   1.581 -0.1141 -1.8674  1.3286
14339TIP3   OH264431   1.120   2.458   0.223  0.0437 -0.2034 -0.2437
14339TIP3    H164432   1.118   2.492   0.134 -0.3716  2.1121  0.6016
14339TIP3    H264433   1.046   2.500   0.267  0.5768 -0.8538  1.3372
14340TIP3   OH264434   0.050   2.507   0.456  0.3128 -0.3755  0.2619
14340TIP3    H164435  -0.011   2.512   0.530 -1.3669  0.6737 -1.1538
14340TIP3    H264436   0.088   2.420   0.463 -1.1677 -0.9738  1.3401
14341TIP3   OH264437   0.668   5.575   2.342  0.3809  0.1322  0.8516
14341TIP3    H164438   0.609   5.544   2.411  1.9877 -1.9208  1.3502
14341TIP3    H264439   0.675   5.502   2.281 -0.3890  1.6536 -1.1156
14342TIP3   OH264440   1.520   1.319   2.279 -0.0510  0.8478  0.0657
14342TIP3    H164441   1.613   1.313   2.256 -0.2887 -0.6526 -0.5212
14342TIP3    H264442   1.485   1.387   2.222  0.3395  0.2927 -0.8369
14343TIP3   OH264443   1.458   0.686   4.447  0.6628  0.1037  0.5237
14343TIP3    H164444   1.528   0.682   4.382  0.3676 -0.9281  0.2688
14343TIP3    H264445   1.504   0.700   4.530  0.9783  2.5783 -0.0074
14344TIP3   OH264446   1.587   0.068   2.895 -0.4719  0.1415  0.5534
14344TIP3    H164447   1.630  -0.018   2.892 -0.9416 -0.0977 -4.2705
14344TIP3    H264448   1.644   0.121   2.950  2.0826 -2.1763  0.2627
14345TIP3   OH264449   0.740   1.806   3.196 -0.2085  0.3755  0.1644
14345TIP3    H164450   0.782   1.726   3.165 -0.9828  0.4618 -1.1340
14345TIP3    H264451   0.812   1.858   3.231  0.3968 -0.5889  0.3598
14346TIP3   OH264452   6.502   0.652   3.352  0.4992  0.4379 -0.2825
14346TIP3    H164453   6.526   0.744   3.365 -1.0024  0.7582  0.3989
14346TIP3    H264454   6.544   0.605   3.423 -0.7470  0.9688  0.8266
14347TIP3   OH264455   0.102   0.589   3.868 -0.0706 -0.2483 -0.3042
14347TIP3    H164456   0.081   0.568   3.777  1.9858  0.7201 -1.0502
14347TIP3    H264457   0.091   0.684   3.874  2.1515  0.0456 -0.2544
14348TIP3   OH264458   2.829   2.840   2.392 -0.2309  0.4507  0.0202
14348TIP3    H164459   2.851   2.933   2.402 -0.1545  0.3898  0.4253
14348TIP3    H264460   2.903   2.803   2.344 -1.0784  0.9541 -1.7444
14349TIP3   OH264461   6.138   3.634   1.904  0.2148  0.1717 -0.8119
14349TIP3    H164462   6.054   3.597   1.931  0.3029  1.2571  1.0895
14349TIP3    H264463   6.197   3.559   1.897 -0.7554 -0.5210 -1.5083
14350TIP3   OH264464   1.234   3.113   2.799 -0.0205 -0.3063 -0.0161
14350TIP3    H164465   1.282   3.161   2.732 -0.0764  0.8559  0.7628
14350TIP3    H264466   1.142   3.121   2.774 -0.0326  0.0226  0.1369
14351TIP3   OH264467   1.324   3.267   2.550 -0.2177  0.4485 -0.1240
14351TIP3    H164468   1.278   3.320   2.615  0.5616  1.4860 -0.4039
14351TIP3    H264469   1.350   3.329   2.482  0.8660 -0.2497 -0.3695
14352TIP3   OH264470   5.717   0.573   3.556  0.4146 -0.1171 -0.3878
14352TIP3    H164471   5.794   0.588   3.611 -0.2704  3.1993 -0.2326
14352TIP3    H264472   5.730   0.630   3.480 -1.8345  0.4001 -0.4107
14353TIP3   OH264473   0.202   2.243   1.322  0.0470 -0.2621  0.9675
14353TIP3    H164474   0.134   2.185   1.357  0.6095 -1.4521  0.1151
14353TIP3    H264475   0.281   2.189   1.319  0.2806  0.1495 -1.0582
14354TIP3   OH264476   6.909   5.095   1.109  0.1988  0.0298 -0.2426
14354TIP3    H164477   6.987   5.126   1.155 -1.0915  1.2029  1.2265
14354TIP3    H264478   6.856   5.054   1.178 -1.0622  0.4277 -0.9646
14355TIP3   OH264479   1.029   2.882   4.132  0.5177  0.6957 -0.2369
14355TIP3    H164480   1.023   2.904   4.039 -1.6472  1.9448  0.1475
14355TIP3    H264481   1.015   2.966   4.177  0.3930 -0.0857  1.2163
14356TIP3   OH264482   0.714   3.006   1.830  0.5179  0.0789 -0.1766
14356TIP3    H164483   0.805   2.978   1.831  0.5069  0.0445  0.6228
14356TIP3    H264484   0.669   2.942   1.775  0.4570 -1.6000  1.7492
14357TIP3   OH264485   1.607   4.073   5.848 -0.1092 -0.4703 -0.0002
14357TIP3    H164486   1.563   4.008   5.794 -0.2196 -0.3665 -0.0354
14357TIP3    H264487   1.610   4.152   5.794  1.0285 -0.7645 -0.3820
14358TIP3   OH264488   1.574   1.759   2.662 -0.8659 -0.0496 -0.0335
14358TIP3    H164489   1.480   1.777   2.665 -0.8112  0.4487 -1.1080
14358TIP3    H264490   1.614   1.844   2.641 -0.3507 -0.7497 -1.9695
14359TIP3   OH264491   1.024   2.915   2.955 -0.5508 -0.0741 -0.0537
14359TIP3    H164492   1.094   2.939   2.895 -0.8553 -0.4831 -0.5776
14359TIP3    H264493   1.063   2.925   3.042 -0.7471  2.6083 -0.2148
14360TIP3   OH264494   1.877   0.291   2.920 -0.4100 -0.2693 -0.0320
14360TIP3    H164495   1.838   0.367   2.963 -0.4740  0.4014 -1.2524
14360TIP3    H264496   1.941   0.258   2.984  0.2470  1.3389  0.1772
14361TIP3   OH264497   6.557   2.497   2.186 -0.6191  0.1107 -0.4126
14361TIP3    H164498   6.596   2.529   2.268 -2.0192 -0.2617  0.4151
14361TIP3    H264499   6.632   2.471   2.133  0.3428  0.9037  0.5198
14362TIP3   OH264500   1.537   3.092   2.633 -0.7019 -0.7473 -0.7056
14362TIP3    H164501   1.518   3.169   2.687 -0.6903 -0.0474 -1.6842
14362TIP3    H264502   1.470   3.095   2.564 -0.7061 -1.6217 -0.7403
14363TIP3   OH264503   6.385   3.777   4.389 -0.0598  0.3955 -0.4457
14363TIP3    H164504   6.396   3.837   4.463 -0.7489  1.2706 -1.0470
14363TIP3    H264505   6.291   3.774   4.373 -0.1060 -1.3988  0.0127
14364TIP3   OH264506   0.017   5.210   2.539 -0.3309  0.0358 -0.3384
14364TIP3    H164507   0.036   5.302   2.556  0.1607  0.1616 -1.5012
14364TIP3    H264508   0.031   5.167   2.624  2.0817  0.6220 -0.4087
14365TIP3   OH264509   4.718   4.799   2.262  0.5322  0.5103  0.0661
14365TIP3    H164510   4.681   4.887   2.268  0.4337  0.4135  0.9846
14365TIP3    H264511   4.770   4.790   2.342  0.3324 -0.3563  0.1020
14366TIP3   OH264512   0.771   3.616   4.191  0.0433  0.2076  0.0450
14366TIP3    H164513   0.804   3.569   4.268 -1.2010  2.1871  1.8492
14366TIP3    H264514   0.841   3.607   4.127  2.2767  0.6795  2.2995
14367TIP3   OH264515   0.797   1.527   0.331  0.2251  0.4697 -0.1166
14367TIP3    H164516   0.831   1.480   0.408  0.4650  0.5380 -0.1824
14367TIP3    H264517   0.742   1.462   0.287  1.5836 -0.1587 -0.9119
14368TIP3   OH264518   1.292   1.796   2.631  0.9684  0.3991 -0.7520
14368TIP3    H164519   1.211   1.751   2.654  0.5667  1.5336  0.0884
14368TIP3    H264520   1.304   1.779   2.538  0.0189 -0.1615 -0.7752
14369TIP3   OH264521   3.816   4.537   3.483 -0.3317  0.5212  0.2267
14369TIP3    H164522   3.876   4.583   3.425 -0.9049  0.6196 -0.3040
14369TIP3    H264523   3.732   4.580   3.468 -0.4929  0.4970  1.0823
14370TIP3   OH264524   0.864   2.241   1.703 -0.4190 -0.0430 -0.5252
14370TIP3    H164525   0.890   2.224   1.793 -2.2479 -1.3608 -0.2167
14370TIP3    H264526   0.843   2.334   1.701  2.0399  0.5734 -0.2524
14371TIP3   OH264527   2.956   2.672   3.767  0.2264 -0.3408  0.3018
14371TIP3    H164528   2.978   2.662   3.860  0.1509  0.5681  0.4232
14371TIP3    H264529   2.888   2.606   3.752  1.3071 -1.5278  0.5106
14372TIP3   OH264530   2.568   2.825   3.051 -0.4833  0.1381 -0.1372
14372TIP3    H164531   2.581   2.793   2.961  0.2571  1.1794 -0.4057
14372TIP3    H264532   2.607   2.912   3.051  0.6892 -0.3863  1.5697
14373TIP3   OH264533   1.277   2.806   4.184  0.0392 -0.3822 -0.4916
14373TIP3    H164534   1.275   2.902   4.180 -0.4948 -0.4263 -1.2657
14373TIP3    H264535   1.187   2.779   4.170 -0.1784 -0.9483  1.7065
14374TIP3   OH264536   1.908   3.087   3.311  0.6854 -0.1322  0.1438
14374TIP3    H164537   1.944   3.174   3.295  0.0350  0.0916 -0.0861
14374TIP3    H264538   1.979   3.040   3.356  0.2058  1.2680  2.4523
14375TIP3   OH264539   0.616   3.224   3.263 -0.0901  0.0608  0.0450
14375TIP3    H164540   0.589   3.133   3.251 -0.0611  0.1582 -0.8297
14375TIP3    H264541   0.620   3.236   3.358 -1.0979 -0.5492  0.1731
14376TIP3   OH264542   6.945   4.311   3.579  0.1116 -0.2502 -0.3325
14376TIP3    H164543   6.888   4.312   3.656  0.1380 -1.1604 -0.2974
14376TIP3    H264544   6.995   4.230   3.587  0.1983 -0.2911 -1.2510
14377TIP3   OH264545   0.721   0.469   4.312  0.2551  0.0819  0.3572
14377TIP3    H164546   0.765   0.385   4.297  1.3195  0.3984  1.5914
14377TIP3    H264547   0.753   0.526   4.242  0.4081 -0.2215  0.1778
14378TIP3   OH264548   1.466   3.508   4.357 -0.2253  0.9503  0.0967
14378TIP3    H164549   1.375   3.493   4.382 -0.0481 -2.2192 -0.9146
14378TIP3    H264550   1.517   3.480   4.432  0.0026  0.3279 -0.2906
14379TIP3   OH264551   2.168   1.889   5.435 -0.0274  0.0890  0.0375
14379TIP3    H164552   2.213   1.899   5.351  2.4713 -0.1202  1.2958
14379TIP3    H264553   2.216   1.945   5.495 -1.4344 -0.1947  1.4766
14380TIP3   OH264554   6.532   1.736   4.363 -0.1325 -0.4164 -0.3889
14380TIP3    H164555   6.602   1.691   4.411  1.1465  0.7866 -1.0847
14380TIP3    H264556   6.451   1.705   4.404  0.8631 -0.6451  1.4752
14381TIP3   OH264557   0.075   0.672   1.176 -0.3768  0.1108 -0.2883
14381TIP3    H164558   0.115   0.705   1.256  0.8871 -0.1435 -0.7992
14381TIP3    H264559   0.008   0.610   1.206  0.2645 -0.1751  0.5570
14382TIP3   OH264560   1.430   3.188   4.500 -0.0169  1.0063 -0.2441
14382TIP3    H164561   1.507   3.134   4.483  0.7978  2.2937 -0.7602
14382TIP3    H264562   1.466   3.274   4.522 -1.2265  0.8336  2.5774
14383TIP3   OH264563   0.377   1.541   2.411 -0.5923  0.4597 -0.5264
14383TIP3    H164564   0.301   1.538   2.353  0.7374  0.5836 -2.3273
14383TIP3    H264565   0.341   1.564   2.497 -2.6487 -0.1347 -1.1951
14384TIP3   OH264566   6.951   5.126   2.478  0.3015 -0.3019  0.1145
14384TIP3    H164567   6.898   5.046   2.477  0.2467 -0.2875  0.9714
14384TIP3    H264568   7.010   5.117   2.404  1.1339 -1.7131  0.9064
14385TIP3   OH264569   6.868   2.806   2.485  0.2621  0.5053  0.4583
14385TIP3    H164570   6.786   2.848   2.460  0.3439  1.1580  1.2464
14385TIP3    H264571   6.910   2.868   2.545  1.2049  0.0632  0.2756
14386TIP3   OH264572   1.228   1.862   1.210  0.1038 -0.4322 -0.4744
14386TIP3    H164573   1.315   1.886   1.243  0.0442  0.1475 -0.7399
14386TIP3    H264574   1.194   1.942   1.171 -1.0674 -0.3204  0.7222
14387TIP3   OH264575   1.427   1.182   1.570  0.1804 -0.1960  0.2838
14387TIP3    H164576   1.456   1.265   1.533 -0.8267  1.4162  2.9770
14387TIP3    H264577   1.331   1.183   1.559  0.2090 -1.2457 -0.1266
14388TIP3   OH264578   2.102   3.581   3.572 -0.1029  0.2382  0.2283
14388TIP3    H164579   2.065   3.546   3.653 -0.2562  0.9664  0.4786
14388TIP3    H264580   2.180   3.630   3.600  1.4302 -1.7874 -0.3545
14389TIP3   OH264581   2.446   3.195   3.188  0.0677 -0.0760 -0.3569
14389TIP3    H164582   2.458   3.178   3.282 -1.4537 -1.3332 -0.3643
14389TIP3    H264583   2.364   3.244   3.183 -1.4085 -2.5309 -1.2200
14390TIP3   OH264584   3.951   2.638   0.974  0.0795  0.0166 -0.4288
14390TIP3    H164585   3.890   2.693   0.924 -0.4433  1.1062  1.3675
14390TIP3    H264586   4.011   2.603   0.908 -0.7139  1.2654 -1.8428
14391TIP3   OH264587   3.055   4.212   1.090 -0.4302  0.2044  0.6561
14391TIP3    H164588   2.989   4.227   1.159 -0.3898 -0.3607  0.8189
14391TIP3    H264589   3.102   4.295   1.084 -0.7236  0.3995  1.0045
14392TIP3   OH264590   2.367   1.626   1.475  0.2806 -0.6496  0.4474
14392TIP3    H164591   2.396   1.710   1.438 -1.7894 -0.2255 -0.2379
14392TIP3    H264592   2.346   1.646   1.566  0.6850 -0.6350  0.5392
14393TIP3   OH264593   1.776   2.882   4.350 -0.4730  0.0243  0.8860
14393TIP3    H164594   1.736   2.796   4.344  2.1942 -1.3717  1.9753
14393TIP3    H264595   1.871   2.864   4.351  0.1617  3.0393 -0.1073
14394TIP3   OH264596   2.322   4.880  14.777  0.1355 -0.2687  0.3927
14394TIP3    H164597   2.340   4.860  14.685 -0.8283 -0.7036  0.2976
14394TIP3    H264598   2.386   4.947  14.799  0.5898 -0.3944 -0.5051
14395TIP3   OH264599   1.418   3.025   1.117 -0.1986  0.1022 -0.3094
14395TIP3    H164600   1.438   3.059   1.030  1.9441 -1.0467 -0.2895
14395TIP3    H264601   1.322   3.018   1.118 -0.2452  0.0492 -2.5845
14396TIP3   OH264602   0.808   1.348   3.884 -0.2441 -0.0538  0.9150
14396TIP3    H164603   0.854   1.334   3.801 -0.8849 -2.1133  0.8789
14396TIP3    H264604   0.851   1.289   3.946 -1.7030 -0.7199  1.3099
14397TIP3   OH264605   7.260   2.220   3.491 -0.5548 -0.5201  0.9386
14397TIP3    H164606   7.310   2.143   3.464 -0.0656  0.5061 -1.1741
14397TIP3    H264607   7.316   2.263   3.556  0.5370 -0.3275 -0.1142
14398TIP3   OH264608   1.077   3.095   4.320 -0.6592 -0.3859 -0.4355
14398TIP3    H164609   1.080   3.087   4.416 -0.2665  1.0765 -0.3230
14398TIP3    H264610   1.168   3.101   4.293 -0.7549 -1.0958 -0.9403
14399TIP3   OH264611   0.316   2.286   2.168  0.0271 -0.2242  0.1553
14399TIP3    H164612   0.354   2.374   2.169  0.2575 -0.3292  0.6468
14399TIP3    H264613   0.368   2.238   2.103 -1.0719  0.4287 -1.2369
14400TIP3   OH264614   1.540   1.734   1.190  0.4357 -0.3921 -0.0452
14400TIP3    H164615   1.502   1.805   1.241 -2.0756 -1.0387 -0.9570
14400TIP3    H264616   1.564   1.668   1.256 -1.1872 -0.4925  0.4595
14401TIP3   OH264617   3.611   3.851   0.595  0.6458  0.5206 -0.1545
14401TIP3    H164618   3.551   3.810   0.534 -0.5315  0.9304  0.7027
14401TIP3    H264619   3.616   3.790   0.669  1.0813  0.6072 -0.1119
14402TIP3   OH264620   2.845   4.593   3.723 -0.8948  0.3774  0.2075
14402TIP3    H164621   2.792   4.640   3.659 -0.3489  0.9438  0.1640
14402TIP3    H264622   2.788   4.524   3.757 -1.7779  1.2249  0.4457
14403TIP3   OH264623   0.356   2.657   4.122  0.0947 -0.6318 -0.3087
14403TIP3    H164624   0.279   2.701   4.084 -0.5002 -1.1729  0.2731
14403TIP3    H264625   0.422   2.727   4.128  0.0469 -0.4176 -1.8805
14404TIP3   OH264626   0.555   1.851   2.919  0.5087  0.3148 -0.5660
14404TIP3    H164627   0.468   1.862   2.959  1.0566 -1.6896  1.2498
14404TIP3    H264628   0.614   1.898   2.978  1.1765 -1.7945  0.5124
14405TIP3   OH264629   1.441   2.588   4.217  0.0106 -0.1523  0.7383
14405TIP3    H164630   1.381   2.656   4.246 -0.4683  0.1947 -1.0150
14405TIP3    H264631   1.509   2.634   4.169 -0.0979 -0.8765 -0.1163
14406TIP3   OH264632   1.877   2.746   3.840 -0.3199 -0.4659  0.3091
14406TIP3    H164633   1.886   2.789   3.925  0.1587 -0.1340  0.0954
14406TIP3    H264634   1.815   2.801   3.792 -1.3032 -1.1658  0.7690
14407TIP3   OH264635   0.736   3.234   1.970 -0.0420 -0.2214  0.1758
14407TIP3    H164636   0.811   3.223   2.029  2.0757 -1.5541 -2.6387
14407TIP3    H264637   0.739   3.157   1.913 -2.3578  0.7331 -1.3171
14408TIP3   OH264638   0.150   4.086   2.830 -0.0539  0.0782  0.5607
14408TIP3    H164639   0.239   4.110   2.857  0.1905 -0.8828  0.6150
14408TIP3    H264640   0.116   4.032   2.901 -0.6312  0.3289  0.4763
14409TIP3   OH264641   3.340   2.839   3.647 -0.1695 -0.1409  0.1369
14409TIP3    H164642   3.407   2.784   3.687 -0.3897  1.1107  2.2434
14409TIP3    H264643   3.387   2.915   3.613  0.1381 -1.5427 -2.8027
14410TIP3   OH264644   0.513   6.131   2.388  0.3569  0.3885 -0.1388
14410TIP3    H164645   0.545   6.052   2.345  1.9424 -0.8004  3.1129
14410TIP3    H264646   0.442   6.101   2.444 -1.5009  1.8849 -1.6019
14411TIP3   OH264647   1.275   0.459   3.631  0.4381  0.1645  0.2052
14411TIP3    H164648   1.183   0.436   3.639  0.2016  0.4526 -1.4340
14411TIP3    H264649   1.306   0.467   3.721 -0.5020 -2.4095  0.8092
14412TIP3   OH264650   0.640   6.396   1.507 -0.2258 -0.4187  0.4071
14412TIP3    H164651   0.550   6.414   1.480 -0.2595 -1.0943  0.0741
14412TIP3    H264652   0.642   6.302   1.525  1.1963 -1.0423 -2.6544
14413TIP3   OH264653   7.190   2.133   2.676  0.0936  0.9871  0.8607
14413TIP3    H164654   7.275   2.131   2.721  0.4700  0.4586  0.1395
14413TIP3    H264655   7.201   2.200   2.608  0.9858 -1.2283 -1.2517
14414TIP3   OH264656   6.877   3.279   4.014 -0.0125 -0.1599  0.1405
14414TIP3    H164657   6.911   3.368   4.014  0.2169 -0.2363  0.9561
14414TIP3    H264658   6.795   3.285   4.065  0.0708 -0.4316  0.3100
14415TIP3   OH264659   1.182   1.972   3.865  1.3325 -0.3704  0.0636
14415TIP3    H164660   1.131   2.035   3.814  1.5753 -0.1379  0.1102
14415TIP3    H264661   1.224   1.917   3.799  1.0457 -0.5455  0.0246
14416TIP3   OH264662   1.349   3.075   5.841 -0.2824 -0.4823 -0.4947
14416TIP3    H164663   1.421   3.136   5.828 -2.4905  1.7598 -2.5870
14416TIP3    H264664   1.386   2.990   5.816  2.5909  0.0521  1.6910
14417TIP3   OH264665   2.958   4.362   2.384  0.3847  0.0278 -0.2223
14417TIP3    H164666   2.864   4.353   2.371  0.4891 -0.5361 -0.6085
14417TIP3    H264667   2.968   4.374   2.479 -0.0238 -0.6773 -0.0894
14418TIP3   OH264668   6.435   2.717   3.412  0.8116  0.3262 -0.0731
14418TIP3    H164669   6.513   2.695   3.464  0.6255  0.0171  0.0777
14418TIP3    H264670   6.438   2.657   3.338 -0.6630 -1.4695  1.2732
14419TIP3   OH264671   6.896   4.948   3.394  0.0317 -0.7381  0.2874
14419TIP3    H164672   6.880   5.019   3.332  0.9207 -0.8199 -0.0408
14419TIP3    H264673   6.833   4.880   3.369  0.0028 -0.5435 -0.1736
14420TIP3   OH264674   0.657   4.952   4.302  0.1321 -0.2798  0.1277
14420TIP3    H164675   0.586   4.888   4.297 -0.8134  0.8009 -0.5342
14420TIP3    H264676   0.685   4.950   4.394  0.7531 -2.2989 -0.0773
14421TIP3   OH264677   2.003   3.348   3.378 -0.0503 -0.0128  0.1671
14421TIP3    H164678   1.972   3.427   3.422  1.7359  0.6734  0.2296
14421TIP3    H264679   2.084   3.326   3.422  0.9903 -0.1910 -1.7724
14422TIP3   OH264680   0.749   5.780   2.856 -0.1550 -0.2543  0.9336
14422TIP3    H164681   0.762   5.691   2.889 -1.7304 -0.6202  0.6324
14422TIP3    H264682   0.824   5.796   2.799  0.0529 -1.4624  0.8454
14423TIP3   OH264683   1.593   2.617   5.971  0.0594 -0.2178  0.2378
14423TIP3    H164684   1.684   2.636   5.946 -0.2409 -0.2001 -0.8372
14423TIP3    H264685   1.597   2.604   6.066  1.3908 -1.3638  0.0397
14424TIP3   OH264686   3.085   2.214   3.724  0.6454 -0.1951 -0.1765
14424TIP3    H164687   3.027   2.258   3.661  2.2397  0.5046 -1.1909
14424TIP3    H264688   3.027   2.185   3.794 -0.8358  1.1666 -0.8059
14425TIP3   OH264689   2.385   4.405   3.326  0.1685  0.1273 -0.0190
14425TIP3    H164690   2.414   4.381   3.414  3.0590 -1.4139 -1.3277
14425TIP3    H264691   2.359   4.497   3.334  0.8947  0.1603  2.3369
14426TIP3   OH264692   1.195   2.085   2.036 -0.1093 -0.8852 -0.2274
14426TIP3    H164693   1.138   2.161   2.030  3.2858  1.7387 -0.5760
14426TIP3    H264694   1.196   2.063   2.129  2.5129  2.4906  0.6403
14427TIP3   OH264695   2.589   0.684   3.500  0.1778  0.3731  0.3212
14427TIP3    H164696   2.522   0.749   3.479 -0.6652 -1.0217 -1.4201
14427TIP3    H264697   2.671   0.723   3.470 -0.3661  0.4971 -1.0336
14428TIP3   OH264698   2.867   1.443   2.309  0.7872  0.0164 -0.0668
14428TIP3    H164699   2.931   1.510   2.335 -2.4733  2.8386  1.0344
14428TIP3    H264700   2.838   1.405   2.392 -2.1822  1.8987 -0.1885
14429TIP3   OH264701   0.830   2.489   4.006 -0.3760 -0.1967 -0.4062
14429TIP3    H164702   0.741   2.487   4.039 -0.3607 -1.2275 -0.3963
14429TIP3    H264703   0.825   2.449   3.919 -0.0686  0.5445 -0.7666
14430TIP3   OH264704   3.086   3.530   1.080 -0.1804 -0.1599 -0.3245
14430TIP3    H164705   3.068   3.455   1.024 -0.3887 -0.6977  0.4550
14430TIP3    H264706   3.114   3.491   1.163  0.8868  0.6325 -0.3099
14431TIP3   OH264707   0.562   6.846   1.877 -0.0455  0.1904 -0.0362
14431TIP3    H164708   0.591   6.756   1.893  0.0343  0.0756 -0.8139
14431TIP3    H264709   0.474   6.838   1.842 -1.0780  0.5508  2.4135
14432TIP3   OH264710   7.030   0.976   2.061 -0.4356  0.1442 -0.1587
14432TIP3    H164711   6.939   0.947   2.052 -1.6323  3.4095  0.9192
14432TIP3    H264712   7.046   0.977   2.155  1.0240 -1.2235 -0.3686
14433TIP3   OH264713   1.212   0.610   1.047 -0.2734  0.3312 -0.0168
14433TIP3    H164714   1.128   0.565   1.045  0.2299 -0.6110 -0.0614
14433TIP3    H264715   1.255   0.586   0.965  0.3331  0.2443  0.3247
14434TIP3   OH264716   6.310   7.044   3.803 -0.1570 -0.4115  0.3133
14434TIP3    H164717   6.239   7.000   3.850  0.1063 -0.0515  1.0526
14434TIP3    H264718   6.268   7.120   3.762  0.0897  0.6227  1.9644
14435TIP3   OH264719   7.280   3.300  15.583  0.3781 -0.2587 -0.5698
14435TIP3    H164720   7.278   3.274  15.675  0.7419 -0.3655 -0.5900
14435TIP3    H264721   7.368   3.278  15.554 -0.0004 -1.0425 -1.1743
14436TIP3   OH264722   1.029   1.669   2.135  0.0903  0.2690 -0.2397
14436TIP3    H164723   1.072   1.607   2.194 -0.8745  0.4792  0.6941
14436TIP3    H264724   1.101   1.715   2.092  0.8155 -0.9016 -0.3213
14437TIP3   OH264725   1.733   3.609   0.921  0.2745 -0.6381 -0.1345
14437TIP3    H164726   1.703   3.695   0.890 -1.4742 -0.7576  1.1202
14437TIP3    H264727   1.788   3.576   0.850 -0.8503  0.5536 -1.6082
14438TIP3   OH264728   2.780   3.306   2.749 -0.4044  0.6423 -0.5871
14438TIP3    H164729   2.763   3.365   2.823  2.0713 -0.6909  1.1177
14438TIP3    H264730   2.701   3.251   2.744 -0.7529  0.9756  0.8693
14439TIP3   OH264731   2.505   1.464   2.664 -0.2358 -0.1862 -0.3225
14439TIP3    H164732   2.524   1.486   2.755 -0.5203  0.4833 -0.4211
14439TIP3    H264733   2.422   1.416   2.668  0.2877 -1.0787 -0.1260
14440TIP3   OH264734   1.247   2.217   3.050 -1.0077 -0.3477 -0.2698
14440TIP3    H164735   1.298   2.270   3.111  0.1227  0.7108 -2.0909
14440TIP3    H264736   1.250   2.128   3.087 -0.3790  0.2816  1.2212
14441TIP3   OH264737   0.190   1.906   3.860 -0.0303 -0.0836 -0.2940
14441TIP3    H164738   0.228   1.819   3.873 -0.4218 -0.3241 -0.7438
14441TIP3    H264739   0.255   1.952   3.807  0.1547 -0.1133 -0.0975
14442TIP3   OH264740   1.238   4.999   1.535 -0.2280  0.3822  0.0623
14442TIP3    H164741   1.175   5.053   1.585 -0.0714 -3.0065  4.2213
14442TIP3    H264742   1.187   4.923   1.507  1.3716 -1.1390  1.2180
14443TIP3   OH264743   2.678   1.808   4.419  0.5831  0.6953  0.1025
14443TIP3    H164744   2.690   1.835   4.328  0.4897  0.8330  0.1315
14443TIP3    H264745   2.682   1.712   4.416  0.2379  0.6866 -0.0966
14444TIP3   OH264746   0.039   3.104   4.929 -0.4192  0.1741  0.1457
14444TIP3    H164747   0.074   3.129   4.844 -3.4379 -0.6501 -1.4119
14444TIP3    H264748  -0.053   3.130   4.925 -0.5967  0.1644  3.1863
14445TIP3   OH264749   0.821   1.593   1.934 -0.5087  0.6305  0.0423
14445TIP3    H164750   0.887   1.646   1.979 -0.5414  1.1122 -0.4679
14445TIP3    H264751   0.742   1.646   1.937 -0.4493  0.7770 -0.7950
14446TIP3   OH264752   0.051   2.868   3.431  0.1641 -0.0132 -0.2899
14446TIP3    H164753   0.050   2.777   3.399 -1.1278  1.0966 -3.6402
14446TIP3    H264754  -0.040   2.884   3.457  0.4404  0.2713  0.5042
14447TIP3   OH264755   3.947   2.700   3.196 -0.0380  0.1357  0.2681
14447TIP3    H164756   3.986   2.785   3.216 -2.2635  1.5810 -1.2723
14447TIP3    H264757   3.899   2.675   3.275  1.9177 -0.4709  1.2837
14448TIP3   OH264758   3.593   2.966   3.828 -0.0270 -0.3531  0.6924
14448TIP3    H164759   3.575   2.997   3.739  1.2662 -0.8260  0.2608
14448TIP3    H264760   3.640   2.884   3.816  0.0209 -0.4965  1.8153
14449TIP3   OH264761   0.487   2.726   2.543  0.3191  0.2766  0.0750
14449TIP3    H164762   0.481   2.639   2.582 -1.0460 -0.4213 -1.6076
14449TIP3    H264763   0.396   2.748   2.522  0.8703  1.3074 -1.2347
14450TIP3   OH264764   3.055   1.226   2.905  0.8099  0.1180  0.0189
14450TIP3    H164765   3.125   1.264   2.852  0.2099  0.9446 -0.1795
14450TIP3    H264766   3.050   1.135   2.875  0.5948  0.5311 -1.2387
14451TIP3   OH264767   2.109   3.440   2.475 -0.5737 -0.4565  0.7592
14451TIP3    H164768   2.162   3.519   2.471  0.1562 -0.8896  1.7808
14451TIP3    H264769   2.020   3.471   2.494 -0.6223  0.2311 -0.5406
14452TIP3   OH264770   2.493   1.607   1.007  0.3362 -0.0370 -0.2063
14452TIP3    H164771   2.424   1.603   1.074  1.0367 -0.2409  0.5186
14452TIP3    H264772   2.449   1.641   0.929 -0.5820 -0.1613  0.2475
14453TIP3   OH264773   2.623   0.291   4.029 -0.1147 -0.2195 -0.3645
14453TIP3    H164774   2.695   0.262   3.973  1.6464  1.0356  1.1926
14453TIP3    H264775   2.651   0.269   4.118 -2.6501 -1.7477  0.1254
14454TIP3   OH264776   2.799   1.003   4.016  0.4148 -0.4022  0.0360
14454TIP3    H164777   2.812   0.916   4.054 -1.5675 -0.6545  0.2022
14454TIP3    H264778   2.859   1.060   4.064  2.3623 -1.8125 -0.6530
14455TIP3   OH264779   3.277   2.110   4.224 -0.3608  0.2942 -0.5312
14455TIP3    H164780   3.231   2.177   4.275 -0.5822 -1.1446  1.1968
14455TIP3    H264781   3.222   2.032   4.230  1.1370 -0.7798 -0.3619
14456TIP3   OH264782   1.763   1.955   2.588  0.0710  0.5326  0.1626
14456TIP3    H164783   1.772   1.995   2.675  0.2442 -1.2067  0.9671
14456TIP3    H264784   1.853   1.945   2.557  0.1839 -1.4470  1.0259
14457TIP3   OH264785   3.120   2.476   2.106 -0.4856 -0.1439  0.2224
14457TIP3    H164786   3.213   2.463   2.119 -0.4570  0.7532  0.9586
14457TIP3    H264787   3.110   2.484   2.011  0.1593 -0.4003  0.1324
14458TIP3   OH264788   1.217   2.769   1.978  0.0958  0.3297 -1.1630
14458TIP3    H164789   1.266   2.847   2.005  3.0316 -2.7551  3.1496
14458TIP3    H264790   1.271   2.729   1.911  0.1437  0.3943 -1.1632
14459TIP3   OH264791   5.040   1.405   1.943  0.5915  0.1989  0.2998
14459TIP3    H164792   5.083   1.485   1.914 -1.1207  1.6311  1.5989
14459TIP3    H264793   5.062   1.399   2.036 -1.8445  0.8778  0.9505
14460TIP3   OH264794   3.178   0.497   3.976  0.6092  0.0687 -0.4918
14460TIP3    H164795   3.235   0.422   3.963  1.1919  0.4451 -0.1139
14460TIP3    H264796   3.103   0.462   4.023  2.2038  0.2595  2.2951
14461TIP3   OH264797   1.468   2.317   4.220  0.6141 -0.2238 -0.7766
14461TIP3    H164798   1.465   2.412   4.235  3.3712 -0.5606  2.5449
14461TIP3    H264799   1.398   2.281   4.275  0.1425 -0.1941 -1.3546
14462TIP3   OH264800   3.875   5.271   5.098  0.2613 -0.0152  0.9759
14462TIP3    H164801   3.829   5.295   5.179 -0.3049  1.2793  0.2922
14462TIP3    H264802   3.879   5.353   5.048  0.1596 -0.9144 -0.5263
14463TIP3   OH264803   1.773   1.450   4.512  0.6272  0.8167 -0.5840
14463TIP3    H164804   1.863   1.454   4.478  1.2739  0.9006  1.0827
14463TIP3    H264805   1.772   1.371   4.566 -0.3477  0.7391 -0.7201
14464TIP3   OH264806   2.927   3.291   2.194 -0.1854 -0.0598 -0.5606
14464TIP3    H164807   2.843   3.338   2.201  0.2638  0.8139 -0.9370
14464TIP3    H264808   2.993   3.358   2.215  0.4159 -0.7562 -0.2286
14465TIP3   OH264809   0.527   2.028   4.208 -0.4658  0.4104  0.4667
14465TIP3    H164810   0.494   1.973   4.280 -0.1173  0.7973  0.9291
14465TIP3    H264811   0.622   2.022   4.215 -0.4331 -0.5620 -0.7540
14466TIP3   OH264812   1.975   0.203   3.398 -0.0754 -0.2643 -0.3828
14466TIP3    H164813   2.018   0.207   3.483  1.7567 -1.4416 -1.2216
14466TIP3    H264814   1.945   0.293   3.381 -0.9048 -0.1252  1.6951
14467TIP3   OH264815   3.105   2.822   2.515  0.3260 -0.4100  0.0138
14467TIP3    H164816   3.108   2.829   2.420  1.6300 -1.0027  0.0017
14467TIP3    H264817   3.145   2.737   2.534  2.2341  0.7251  1.2203
14468TIP3   OH264818   3.339   2.715   3.965 -0.1232  0.2214  0.8778
14468TIP3    H164819   3.401   2.781   3.932  1.1700  0.0637  2.8429
14468TIP3    H264820   3.253   2.754   3.951  0.4778  0.9605 -0.8712
14469TIP3   OH264821   2.099   2.792   3.020  0.4683 -0.2072  0.2509
14469TIP3    H164822   2.139   2.782   3.106 -1.3992 -0.8022  1.0913
14469TIP3    H264823   2.012   2.754   3.030 -0.0679  0.4424 -1.6901
14470TIP3   OH264824   1.765   0.135   1.591  0.0601 -0.4195  0.3792
14470TIP3    H164825   1.677   0.171   1.584  0.1826  0.3247  2.4253
14470TIP3    H264826   1.758   0.065   1.656  0.2889 -2.6905 -1.9306
14471TIP3   OH264827   5.086   5.397   2.546 -0.1101 -0.2687 -0.5386
14471TIP3    H164828   5.162   5.394   2.604  0.8336  0.0223 -1.7348
14471TIP3    H264829   5.012   5.412   2.604  0.7056 -0.8833  0.6818
14472TIP3   OH264830   2.704   2.499   3.123 -0.2458 -0.0549  0.6090
14472TIP3    H164831   2.665   2.546   3.049 -0.7159  0.0167  0.9015
14472TIP3    H264832   2.783   2.548   3.145  1.5086 -1.7063 -1.7420
14473TIP3   OH264833   4.440   2.879   3.622 -0.3192  0.8756 -0.6239
14473TIP3    H164834   4.380   2.916   3.557 -0.8479  0.2079 -0.5237
14473TIP3    H264835   4.527   2.900   3.588 -0.6010  1.8916 -0.7496
14474TIP3   OH264836   1.405   0.787   4.126 -0.1240  0.0473 -0.1178
14474TIP3    H164837   1.367   0.803   4.040 -1.3888 -2.2460 -0.0197
14474TIP3    H264838   1.330   0.775   4.184  0.6862 -2.4561  0.4790
14475TIP3   OH264839   2.316   2.721   2.497  0.7666 -0.0126 -0.2610
14475TIP3    H164840   2.358   2.636   2.510  1.7953  0.6147  0.5594
14475TIP3    H264841   2.297   2.753   2.585 -2.5699 -0.8109 -0.5998
14476TIP3   OH264842   4.836   2.170   3.688  0.3983  0.4785  0.0647
14476TIP3    H164843   4.831   2.214   3.773 -0.5752  0.1242  0.1956
14476TIP3    H264844   4.838   2.077   3.709  0.9004  0.4103 -0.2736
14477TIP3   OH264845   2.244   4.238   3.690 -0.1382  0.5549  0.0814
14477TIP3    H164846   2.231   4.172   3.622 -3.0601  0.5914  0.5559
14477TIP3    H264847   2.209   4.319   3.652  2.0041  1.5268  0.0958
14478TIP3   OH264848   2.481   1.656   3.727  0.2139 -0.0439  0.0810
14478TIP3    H164849   2.469   1.566   3.698 -0.5873 -0.2803  1.1132
14478TIP3    H264850   2.575   1.664   3.743  0.5093 -0.2369 -1.4613
14479TIP3   OH264851   0.981   2.631   4.199  0.0581  0.5803 -0.0920
14479TIP3    H164852   0.938   2.588   4.125  1.5674  0.2714 -0.8104
14479TIP3    H264853   0.974   2.724   4.181 -1.3704  0.5980  0.4223
14480TIP3   OH264854   6.309   4.305   2.663  0.1178 -0.0766  0.1329
14480TIP3    H164855   6.297   4.222   2.617 -0.4627  1.0381 -1.8330
14480TIP3    H264856   6.396   4.299   2.702 -0.3818 -2.0473  1.0235
14481TIP3   OH264857   2.089   4.782   4.250  0.2686 -0.2744 -0.1595
14481TIP3    H164858   2.035   4.837   4.306 -0.5404  0.1671 -1.3407
14481TIP3    H264859   2.042   4.699   4.245  0.2045 -0.2247 -0.3890
14482TIP3   OH264860   2.936   2.135   4.248 -0.1113 -0.7030  0.5462
14482TIP3    H164861   2.894   2.154   4.332  0.0195 -0.8669  0.6510
14482TIP3    H264862   2.979   2.050   4.263 -0.1825 -0.7847  0.2784
14483TIP3   OH264863   2.576   2.582   4.298  0.1095 -0.5754  0.1741
14483TIP3    H164864   2.518   2.654   4.323  1.2592  0.2746  0.4059
14483TIP3    H264865   2.525   2.532   4.233 -0.4144  0.8373 -0.5175
14484TIP3   OH264866   1.445   1.567   3.342  0.1315  0.1275 -0.1599
14484TIP3    H164867   1.518   1.512   3.312 -2.0549 -1.7879 -2.2021
14484TIP3    H264868   1.428   1.626   3.268  1.0319  2.0965  1.1717
14485TIP3   OH264869   2.195   2.659   4.569  0.2789 -0.1439 -0.2688
14485TIP3    H164870   2.270   2.702   4.528  0.1826  0.8583  0.5825
14485TIP3    H264871   2.225   2.638   4.658  0.7155 -2.8925 -1.0299
14486TIP3   OH264872   2.486   3.557   4.092 -0.0918  0.0733  0.4861
14486TIP3    H164873   2.528   3.518   4.015  1.1171  0.0181  1.1669
14486TIP3    H264874   2.392   3.540   4.079 -0.1457  2.0417 -2.0902
14487TIP3   OH264875   3.341   2.538   4.563  0.0578  0.1865  0.0473
14487TIP3    H164876   3.301   2.452   4.550  1.2380 -0.2595 -0.7397
14487TIP3    H264877   3.293   2.576   4.636 -1.3811 -0.5850 -0.4670
14488TIP3   OH264878   4.031   2.057   3.488 -0.7040 -0.1569 -0.2345
14488TIP3    H164879   4.049   2.011   3.570 -0.3235  0.9725  0.3296
14488TIP3    H264880   3.995   2.141   3.515 -1.5851 -0.1960 -1.2562
14489TIP3   OH264881   2.496   2.456   0.100 -0.0007 -0.7873 -0.0408
14489TIP3    H164882   2.465   2.375   0.060 -0.7581 -0.5988  0.1707
14489TIP3    H264883   2.589   2.460   0.076  0.5616 -2.7845  1.6901
14490TIP3   OH264884   5.769   2.421   2.008  0.1362 -0.1424  0.3109
14490TIP3    H164885   5.674   2.414   2.008  0.2826 -2.5981  1.9540
14490TIP3    H264886   5.798   2.359   1.941  0.6360 -0.6020  0.9425
14491TIP3   OH264887   1.557   2.951   3.584  0.3927 -0.4430  0.3132
14491TIP3    H164888   1.616   3.023   3.604  0.6424 -0.9808  1.5696
14491TIP3    H264889   1.613   2.881   3.551  0.0320  0.2813 -1.8740
14492TIP3   OH264890   0.236   1.905   3.203 -0.5333 -0.6321 -0.4236
14492TIP3    H164891   0.327   1.907   3.233 -0.3371  1.2280 -1.0891
14492TIP3    H264892   0.190   1.853   3.269  0.2946  1.5262  1.9547
14493TIP3   OH264893   4.058   2.516   4.281 -0.6788 -0.0904 -0.2736
14493TIP3    H164894   4.103   2.590   4.240  0.7464 -0.2276  1.0010
14493TIP3    H264895   4.036   2.547   4.369 -2.6159 -0.2215 -0.6788
14494TIP3   OH264896   5.502   4.009   1.507  0.2954 -0.2519  0.1621
14494TIP3    H164897   5.566   4.076   1.527 -0.1930  0.7432 -1.5309
14494TIP3    H264898   5.508   3.997   1.412 -2.2878  0.1630 -0.0967
14495TIP3   OH264899   2.196   6.093   1.928 -0.1930  0.3782 -0.0314
14495TIP3    H164900   2.265   6.056   1.872  0.3244 -2.7932  2.5401
14495TIP3    H264901   2.117   6.091   1.874  0.9554  0.5769 -1.7566
14496TIP3   OH264902   3.582   3.767   1.401 -0.0192  0.1080 -0.5127
14496TIP3    H164903   3.528   3.831   1.447  0.4941 -0.8448  1.4793
14496TIP3    H264904   3.643   3.735   1.468  2.0149  0.0525 -2.3136
14497TIP3   OH264905   4.707   2.993   3.543  0.5871 -0.4736 -0.2041
14497TIP3    H164906   4.750   2.968   3.461  0.9934 -0.5241  0.0238
14497TIP3    H264907   4.776   3.035   3.595  0.0703  0.5746 -0.3308
14498TIP3   OH264908   4.061   4.645   5.308  0.0412  0.2512  0.2678
14498TIP3    H164909   4.111   4.704   5.365 -1.7774  0.5086  1.6258
14498TIP3    H264910   4.075   4.680   5.220  3.1194 -0.3322  0.4873
14499TIP3   OH264911   3.711   3.215   5.926  0.0259 -0.4824  0.0141
14499TIP3    H164912   3.630   3.166   5.909 -1.6992  2.4273 -0.4888
14499TIP3    H264913   3.697   3.256   6.011  0.6037  0.7455 -0.4701
14500TIP3   OH264914   1.202   1.805   3.631 -0.2066 -0.3556  0.0267
14500TIP3    H164915   1.222   1.884   3.581 -1.1259  0.0926  0.3661
14500TIP3    H264916   1.136   1.759   3.580  0.5349 -1.0664 -0.3162
14501TIP3   OH264917   1.984   2.984   5.458  0.3793 -0.0399 -0.3918
14501TIP3    H164918   2.057   2.997   5.397  1.7648 -1.7356  0.8598
14501TIP3    H264919   2.025   2.981   5.544 -1.3086  0.0022  0.4299
14502TIP3   OH264920   1.212   3.193   1.656  0.1242  0.4591  0.3750
14502TIP3    H164921   1.167   3.118   1.616 -0.4956  1.3890 -0.7214
14502TIP3    H264922   1.202   3.180   1.750 -0.5665 -0.4827  0.1765
14503TIP3   OH264923   4.613   2.177   3.257 -0.3145  0.0916  0.4343
14503TIP3    H164924   4.545   2.126   3.299  0.1055  1.6793  3.1569
14503TIP3    H264925   4.583   2.268   3.263  0.5466  0.5254 -1.2348
14504TIP3   OH264926   2.890   4.862  14.732  0.5209 -0.1653  0.6226
14504TIP3    H164927   2.857   4.789  14.784 -0.7615  0.3495  0.5576
14504TIP3    H264928   2.917   4.822  14.649 -2.0554 -0.3105 -0.1836
14505TIP3   OH264929   1.620   3.678   1.598 -0.5951 -0.1571  0.2070
14505TIP3    H164930   1.623   3.773   1.582  0.2056 -0.2010  0.0702
14505TIP3    H264931   1.547   3.647   1.544 -1.1167  0.4363  0.5572
14506TIP3   OH264932   1.539   1.478   4.382 -0.3507  0.3853 -0.3936
14506TIP3    H164933   1.601   1.543   4.414  0.0919 -0.1737 -0.1197
14506TIP3    H264934   1.487   1.455   4.459 -0.7881  0.7271 -0.5855
14507TIP3   OH264935   2.723   1.577   1.181  0.0547 -0.1447 -0.5691
14507TIP3    H164936   2.647   1.596   1.127 -0.5608  0.9944  0.6900
14507TIP3    H264937   2.708   1.489   1.214 -0.3119 -0.2388 -0.9895
14508TIP3   OH264938   3.461   1.970   4.395 -0.1160  0.4071 -0.0494
14508TIP3    H164939   3.413   1.992   4.314 -1.2663 -0.9742  0.2345
14508TIP3    H264940   3.545   1.935   4.364  0.4584  2.2007 -0.5719
14509TIP3   OH264941   3.245   1.237   4.914 -0.2161  0.3609  0.4866
14509TIP3    H164942   3.171   1.194   4.872  0.0141 -0.8941  1.3359
14509TIP3    H264943   3.278   1.173   4.977 -0.5839  2.2157  2.6221
14510TIP3   OH264944   5.655   3.071   1.094 -0.6018 -0.3488 -0.0099
14510TIP3    H164945   5.578   3.113   1.057 -0.3669  0.4650  0.4056
14510TIP3    H264946   5.706   3.043   1.018 -1.9555 -2.1379 -0.2889
14511TIP3   OH264947   2.507   4.392   4.490 -0.0468 -0.4054 -0.3236
14511TIP3    H164948   2.451   4.469   4.492  0.8320  0.3390 -2.5251
14511TIP3    H264949   2.474   4.336   4.560 -2.3128  0.8419 -0.3633
14512TIP3   OH264950   0.663   2.549   0.807 -0.0704  0.3612  0.0065
14512TIP3    H164951   0.593   2.606   0.773  0.0848 -0.0203 -0.9820
14512TIP3    H264952   0.662   2.474   0.748 -0.1408 -0.5744  1.1868
14513TIP3   OH264953   0.847   1.372   4.486 -0.0076 -0.6533 -0.7248
14513TIP3    H164954   0.783   1.388   4.416 -0.2997  1.2706 -0.0470
14513TIP3    H264955   0.859   1.457   4.527 -0.2855 -1.8958  1.9911
14514TIP3   OH264956   6.369   0.564   3.127 -0.8867  0.4454  0.1888
14514TIP3    H164957   6.453   0.536   3.091 -1.2129 -0.4611  0.1303
14514TIP3    H264958   6.392   0.604   3.211 -0.3545  0.5662 -0.0120
14515TIP3   OH264959   3.756   3.600   5.467 -0.4335 -0.0563  0.6678
14515TIP3    H164960   3.770   3.617   5.560 -1.0899 -2.3179  1.2164
14515TIP3    H264961   3.675   3.647   5.446  0.6790  1.9435  0.7733
14516TIP3   OH264962   3.897   0.681   3.233  0.4550 -0.5157  0.4727
14516TIP3    H164963   3.932   0.682   3.322  0.1795  0.1212  0.5771
14516TIP3    H264964   3.883   0.774   3.212  0.5337 -0.6627 -0.2366
14517TIP3   OH264965   0.689   3.499   1.897  0.2739 -0.0070  0.7641
14517TIP3    H164966   0.717   3.530   1.982 -2.0641  0.5308  1.3694
14517TIP3    H264967   0.698   3.404   1.902  0.9840  0.0845  1.2815
14518TIP3   OH264968   3.956   0.942   3.401 -0.1553 -0.3568 -0.2867
14518TIP3    H164969   4.014   1.017   3.394 -0.2464 -0.3807 -1.4339
14518TIP3    H264970   3.872   0.973   3.366 -0.5158 -0.6524  0.3019
14519TIP3   OH264971   4.052   0.894   2.618 -0.3399  0.4092  0.0027
14519TIP3    H164972   3.982   0.952   2.588 -0.0347  0.0165 -1.4897
14519TIP3    H264973   4.012   0.807   2.619 -0.3638  0.4232  0.8107
14520TIP3   OH264974   2.491   3.327   1.757 -0.4193  0.1606 -0.1389
14520TIP3    H164975   2.537   3.380   1.822 -1.6621  0.2861  0.6615
14520TIP3    H264976   2.509   3.370   1.674 -0.7546  1.3902  0.4103
14521TIP3   OH264977   2.804   5.009   4.342 -0.1084 -0.0968  0.0960
14521TIP3    H164978   2.830   5.088   4.295 -0.1388 -1.0037 -1.4898
14521TIP3    H264979   2.887   4.970   4.370 -0.0953  0.5017  0.9337
14522TIP3   OH264980   4.452   2.181   4.558 -0.2771 -0.2555  0.3451
14522TIP3    H164981   4.420   2.131   4.483  0.2489  1.4871 -1.0788
14522TIP3    H264982   4.519   2.238   4.521 -0.0814  0.6938  2.1406
14523TIP3   OH264983   3.962   6.546   5.076  0.3985  0.4501 -0.2256
14523TIP3    H164984   3.942   6.620   5.134  1.0243  0.2411  0.2647
14523TIP3    H264985   3.921   6.471   5.119  1.6934  0.1271  0.4599
14524TIP3   OH264986   3.004   1.163   4.152 -0.5149 -0.0707 -0.0970
14524TIP3    H164987   3.080   1.191   4.203 -0.1909 -0.1163 -0.5496
14524TIP3    H264988   3.040   1.101   4.088 -1.2207 -1.5701  0.9209
14525TIP3   OH264989   3.415   6.374   4.352 -0.0483 -0.2704  0.7068
14525TIP3    H164990   3.360   6.325   4.414 -0.1693 -0.3868  0.5066
14525TIP3    H264991   3.504   6.365   4.387 -0.3601  1.3620  1.9906
14526TIP3   OH264992   2.402   2.263   2.047  0.0658  0.9697 -0.3850
14526TIP3    H164993   2.345   2.204   1.996  0.2061 -0.0713  0.6385
14526TIP3    H264994   2.393   2.348   2.004 -0.4393  0.2893 -1.6652
14527TIP3   OH264995   4.523   3.767   2.421 -0.4530  0.1537 -0.0250
14527TIP3    H164996   4.476   3.787   2.502 -0.8013 -1.1281  0.1087
14527TIP3    H264997   4.456   3.766   2.353 -0.3127  0.2926 -0.1646
14528TIP3   OH264998   1.330   2.693   1.735  0.0139 -0.7726  1.0876
14528TIP3    H164999   1.393   2.738   1.678 -0.5888  0.2474  1.2178
14528TIP3    H265000   1.279   2.639   1.675  0.7421 -1.2904  0.9263
14529TIP3   OH265001   4.753   1.305   4.207 -0.6022 -0.3752 -0.4271
14529TIP3    H165002   4.831   1.330   4.157 -1.6756  0.3747 -1.7431
14529TIP3    H265003   4.754   1.363   4.283 -0.4536  0.3735 -0.9930
14530TIP3   OH265004   3.596   0.461   3.608 -0.0721 -0.3924  0.2616
14530TIP3    H165005   3.670   0.518   3.628  1.1347 -1.7805 -0.0549
14530TIP3    H265006   3.619   0.422   3.523 -1.4316 -0.4351 -0.1017
14531TIP3   OH265007   2.225   2.960   3.666 -0.2882  0.2625 -0.2754
14531TIP3    H165008   2.175   2.879   3.676  0.8070 -0.4193 -0.2773
14531TIP3    H265009   2.305   2.945   3.716 -0.8792  2.0388  1.2675
14532TIP3   OH265010   1.074   1.580   2.567  0.1369  0.1517 -0.4236
14532TIP3    H165011   1.002   1.623   2.521 -0.6466 -1.4061 -0.7100
14532TIP3    H265012   1.039   1.561   2.654  0.7578  0.8415 -0.0215
14533TIP3   OH265013   6.499   1.933   3.613 -0.6198  0.6704  0.0371
14533TIP3    H165014   6.515   2.017   3.570 -0.4622  0.6474  0.0482
14533TIP3    H265015   6.585   1.891   3.615 -0.7104  0.4823 -0.0239
14534TIP3   OH265016   2.865   2.252   3.151 -0.1109 -0.1753  0.6424
14534TIP3    H165017   2.872   2.346   3.136 -0.7817 -0.1772  0.3226
14534TIP3    H265018   2.883   2.241   3.245  0.5401  0.2042  0.5671
14535TIP3   OH265019   3.753   2.184   5.176  0.2405 -0.0450 -0.4139
14535TIP3    H165020   3.780   2.114   5.236 -2.0147  0.0638  0.7908
14535TIP3    H265021   3.704   2.139   5.107  0.0808  0.1654 -0.4398
14536TIP3   OH265022   3.113   3.048   5.026 -0.5276  0.7346  0.7853
14536TIP3    H165023   3.208   3.047   5.042 -0.3928 -2.8259  0.1587
14536TIP3    H265024   3.074   3.027   5.111 -0.8157  3.1003  1.2507
14537TIP3   OH265025   1.761   2.419   2.593 -0.5822 -0.0609 -0.1391
14537TIP3    H165026   1.774   2.477   2.668 -0.6501  0.8157 -0.7973
14537TIP3    H265027   1.737   2.334   2.632  1.2156 -0.1238  0.8728
14538TIP3   OH265028   3.953   3.431   3.321 -0.4781 -0.3824 -0.4009
14538TIP3    H165029   3.909   3.443   3.237  0.5483  1.4229 -0.7232
14538TIP3    H265030   3.897   3.476   3.384  0.8806  2.0461 -0.8340
14539TIP3   OH265031   3.243   1.474   2.064  0.1420  0.2948 -0.4691
14539TIP3    H165032   3.217   1.388   2.030  2.1648 -0.4047 -0.2712
14539TIP3    H265033   3.195   1.481   2.147  0.6332 -1.0170 -0.0583
14540TIP3   OH265034   5.395   4.204   2.341  0.6640 -0.3433  0.5452
14540TIP3    H165035   5.412   4.110   2.351  1.5144 -0.2845 -0.3741
14540TIP3    H265036   5.424   4.242   2.424  0.7812 -0.8289  0.7300
14541TIP3   OH265037   3.918   3.582   3.597  0.2766  0.3608 -0.0747
14541TIP3    H165038   3.935   3.656   3.655  0.2674 -0.4749  1.0111
14541TIP3    H265039   3.953   3.506   3.644  0.3140 -0.3215 -1.1849
14542TIP3   OH265040   3.010   1.795   2.579 -0.0327  1.0635  0.2868
14542TIP3    H165041   3.090   1.780   2.629 -1.4865 -0.5051  2.2324
14542TIP3    H265042   3.020   1.740   2.501 -0.4251 -1.4904  1.9442
14543TIP3   OH265043   3.056   4.882   4.232  0.1308  0.5180 -0.5229
14543TIP3    H165044   2.980   4.832   4.204  0.0873  1.2936 -1.8400
14543TIP3    H265045   3.107   4.821   4.286  0.5718 -1.2769 -2.9057
14544TIP3   OH265046   1.695   3.989   4.694 -0.1834 -0.0255 -0.0491
14544TIP3    H165047   1.780   3.945   4.687 -0.8626 -1.2104 -1.1110
14544TIP3    H265048   1.668   4.003   4.603 -1.2897  0.0145  0.2833
14545TIP3   OH265049   3.216   1.718   4.801  0.6866 -0.1277 -0.8787
14545TIP3    H165050   3.198   1.646   4.741 -0.4793 -1.1271  0.6504
14545TIP3    H265051   3.223   1.677   4.887 -0.9980  1.6889  0.1727
14546TIP3   OH265052   2.343   3.294   0.521 -0.2449 -0.1603  0.1610
14546TIP3    H165053   2.428   3.327   0.549  0.6368 -0.6895 -1.8161
14546TIP3    H265054   2.351   3.199   0.526 -0.6978 -0.2131 -0.0800
14547TIP3   OH265055   2.469   3.113   3.479  0.2071 -0.1970  0.2434
14547TIP3    H165056   2.401   3.158   3.529 -0.6232  0.4645 -1.4261
14547TIP3    H265057   2.551   3.147   3.514 -0.3561  0.1567  1.2385
14548TIP3   OH265058   5.565   6.414   2.256 -0.2647  0.2245 -0.2142
14548TIP3    H165059   5.575   6.375   2.342  0.5054 -0.1351 -0.4678
14548TIP3    H265060   5.637   6.477   2.250  1.5091 -1.8751 -1.7644
14549TIP3   OH265061   3.185   4.480   3.291  0.0116 -0.1772 -0.6475
14549TIP3    H165062   3.163   4.390   3.311 -1.6138 -0.0331 -1.7203
14549TIP3    H265063   3.198   4.522   3.376  1.0416 -1.4734 -0.1589
14550TIP3   OH265064   3.156   3.451   3.855  0.0025 -0.3085  0.8597
14550TIP3    H165065   3.113   3.406   3.927 -1.1194 -0.7036 -0.0530
14550TIP3    H265066   3.203   3.383   3.808 -1.2816 -0.4661 -0.2229
14551TIP3   OH265067   5.134   0.539   3.738  0.5527 -0.9063  0.0185
14551TIP3    H165068   5.171   0.454   3.719 -1.0429 -1.3543 -1.2309
14551TIP3    H265069   5.095   0.530   3.825  1.3143 -1.1222  0.3370
14552TIP3   OH265070   1.057   2.274   3.866  0.2209  0.0732  0.3781
14552TIP3    H165071   1.087   2.247   3.779 -0.5189  1.6833 -0.4268
14552TIP3    H265072   1.004   2.201   3.897  0.3993 -0.4801 -0.5907
14553TIP3   OH265073   4.949   3.645   1.317  0.4138  0.5706  0.5049
14553TIP3    H165074   4.991   3.647   1.231  1.0464  1.3875  0.8230
14553TIP3    H265075   4.899   3.726   1.322 -1.0594 -0.3123  0.2080
14554TIP3   OH265076   1.868   2.028   2.877  0.8250 -0.2642 -0.2312
14554TIP3    H165077   1.822   2.005   2.958 -0.7363 -0.9070 -1.2672
14554TIP3    H265078   1.902   2.116   2.893 -3.2014  1.4391 -0.3906
14555TIP3   OH265079   3.102   1.135   4.548  0.9688  0.8387 -0.1204
14555TIP3    H165080   3.051   1.214   4.567  1.0813  1.0382 -0.6541
14555TIP3    H265081   3.152   1.157   4.469  1.2953  0.3715 -0.0443
14556TIP3   OH265082   3.604   2.811   5.516  0.0824 -0.2789 -0.1694
14556TIP3    H165083   3.532   2.800   5.455  0.5221 -0.5207 -0.6552
14556TIP3    H265084   3.649   2.891   5.487  1.3640 -1.3702 -1.2989
14557TIP3   OH265085   6.906   3.008   2.670  0.0271  1.1503 -0.5145
14557TIP3    H165086   6.963   3.066   2.720 -2.4308  2.9017  0.4027
14557TIP3    H265087   6.836   3.065   2.639 -1.1773 -0.8871 -1.6607
14558TIP3   OH265088   4.075   2.962   3.220 -0.0019  0.1578 -0.1280
14558TIP3    H165089   4.066   2.990   3.129 -1.2357  2.2458  0.5903
14558TIP3    H265090   3.995   2.993   3.263  0.9855  0.0471  1.8718
14559TIP3   OH265091   4.179   0.564   3.436  0.6464 -0.1185  0.4016
14559TIP3    H165092   4.139   0.643   3.473  0.8344  0.4733 -0.6515
14559TIP3    H265093   4.263   0.594   3.400  0.5115 -0.7089 -0.4249
14560TIP3   OH265094   2.172   3.188   3.527  0.5790 -0.5589  0.4548
14560TIP3    H165095   2.166   3.144   3.442 -0.2260 -0.8252  0.6496
14560TIP3    H265096   2.195   3.118   3.588  2.4122 -0.1510  0.2653
14561TIP3   OH265097   3.468   3.265   3.861  0.5547 -0.5735  0.3943
14561TIP3    H165098   3.556   3.292   3.835  0.1393 -0.7846 -1.2872
14561TIP3    H265099   3.482   3.209   3.938  1.6920  1.3624  1.6699
14562TIP3   OH265100   1.789   2.013   0.536  0.6112 -0.6121  0.0932
14562TIP3    H165101   1.727   2.061   0.591  0.9928 -0.4047  0.3499
14562TIP3    H265102   1.762   1.922   0.543  0.1427 -0.4831 -0.0477
14563TIP3   OH265103   5.902   2.512   2.797 -0.2561 -0.3501  0.1766
14563TIP3    H165104   5.837   2.572   2.833  0.7716  0.5630  0.5289
14563TIP3    H265105   5.955   2.486   2.873  2.1560  1.8780 -0.6772
14564TIP3   OH265106   5.128   2.177   3.940  0.1821  0.1054  0.0838
14564TIP3    H165107   5.037   2.200   3.955  0.6617  2.4979 -0.3659
14564TIP3    H265108   5.151   2.120   4.014 -1.7410 -0.8120  0.0041
14565TIP3   OH265109   2.374   3.844   0.544 -0.3017 -0.0414 -0.0059
14565TIP3    H165110   2.434   3.916   0.522 -0.0411 -0.3960 -0.4693
14565TIP3    H265111   2.287   3.878   0.524 -0.2116  0.2792  0.1382
14566TIP3   OH265112   3.708   3.500   2.514 -0.3051 -0.0466 -0.1500
14566TIP3    H165113   3.643   3.438   2.546 -1.7295 -0.2292 -3.1398
14566TIP3    H265114   3.763   3.450   2.454  0.5383  0.8590 -0.1608
14567TIP3   OH265115   4.391   5.961   3.373  0.1251  0.2074 -0.0072
14567TIP3    H165116   4.299   5.987   3.381  0.5958  1.6757  0.9630
14567TIP3    H265117   4.404   5.898   3.444  0.3823  1.5735  1.1760
14568TIP3   OH265118   1.257   1.479   0.631 -0.0307 -1.2239 -0.1959
14568TIP3    H165119   1.255   1.384   0.622 -1.5383 -1.2874  0.5843
14568TIP3    H265120   1.336   1.497   0.682 -1.5397 -2.3500  2.6242
14569TIP3   OH265121   1.538   6.811   1.945 -0.1836 -0.3437 -0.6733
14569TIP3    H165122   1.612   6.751   1.952  1.0673  1.1336 -1.0595
14569TIP3    H265123   1.464   6.761   1.979  1.2529 -1.3552  1.0697
14570TIP3   OH265124   1.618   4.268   5.664 -0.3206  0.3415  0.1073
14570TIP3    H165125   1.590   4.355   5.694 -1.7460  0.5953 -1.8370
14570TIP3    H265126   1.673   4.286   5.588  1.6958 -0.3609  1.3738
14571TIP3   OH265127   3.789   3.129   4.121 -0.0309 -0.4863 -0.0269
14571TIP3    H165128   3.843   3.069   4.070  1.5848  2.5104 -1.9389
14571TIP3    H265129   3.839   3.144   4.201 -0.1290 -1.1635  0.1628
14572TIP3   OH265130   2.095   1.780   1.532  0.0192 -0.0854  0.0873
14572TIP3    H165131   2.098   1.684   1.529  0.6782 -0.1177  1.4940
14572TIP3    H265132   2.177   1.805   1.575  0.3925  1.1675 -1.3092
14573TIP3   OH265133   1.760   2.015   5.810 -0.2175 -0.4866  0.1762
14573TIP3    H165134   1.827   1.992   5.746 -0.8379 -1.1978 -0.2199
14573TIP3    H265135   1.688   2.051   5.758 -0.0811  0.4307  0.6105
14574TIP3   OH265136   3.742   5.274   1.454  0.0869  0.4899 -0.2419
14574TIP3    H165137   3.652   5.294   1.426  0.5225 -0.4029 -2.4631
14574TIP3    H265138   3.732   5.203   1.517 -0.8297  0.9015  0.0846
14575TIP3   OH265139   0.579   4.676   3.463  0.2934  0.4888 -0.5088
14575TIP3    H165140   0.545   4.763   3.483  2.2862  1.5374 -1.4783
14575TIP3    H265141   0.519   4.616   3.506 -2.8905  2.2190 -2.3638
14576TIP3   OH265142   0.418   1.265  15.253  0.1117 -0.7713  0.0025
14576TIP3    H165143   0.330   1.299  15.240  0.1814  0.0780  1.6765
14576TIP3    H265144   0.412   1.173  15.226 -0.9134 -0.3389 -1.2728
14577TIP3   OH265145   2.868   4.907   5.118  0.1426 -0.3543 -0.2715
14577TIP3    H165146   2.842   4.914   5.210  1.0485 -1.0269  0.0430
14577TIP3    H265147   2.828   4.825   5.088 -0.4933  0.0681 -0.6007
14578TIP3   OH265148   2.632   4.888   0.991  0.6584 -0.2024 -0.0478
14578TIP3    H165149   2.714   4.916   1.031  0.1080  0.2348  0.7662
14578TIP3    H265150   2.637   4.792   0.992  1.4583 -0.1778 -0.6348
14579TIP3   OH265151   7.110   1.021   4.601 -0.3079  0.0186  0.0514
14579TIP3    H165152   7.179   1.087   4.592 -0.2056 -0.0656  0.2198
14579TIP3    H265153   7.132   0.954   4.537 -0.0977 -0.1251  0.2692
14580TIP3   OH265154   1.702   2.438   4.088  0.0460 -0.1025 -0.0705
14580TIP3    H165155   1.767   2.418   4.156 -0.1572 -0.6019 -0.0186
14580TIP3    H265156   1.623   2.391   4.116  0.1074 -0.7138 -0.9046
14581TIP3   OH265157   2.113   2.206   1.406 -0.1460 -0.3172 -0.1809
14581TIP3    H165158   2.128   2.274   1.340 -0.0506 -1.0828 -0.9559
14581TIP3    H265159   2.152   2.242   1.486 -0.6999  0.8326 -0.4046
14582TIP3   OH265160   2.213   3.116   5.265 -0.2355 -0.6013 -0.0817
14582TIP3    H165161   2.292   3.118   5.211 -0.5415 -0.9818 -0.5408
14582TIP3    H265162   2.242   3.151   5.350  0.4388 -0.7823 -0.2310
14583TIP3   OH265163   3.267   3.184   3.699  0.5336  0.1271 -0.9065
14583TIP3    H165164   3.346   3.221   3.738  0.8858 -1.1701 -0.3845
14583TIP3    H265165   3.234   3.123   3.765 -0.2916 -0.1601 -1.5816
14584TIP3   OH265166   1.450   3.366   5.558  0.4881 -0.2780  0.0579
14584TIP3    H165167   1.365   3.342   5.520 -0.0174  1.6558 -0.0627
14584TIP3    H265168   1.428   3.402   5.644  0.9676  2.3785 -0.9112
14585TIP3   OH265169   3.124   3.739   2.404  0.1925 -0.0984 -0.0787
14585TIP3    H165170   3.210   3.705   2.381 -0.7468 -0.6822 -2.8377
14585TIP3    H265171   3.117   3.821   2.355 -0.3913  0.5165  1.0129
14586TIP3   OH265172   0.870   3.606   2.988  0.5079 -0.2974  0.3785
14586TIP3    H165173   0.828   3.532   2.945 -0.5712 -0.4598  1.6547
14586TIP3    H265174   0.962   3.581   2.994  0.5539 -0.5559 -1.1959
14587TIP3   OH265175   6.615   5.602   4.299 -0.0497  0.0639  0.5093
14587TIP3    H165176   6.596   5.696   4.301 -0.2929  0.1344 -2.7562
14587TIP3    H265177   6.566   5.566   4.374 -1.1568  2.3044  0.8993
14588TIP3   OH265178   2.415   3.136   2.034 -0.0624 -0.3196 -0.4254
14588TIP3    H165179   2.485   3.117   1.972  0.6805 -0.3724  0.4318
14588TIP3    H265180   2.449   3.208   2.087 -1.1427  0.4891 -0.8160
14589TIP3   OH265181   5.657   3.840   3.526 -0.0251  0.0710 -0.7662
14589TIP3    H165182   5.589   3.826   3.592 -0.3631  0.5980 -0.9947
14589TIP3    H265183   5.691   3.927   3.545  1.6308 -0.7797  0.2662
14590TIP3   OH265184   5.337   2.471   4.903  0.6851  0.0041 -0.0844
14590TIP3    H165185   5.260   2.466   4.961  0.3940  0.3423 -0.4389
14590TIP3    H265186   5.322   2.402   4.839  2.3589 -2.2561  1.8456
14591TIP3   OH265187   3.691   5.565   5.136 -0.3741  0.6430 -0.1746
14591TIP3    H165188   3.716   5.523   5.054 -0.9123 -5.2531  2.4418
14591TIP3    H265189   3.595   5.570   5.132 -0.4961 -0.8174  0.5430
14592TIP3   OH265190   1.905   2.331   3.581 -1.0197  0.5287 -0.3853
14592TIP3    H165191   1.940   2.413   3.616 -1.0453  0.2138  0.3968
14592TIP3    H265192   1.824   2.317   3.630 -1.6898  0.7022 -1.4357
14593TIP3   OH265193   3.483   2.217   3.564  0.9042 -0.2897  0.0548
14593TIP3    H165194   3.536   2.279   3.515 -0.2015 -0.2108 -1.0731
14593TIP3    H265195   3.495   2.241   3.656  0.6467  1.4544 -0.3598
14594TIP3   OH265196   3.581   4.253   3.377  0.0422  0.1230 -0.2385
14594TIP3    H165197   3.633   4.288   3.450  0.9883 -1.3842 -0.1495
14594TIP3    H265198   3.546   4.171   3.411  0.2255 -0.4282 -1.3690
14595TIP3   OH265199   4.700   2.705   5.138  0.4351 -0.4966 -0.1053
14595TIP3    H165200   4.721   2.783   5.189  1.9344 -1.7262  1.1856
14595TIP3    H265201   4.677   2.739   5.051  2.8622  1.2781 -0.0894
14596TIP3   OH265202   2.389   2.245   3.945 -0.0593 -0.3996 -0.4962
14596TIP3    H165203   2.478   2.258   3.911  0.2181 -1.3546 -0.1532
14596TIP3    H265204   2.337   2.222   3.867  0.5976 -2.6920 -0.2802
14597TIP3   OH265205   3.185   1.813   3.858 -0.4270 -0.0966  0.0738
14597TIP3    H165206   3.210   1.843   3.771  0.3032 -0.0557  0.2910
14597TIP3    H265207   3.154   1.892   3.903  0.4584  0.1348  0.2857
14598TIP3   OH265208   0.084   2.130   4.306  0.2546 -0.1470 -0.2353
14598TIP3    H165209   0.047   2.044   4.328 -0.1765 -0.1870 -1.0919
14598TIP3    H265210   0.056   2.187   4.377 -0.2487 -0.5037 -0.1447
14599TIP3   OH265211   1.566   2.799   4.072  0.1342 -0.1300  0.3249
14599TIP3    H165212   1.576   2.892   4.049 -1.1536 -0.2810 -0.9108
14599TIP3    H265213   1.483   2.795   4.120 -0.0256 -0.7151 -0.0022
14600TIP3   OH265214   1.439   4.063   1.924 -0.0397 -0.3076  0.0413
14600TIP3    H165215   1.513   4.009   1.953  0.9512  0.9008 -0.2142
14600TIP3    H265216   1.448   4.145   1.972 -1.0476 -0.0331 -0.2190
14601TIP3   OH265217   1.860   5.181   1.265  0.3808 -0.5211 -0.5562
14601TIP3    H165218   1.770   5.209   1.248  1.1324  1.8167 -0.8427
14601TIP3    H265219   1.857   5.086   1.256 -1.6801 -0.3445 -2.3694
14602TIP3   OH265220   2.220   4.668   2.282  0.8132  0.2418 -0.2244
14602TIP3    H165221   2.154   4.607   2.251  0.1364  0.8216  0.0558
14602TIP3    H265222   2.177   4.754   2.279  1.0042  0.4231  1.4800
14603TIP3   OH265223   4.795   2.679   3.781 -0.4043  0.2065 -0.4497
14603TIP3    H165224   4.757   2.652   3.865 -1.2965  2.3618 -0.1150
14603TIP3    H265225   4.819   2.597   3.738 -4.0204 -1.1931  0.0109
14604TIP3   OH265226   3.503   2.251   3.836  0.1390  0.8008 -0.4186
14604TIP3    H165227   3.435   2.317   3.848 -1.3356 -0.5425 -1.2223
14604TIP3    H265228   3.515   2.213   3.923 -0.3974  0.8115 -0.3366
14605TIP3   OH265229   2.336   1.412   3.664  0.2251  0.8640 -0.0601
14605TIP3    H165230   2.267   1.357   3.701  0.9102  0.9016  1.3154
14605TIP3    H265231   2.322   1.408   3.570 -2.0068  1.3506  0.2319
14606TIP3   OH265232   4.942   2.059   1.742  0.1898 -0.4034 -0.2194
14606TIP3    H165233   4.901   2.036   1.825  0.6316  0.4725  0.2511
14606TIP3    H265234   5.036   2.058   1.760  0.2119  2.5811  0.0676
14607TIP3   OH265235   2.495   3.544   4.604  0.1303  0.0580  0.0162
14607TIP3    H165236   2.410   3.545   4.647 -0.9639 -1.3872 -2.0147
14607TIP3    H265237   2.527   3.634   4.612 -2.0419  0.8612 -0.0341
14608TIP3   OH265238   3.263   4.124   4.694  0.2847  0.1226  1.1051
14608TIP3    H165239   3.223   4.193   4.641  1.1017  0.3459  0.7642
14608TIP3    H265240   3.207   4.048   4.681  1.3064 -0.2703 -1.3187
14609TIP3   OH265241   3.259   4.883   4.447  0.5648 -0.2304  0.3912
14609TIP3    H165242   3.336   4.920   4.405  2.4313 -1.4906  2.5628
14609TIP3    H265243   3.269   4.906   4.539 -1.0781 -1.3496  0.8767
14610TIP3   OH265244   4.032   4.407   1.067  0.3039 -0.2051 -0.2871
14610TIP3    H165245   4.001   4.493   1.037 -2.1312 -0.2892  1.7688
14610TIP3    H265246   4.122   4.423   1.096  0.3918  1.3176 -1.3550
14611TIP3   OH265247   1.941   3.964   3.995  0.0489 -0.1971 -0.3563
14611TIP3    H165248   1.922   4.048   3.951 -1.0675 -1.1758 -1.7904
14611TIP3    H265249   1.859   3.942   4.039 -0.4577 -1.7383 -2.0212
14612TIP3   OH265250   2.162   5.773   3.839 -0.1058 -0.7134  0.4047
14612TIP3    H165251   2.091   5.813   3.789  0.8870 -0.5565 -0.8870
14612TIP3    H265252   2.242   5.804   3.797  0.7118 -2.1669  0.8646
14613TIP3   OH265253   4.143   4.611   4.654  0.1875  0.1079 -0.2892
14613TIP3    H165254   4.163   4.694   4.696 -2.0205  0.5469 -0.0417
14613TIP3    H265255   4.058   4.585   4.690 -0.1241 -1.2296 -1.8832
14614TIP3   OH265256   4.751   3.622   4.734  0.3905 -0.0683 -0.0153
14614TIP3    H165257   4.669   3.671   4.724 -0.1377 -1.3379 -2.3987
14614TIP3    H265258   4.746   3.583   4.821 -2.0694 -1.0370 -0.5668
14615TIP3   OH265259   4.797   4.091   5.318 -0.3819 -0.0111 -0.0726
14615TIP3    H165260   4.740   4.073   5.244  2.1610 -0.8113 -1.8765
14615TIP3    H265261   4.759   4.041   5.390 -1.8040 -0.7021 -1.2818
14616TIP3   OH265262   4.908   3.400   2.513  0.5160 -0.5806  0.2569
14616TIP3    H165263   4.891   3.370   2.423  2.2131 -0.9401  0.0484
14616TIP3    H265264   4.917   3.319   2.563  1.6617 -0.3970  0.3514
14617TIP3   OH265265   3.278   2.017   3.664  0.4280 -0.4951 -0.1352
14617TIP3    H165266   3.356   2.045   3.617 -0.8942 -1.9741 -3.3038
14617TIP3    H265267   3.231   2.098   3.684  1.9846  0.2850  0.4696
14618TIP3   OH265268   5.467   2.892   2.960 -0.2129  0.2037 -0.2753
14618TIP3    H165269   5.410   2.924   3.030  0.9327 -1.2271  1.3737
14618TIP3    H265270   5.541   2.952   2.959  0.9896 -1.1728  1.5003
14619TIP3   OH265271   4.373   3.460   1.307  0.2923 -0.1060 -0.2044
14619TIP3    H165272   4.439   3.514   1.351  0.2095 -0.0257 -0.1765
14619TIP3    H265273   4.423   3.401   1.251  0.3528  0.4886 -0.7891
14620TIP3   OH265274   2.988   5.623   3.694  0.7440  0.6707  0.0242
14620TIP3    H165275   2.934   5.642   3.617  0.9385  2.5525  0.3081
14620TIP3    H265276   3.015   5.710   3.726  3.7220 -0.2225  0.0537
14621TIP3   OH265277   5.526   1.132   4.036 -0.0225  0.2382 -0.4769
14621TIP3    H165278   5.481   1.075   3.974 -0.4449 -0.0425  0.0775
14621TIP3    H265279   5.471   1.131   4.114  1.4068 -0.8539  0.5496
14622TIP3   OH265280   3.616   3.998   3.282 -0.0196  0.6924 -0.1164
14622TIP3    H165281   3.605   3.986   3.188  0.0273  0.4236 -0.0871
14622TIP3    H265282   3.615   4.093   3.294  0.1975  0.7355 -0.4172
14623TIP3   OH265283   3.403   0.753   3.078  0.1400  0.0262  0.4012
14623TIP3    H165284   3.318   0.752   3.122 -0.2372 -1.4067 -0.3207
14623TIP3    H265285   3.447   0.674   3.109  0.6349  0.0040 -0.3362
14624TIP3   OH265286   3.005   0.615   1.730  0.5614 -0.1881  0.3998
14624TIP3    H165287   2.948   0.669   1.676  1.0795  0.4872  0.5080
14624TIP3    H265288   3.070   0.580   1.670  0.7000 -0.0409  0.4642
14625TIP3   OH265289   5.991   2.183   3.316  0.8101 -0.1865 -0.0884
14625TIP3    H165290   6.004   2.163   3.408 -0.6364 -0.2776  0.1091
14625TIP3    H265291   6.068   2.234   3.291  0.1447  1.8049  1.7756
14626TIP3   OH265292   4.074   4.495   1.682  0.4350 -0.8887 -0.3030
14626TIP3    H165293   4.074   4.402   1.659 -0.8819 -1.5665  2.2517
14626TIP3    H265294   4.067   4.496   1.777  0.1219  1.8431 -0.3203
14627TIP3   OH265295   2.834   4.096   2.644  0.1747  0.5496  0.2839
14627TIP3    H165296   2.765   4.154   2.612 -0.4758 -0.0561  0.5737
14627TIP3    H265297   2.894   4.086   2.570  0.8197  2.3744  0.5454
14628TIP3   OH265298   1.502   5.842   4.585 -0.5837 -0.2443  0.2591
14628TIP3    H165299   1.525   5.751   4.602 -0.1828 -0.0437  0.8377
14628TIP3    H265300   1.418   5.839   4.540  0.9085 -1.0372 -2.5862
14629TIP3   OH265301   0.313   5.640   5.197 -0.1856 -0.1919  0.0423
14629TIP3    H165302   0.278   5.693   5.126  2.9482 -0.0877 -1.5306
14629TIP3    H265303   0.285   5.551   5.177  1.5813 -0.3306 -2.0089
14630TIP3   OH265304   3.479   2.579   4.865  0.3986  0.2840  0.2269
14630TIP3    H165305   3.389   2.570   4.835 -0.3657  3.7091  1.2626
14630TIP3    H265306   3.486   2.517   4.938 -1.1646  0.1230  0.2534
14631TIP3   OH265307   0.559   0.537   4.792  0.1606  0.0617 -0.3879
14631TIP3    H165308   0.535   0.445   4.805  0.9587 -0.1576 -0.3968
14631TIP3    H265309   0.571   0.572   4.880 -1.4469  0.5234 -0.3455
14632TIP3   OH265310   3.339   2.445   3.954 -0.0498 -0.7851 -0.5145
14632TIP3    H165311   3.347   2.531   3.996 -1.5843  0.2462 -2.2225
14632TIP3    H265312   3.271   2.400   4.004  0.1076 -0.6468 -0.1760
14633TIP3   OH265313   3.455   6.391   1.902 -0.4269 -0.2921  0.1117
14633TIP3    H165314   3.405   6.311   1.887 -1.7461  0.3229  1.0564
14633TIP3    H265315   3.397   6.444   1.957  0.4953  1.2403 -0.3884
14634TIP3   OH265316   2.547   3.107   4.384 -0.0739  0.1161 -0.0949
14634TIP3    H165317   2.512   3.189   4.351 -0.2452 -0.0073 -0.2223
14634TIP3    H265318   2.577   3.127   4.473  0.8470  0.5747 -0.5042
14635TIP3   OH265319   2.916   4.457   0.846  0.2864 -0.4686 -0.3382
14635TIP3    H165320   2.919   4.457   0.942  0.0865 -1.0916 -0.3254
14635TIP3    H265321   2.843   4.516   0.825  1.1809  0.7078 -0.1500
14636TIP3   OH265322   1.144   1.044   4.007 -0.1512 -0.8869 -0.1942
14636TIP3    H165323   1.190   1.081   3.933 -0.3280  0.1846  0.2294
14636TIP3    H265324   1.119   1.119   4.061 -0.0434 -1.6459  0.9410
14637TIP3   OH265325   3.143   3.905   4.292 -0.5580  0.0848 -0.3545
14637TIP3    H165326   3.170   3.828   4.341 -3.5889 -1.3592 -0.8506
14637TIP3    H265327   3.132   3.874   4.202 -0.7057  1.3431 -0.7817
14638TIP3   OH265328   1.583   3.553   3.129  0.0023 -0.7495 -0.0769
14638TIP3    H165329   1.632   3.472   3.123 -2.6514 -2.4063 -0.4109
14638TIP3    H265330   1.491   3.526   3.128 -0.9908  2.3456 -1.6570
14639TIP3   OH265331   4.089   3.390   3.717  0.6215 -0.7407 -0.0519
14639TIP3    H165332   4.133   3.416   3.798  0.4526 -0.8237  0.0643
14639TIP3    H265333   4.132   3.308   3.692  1.1943 -0.3251 -0.4509
14640TIP3   OH265334   0.969   3.308   3.441  0.2002  0.3656  0.1174
14640TIP3    H165335   1.033   3.265   3.384 -0.6643 -0.2589 -0.4015
14640TIP3    H265336   0.938   3.383   3.390 -0.8093 -0.3783 -0.3619
14641TIP3   OH265337   1.251   1.710   1.981 -0.6348 -0.0544  0.4202
14641TIP3    H165338   1.247   1.673   1.893 -0.0236 -0.2211  0.4567
14641TIP3    H265339   1.286   1.798   1.968 -0.4689 -0.1072  0.5007
14642TIP3   OH265340   3.220   2.887   2.024 -0.0361  0.1614 -0.4634
14642TIP3    H165341   3.307   2.926   2.013  0.8021 -1.1810  1.1819
14642TIP3    H265342   3.159   2.961   2.018  1.2752  1.2386 -0.6856
14643TIP3   OH265343   0.577   0.793   3.555 -0.6684  0.1012 -0.2498
14643TIP3    H165344   0.595   0.834   3.470 -0.3395  1.6829  0.5586
14643TIP3    H265345   0.580   0.699   3.537  1.8537  0.3716 -1.5163
14644TIP3   OH265346   3.799   1.966   3.777 -0.2642  0.0864 -0.2969
14644TIP3    H165347   3.824   1.878   3.748 -0.7064  0.6432 -2.4529
14644TIP3    H265348   3.703   1.964   3.779 -0.2437  0.1786  0.7681
14645TIP3   OH265349   2.514   1.595   2.969  0.1645 -0.4268  0.6586
14645TIP3    H165350   2.447   1.548   3.019 -1.8270  0.6981 -0.8589
14645TIP3    H265351   2.511   1.685   3.003 -0.6119  0.1389 -0.8059
14646TIP3   OH265352   1.642   1.453   3.532 -0.4251  0.7247  0.2701
14646TIP3    H165353   1.583   1.519   3.569 -0.6560  0.1968  0.8740
14646TIP3    H265354   1.593   1.371   3.540  0.5404  0.2165  1.1445
14647TIP3   OH265355   1.348   1.616   3.045 -0.0925 -0.5804 -0.2225
14647TIP3    H165356   1.370   1.532   3.005 -1.5103 -0.8742 -0.4111
14647TIP3    H265357   1.424   1.672   3.029  2.5443 -2.9647  3.1993
14648TIP3   OH265358   0.703   2.044   1.445  0.2673  0.7497 -0.1298
14648TIP3    H165359   0.664   2.073   1.363  1.3862  1.4135 -0.4422
14648TIP3    H265360   0.653   2.090   1.513 -1.0260 -0.2315 -0.3978
14649TIP3   OH265361   1.023   1.596   0.191 -0.0715 -0.1425  0.2708
14649TIP3    H165362   1.083   1.617   0.263  0.4817 -0.1130 -0.1893
14649TIP3    H265363   0.941   1.571   0.233  0.5333 -1.0250  0.9313
14650TIP3   OH265364   2.412   3.783   3.483  0.3222 -0.0419  0.3826
14650TIP3    H165365   2.465   3.706   3.505 -0.4987 -0.5439  0.6310
14650TIP3    H265366   2.421   3.791   3.388  2.0216  0.7616  0.5983
14651TIP3   OH265367   0.859   3.185   3.026 -0.2822 -0.0439  0.3891
14651TIP3    H165368   0.791   3.166   3.090 -0.4628 -1.2902 -0.1610
14651TIP3    H265369   0.931   3.126   3.050  0.7137  1.4126  1.1051
14652TIP3   OH265370   1.961   3.308   2.261 -0.1316  0.4991 -0.5487
14652TIP3    H165371   1.996   3.364   2.330  0.2753 -1.4599  0.8775
14652TIP3    H265372   2.031   3.304   2.195  0.0826  1.1215 -0.3649
14653TIP3   OH265373   1.193   2.521   1.499 -1.0065  0.1045 -0.6926
14653TIP3    H165374   1.245   2.448   1.466 -1.2703 -0.8909  1.0053
14653TIP3    H265375   1.119   2.527   1.438 -2.2525 -2.6221  0.4649
14654TIP3   OH265376   4.425   2.901   4.102 -0.1891 -0.0261  0.1715
14654TIP3    H165377   4.391   2.982   4.140 -0.2261  0.5742 -1.1111
14654TIP3    H265378   4.357   2.873   4.041  0.8240  0.2116 -1.0797
14655TIP3   OH265379   5.246   5.009   2.758 -0.0945 -0.0881 -0.9218
14655TIP3    H165380   5.298   5.088   2.772 -0.3645  0.1976 -1.5295
14655TIP3    H265381   5.290   4.942   2.810 -1.0540  0.9381  1.2817
14656TIP3   OH265382   2.193   0.893   4.134  0.4672  0.3146  0.1563
14656TIP3    H165383   2.126   0.947   4.093  0.7143  0.2237 -0.3790
14656TIP3    H265384   2.224   0.945   4.208  0.7150  0.9247 -0.3644
14657TIP3   OH265385   1.659   2.211   4.351 -0.2858 -0.0512 -0.5013
14657TIP3    H165386   1.578   2.223   4.301 -0.7888  1.2096  0.5924
14657TIP3    H265387   1.726   2.254   4.298 -0.4700 -0.4291 -1.0428
14658TIP3   OH265388   5.588   4.775   2.190  0.5695  0.8482 -0.1308
14658TIP3    H165389   5.604   4.854   2.242  1.2830  0.5881  0.0559
14658TIP3    H265390   5.532   4.805   2.118  0.4034  1.4166  0.2255
14659TIP3   OH265391   3.298   0.872   5.540  0.3967 -0.0269  0.5375
14659TIP3    H165392   3.306   0.858   5.635  0.1994  0.4940  0.6320
14659TIP3    H265393   3.264   0.789   5.506  1.4756 -0.5876  0.7843
14660TIP3   OH265394   2.886   3.712   4.021 -0.3613  0.4233  0.7194
14660TIP3    H165395   2.818   3.739   3.958 -0.6933  0.1723  0.9713
14660TIP3    H265396   2.853   3.741   4.106 -1.8894 -2.9056  1.3360
14661TIP3   OH265397   4.423   3.530   2.631 -0.0306  0.5504 -0.3219
14661TIP3    H165398   4.452   3.550   2.542 -0.1104 -0.1808 -0.5184
14661TIP3    H265399   4.413   3.434   2.632 -1.5384  0.6885 -0.0014
14662TIP3   OH265400   6.261   3.228   3.084  0.3155  0.7406  0.0597
14662TIP3    H165401   6.237   3.314   3.051  1.1844  0.9846  0.0457
14662TIP3    H265402   6.356   3.234   3.100  0.6799 -0.6642 -1.3718
14663TIP3   OH265403   5.765   3.874   2.601  0.5069 -0.3647 -0.5583
14663TIP3    H165404   5.805   3.946   2.553  0.6127  0.8559  1.3062
14663TIP3    H265405   5.767   3.800   2.540  2.4472  0.6034 -1.7052
14664TIP3   OH265406   5.227   4.104   2.604  0.2643 -0.4043  0.9031
14664TIP3    H165407   5.249   4.011   2.611 -0.1271 -0.4986  0.9011
14664TIP3    H265408   5.296   4.149   2.652  0.1779 -0.7317  1.3385
14665TIP3   OH265409   5.642   2.721   4.176  0.0121 -0.4582  0.2826
14665TIP3    H165410   5.709   2.672   4.222 -0.0337 -1.0115 -0.2402
14665TIP3    H265411   5.678   2.736   4.089 -1.1674 -2.1325 -0.5358
14666TIP3   OH265412   2.666   3.221   4.037 -0.1042 -0.1773  0.2260
14666TIP3    H165413   2.628   3.262   4.114  0.3029  0.4546  0.0931
14666TIP3    H265414   2.631   3.271   3.963 -1.0779 -1.2445 -0.0502
14667TIP3   OH265415   2.132   4.937   3.715  0.0243  0.3273  0.3145
14667TIP3    H165416   2.118   4.863   3.657  0.7778 -0.0734  0.6334
14667TIP3    H265417   2.131   4.900   3.803 -1.6513  1.0135  0.6010
14668TIP3   OH265418   0.994   0.953   3.386 -0.1614 -0.2235 -0.0824
14668TIP3    H165419   0.941   0.911   3.453  0.9458  1.0848  1.6863
14668TIP3    H265420   1.022   0.882   3.329 -1.8955 -1.2363  0.2943
14669TIP3   OH265421   2.470   0.907   1.037 -0.0497 -0.0377 -0.1341
14669TIP3    H165422   2.452   0.967   0.965  0.3172 -0.7152 -0.7985
14669TIP3    H265423   2.565   0.909   1.046 -0.1501  0.6737  0.8866
14670TIP3   OH265424   6.880   2.838   0.435 -0.1201 -0.6910 -0.0165
14670TIP3    H165425   6.786   2.850   0.446 -0.0035 -1.0966  1.5900
14670TIP3    H265426   6.907   2.786   0.511  1.7395  1.2484  0.7210
14671TIP3   OH265427   6.650   3.315   2.957  0.4405  0.3124 -0.3435
14671TIP3    H165428   6.599   3.331   3.037  0.4551 -0.4655 -0.1751
14671TIP3    H265429   6.605   3.365   2.889  1.3852  2.3397  0.4948
14672TIP3   OH265430   2.234   3.693   2.449 -0.1352 -0.3728 -0.2237
14672TIP3    H165431   2.327   3.714   2.451  0.1235 -1.0544 -2.7039
14672TIP3    H265432   2.200   3.743   2.374 -1.7652 -0.1455  0.6379
14673TIP3   OH265433   4.290   0.903   1.508  0.3060 -0.1936  0.0755
14673TIP3    H165434   4.312   0.915   1.416 -1.3012  1.4586 -0.1166
14673TIP3    H265435   4.339   0.825   1.535  0.8868 -0.6057 -2.1323
14674TIP3   OH265436   6.062   3.881   3.442 -0.0465 -0.3138 -0.3222
14674TIP3    H165437   6.063   3.969   3.479 -0.2174 -0.1137 -0.7928
14674TIP3    H265438   6.073   3.895   3.348  0.3314 -0.8164 -0.3515
14675TIP3   OH265439   2.948   2.334   3.387  0.2048 -0.3405  0.1492
14675TIP3    H165440   3.034   2.376   3.381  1.4614 -3.0111 -1.1996
14675TIP3    H265441   2.892   2.401   3.425  2.7004  1.7236  0.3452
14676TIP3   OH265442   3.413   1.062   4.129  0.1388 -0.2792  0.3024
14676TIP3    H165443   3.338   1.096   4.177 -1.1257 -1.6172 -0.6844
14676TIP3    H265444   3.424   1.122   4.056 -0.9079 -0.8917 -0.3761
14677TIP3   OH265445   5.017   1.508   3.451 -0.4937  0.0112 -0.1291
14677TIP3    H165446   5.042   1.599   3.436 -2.9280  0.5908 -0.9439
14677TIP3    H265447   5.077   1.457   3.397  0.9438  1.1121  0.3902
14678TIP3   OH265448   3.167   3.166  15.943  0.2048 -1.3896 -0.4546
14678TIP3    H165449   3.197   3.227  15.876 -0.2458  0.8482  1.3162
14678TIP3    H265450   3.155   3.083  15.897  1.8933 -0.4301 -2.6931
14679TIP3   OH265451   4.303   2.072   2.360 -0.0387 -0.1940 -0.2313
14679TIP3    H165452   4.227   2.026   2.396  0.8442 -0.9965  0.6521
14679TIP3    H265453   4.278   2.164   2.358  0.1797 -0.0248  3.2413
14680TIP3   OH265454   5.281   2.132   1.654  0.5169 -0.3053 -0.2975
14680TIP3    H165455   5.214   2.113   1.588 -0.1158  0.0341  0.2350
14680TIP3    H265456   5.260   2.073   1.727  1.4715 -0.9859 -0.5756
14681TIP3   OH265457   2.463   3.506   3.502 -0.6378 -0.0877 -0.1631
14681TIP3    H165458   2.416   3.473   3.578  0.8311 -1.1509  0.3004
14681TIP3    H265459   2.399   3.502   3.431 -1.3015 -1.3315  0.4995
14682TIP3   OH265460   0.740   2.853   3.590  0.0779 -0.0879 -0.1517
14682TIP3    H165461   0.692   2.837   3.509  0.8172  1.7659 -0.9847
14682TIP3    H265462   0.827   2.816   3.574  0.5257  1.1229 -0.5838
14683TIP3   OH265463   2.305   3.539   3.251 -0.1167  0.7693  0.7261
14683TIP3    H165464   2.225   3.592   3.245 -0.5824 -0.1556 -2.5478
14683TIP3    H265465   2.276   3.450   3.231  1.2047 -0.2182  2.9447
14684TIP3   OH265466   3.740   3.831   4.231 -0.4761  0.2554  0.6822
14684TIP3    H165467   3.717   3.861   4.319  0.8836  1.2992  0.7031
14684TIP3    H265468   3.724   3.737   4.232 -1.1240  0.3721  1.8270
14685TIP3   OH265469   5.953   1.542   3.875 -0.1488  0.4335 -0.2340
14685TIP3    H165470   6.018   1.552   3.805 -0.5286  0.4974 -0.5802
14685TIP3    H265471   5.893   1.617   3.863 -0.2839  0.3749  0.0804
14686TIP3   OH265472   3.040   3.918   0.376  0.0290 -0.2498  0.0813
14686TIP3    H165473   2.952   3.931   0.340 -0.2498 -2.1820 -0.0176
14686TIP3    H265474   3.027   3.915   0.471  0.1802  0.7436  0.1384
14687TIP3   OH265475   4.330   3.523   3.536  0.0445 -0.0515 -0.2380
14687TIP3    H165476   4.351   3.470   3.459 -0.9124  1.4151 -1.5387
14687TIP3    H265477   4.253   3.480   3.573 -1.1510  0.7658 -1.6842
14688TIP3   OH265478   2.958   2.090   2.940  0.3976  0.4281  0.3172
14688TIP3    H165479   2.932   2.149   3.011  1.2622  1.7011 -0.4149
14688TIP3    H265480   2.938   2.003   2.974  1.0801  0.9940  2.2476
14689TIP3   OH265481   2.373   4.706   3.926 -0.0514  0.2741 -0.1501
14689TIP3    H165482   2.423   4.643   3.977  0.4827  0.5499 -0.3234
14689TIP3    H265483   2.294   4.659   3.900  0.7255 -0.6014 -0.9748
14690TIP3   OH265484   5.903   4.026   2.410 -0.3062 -0.1467  0.0309
14690TIP3    H165485   5.961   3.955   2.383 -1.5426 -1.3308  0.4601
14690TIP3    H265486   5.960   4.104   2.412  1.1994 -1.2326  0.2129
14691TIP3   OH265487   4.477   0.603  15.578  0.0216 -0.1533 -0.5903
14691TIP3    H165488   4.442   0.632  15.493  0.0863  1.1973 -0.1748
14691TIP3    H265489   4.401   0.572  15.626  0.0165 -1.1461 -1.2228
14692TIP3   OH265490   4.201   2.362   3.950  0.0803 -0.6165 -1.1387
14692TIP3    H165491   4.274   2.309   3.982 -0.5242 -1.4258 -1.0793
14692TIP3    H265492   4.126   2.330   3.999 -0.0798  1.1471 -0.2235
14693TIP3   OH265493   5.144   3.343   0.696 -0.1743 -0.1163  0.3235
14693TIP3    H165494   5.065   3.394   0.682  0.1769  0.8490  1.7587
14693TIP3    H265495   5.153   3.290   0.617 -1.0271  1.3851 -0.7913
14694TIP3   OH265496   5.712   4.892   4.058 -0.2796 -0.7754  0.0319
14694TIP3    H165497   5.718   4.973   4.109  0.0582 -1.1245  0.5477
14694TIP3    H265498   5.803   4.863   4.048 -0.3095 -0.5026 -1.1003
14695TIP3   OH265499   3.760   3.575   4.284 -0.3982 -0.3554  0.1093
14695TIP3    H165500   3.682   3.520   4.277 -0.6304  0.0027 -0.1134
14695TIP3    H265501   3.772   3.586   4.378  0.2384 -1.6142  0.1934
14696TIP3   OH265502   5.036   2.378   3.280  0.2317  0.1590 -0.4028
14696TIP3    H165503   5.110   2.434   3.305  1.2529 -2.0451  1.6998
14696TIP3    H265504   4.999   2.347   3.362 -1.5645 -0.6547 -1.4778
14697TIP3   OH265505   6.814   2.466   3.314  0.3504  0.3080 -0.2844
14697TIP3    H165506   6.780   2.556   3.311  2.2844  1.0378 -0.9355
14697TIP3    H265507   6.900   2.472   3.274  0.9164 -1.6709  0.5984
14698TIP3   OH265508   4.162   3.341   0.470 -0.0866 -0.0079  0.0515
14698TIP3    H165509   4.115   3.421   0.445  1.2606  0.9187  0.3808
14698TIP3    H265510   4.183   3.299   0.387 -0.3608  0.2377 -0.1460
14699TIP3   OH265511   4.042   3.882   5.020 -0.4282 -0.0044  0.1147
14699TIP3    H165512   3.988   3.821   5.072  0.7286 -0.8151  0.3863
14699TIP3    H265513   4.058   3.836   4.938  1.1594 -0.4415  0.6502
14700TIP3   OH265514   4.772   4.018   2.682 -0.3895 -0.1959  0.0837
14700TIP3    H165515   4.785   3.935   2.728  0.8840 -0.2368 -0.3319
14700TIP3    H265516   4.842   4.075   2.714 -0.4269  0.2738 -0.6500
14701TIP3   OH265517   3.510   1.999   3.372 -0.2478 -0.2058 -0.6399
14701TIP3    H165518   3.526   2.070   3.435 -0.2880 -0.0196 -0.8381
14701TIP3    H265519   3.489   2.044   3.290 -0.9123 -0.4413 -0.6048
14702TIP3   OH265520   6.720   2.801   3.948  0.3689  0.4483 -0.3032
14702TIP3    H165521   6.662   2.735   3.909  2.6351 -1.7162 -0.1442
14702TIP3    H265522   6.665   2.848   4.010 -0.9379 -2.3940  0.7791
14703TIP3   OH265523   3.307   3.671   3.855 -0.3758  0.4067  0.0449
14703TIP3    H165524   3.240   3.602   3.846  1.1834 -1.1326 -0.0473
14703TIP3    H265525   3.339   3.661   3.944  0.7696  0.1629 -0.3938
14704TIP3   OH265526   3.342   1.144   2.924 -0.7825 -0.9115 -0.0045
14704TIP3    H165527   3.403   1.090   2.874 -1.2626 -0.3014 -1.2752
14704TIP3    H265528   3.291   1.081   2.976  1.3322 -1.3898  1.5829
14705TIP3   OH265529   5.311   4.730   4.597  0.3011  0.7622 -0.0845
14705TIP3    H165530   5.370   4.805   4.601  0.5114  0.6390 -0.7994
14705TIP3    H265531   5.278   4.720   4.687 -0.0742  1.9837 -0.0773
14706TIP3   OH265532   2.529   2.393   3.445  0.7241  0.0224  0.2897
14706TIP3    H165533   2.460   2.360   3.502  1.1697  1.0757  1.4729
14706TIP3    H265534   2.549   2.321   3.386  0.5674 -1.2439  1.7624
14707TIP3   OH265535   2.656   1.083   5.009 -0.5013 -0.1239 -0.0785
14707TIP3    H165536   2.709   1.163   5.016 -1.4708  0.7427 -2.2282
14707TIP3    H265537   2.582   1.099   5.067 -0.5547  0.4355 -0.2956
14708TIP3   OH265538   4.390   4.977   2.868  0.1493  0.6083 -0.1355
14708TIP3    H165539   4.423   5.004   2.782  2.2026 -0.3854  0.3056
14708TIP3    H265540   4.297   4.998   2.866 -0.4938 -2.1636 -3.7090
14709TIP3   OH265541   5.410   3.273   3.551  0.2187 -0.2904 -0.0521
14709TIP3    H165542   5.478   3.340   3.546  1.2247 -1.3563 -0.6871
14709TIP3    H265543   5.440   3.213   3.619  0.4331 -1.3340 -1.0607
14710TIP3   OH265544   7.187   4.469   2.031 -0.0943  0.1696  0.6220
14710TIP3    H165545   7.173   4.512   2.115  0.3589  2.0800 -0.2618
14710TIP3    H265546   7.200   4.541   1.968  2.6595 -1.2586 -0.5356
14711TIP3   OH265547   4.549   4.102   2.542  0.2072 -0.1609  0.0759
14711TIP3    H165548   4.628   4.084   2.592  0.7394  0.9329 -0.3554
14711TIP3    H265549   4.542   4.197   2.541 -0.6707 -0.2262 -0.5664
14712TIP3   OH265550   3.180   3.679   5.216 -0.7245 -0.0161 -0.0226
14712TIP3    H165551   3.105   3.662   5.273  0.3333  1.5182  1.8595
14712TIP3    H265552   3.249   3.621   5.248 -0.5521 -0.1712 -0.6570
14713TIP3   OH265553   4.920   3.012   4.088 -0.4124 -0.0648 -0.0160
14713TIP3    H165554   4.882   2.974   4.009 -0.1008  2.3474 -1.3667
14713TIP3    H265555   4.962   3.093   4.059 -2.8191  2.4538  3.0600
14714TIP3   OH265556   2.571   4.362   3.075  0.1004 -0.8705  0.0077
14714TIP3    H165557   2.522   4.370   2.993 -0.1301  1.2070  0.3409
14714TIP3    H265558   2.503   4.358   3.143  0.3428  0.0093  0.3065
14715TIP3   OH265559   4.965   6.401   3.838 -0.4531  0.1500 -0.1799
14715TIP3    H165560   4.996   6.415   3.749  0.9639 -1.6282  0.0031
14715TIP3    H265561   4.958   6.489   3.875  1.5389  0.7651 -1.1903
14716TIP3   OH265562   4.713   3.770   2.168 -0.2276  0.3483 -0.0562
14716TIP3    H165563   4.758   3.846   2.132 -0.4955  0.7375  0.4233
14716TIP3    H265564   4.694   3.794   2.259  0.5875 -0.6788  0.4057
14717TIP3   OH265565   4.658   6.447   3.082  0.5867 -0.0315  0.2718
14717TIP3    H165566   4.738   6.396   3.074  0.8101  0.0906  1.6264
14717TIP3    H265567   4.688   6.537   3.096  0.2113 -0.0539  1.2110
14718TIP3   OH265568   4.547   3.802   4.751  0.4467 -0.2507  0.0203
14718TIP3    H165569   4.588   3.889   4.755 -0.5778  0.2797 -0.8469
14718TIP3    H265570   4.463   3.814   4.795  0.6265 -0.9946  0.5671
14719TIP3   OH265571   5.399   2.079   4.940 -0.4047  0.4297 -1.1057
14719TIP3    H165572   5.324   2.027   4.913 -1.7557  1.8720 -0.2320
14719TIP3    H265573   5.452   2.087   4.861 -0.1622 -2.2458 -1.2338
14720TIP3   OH265574   5.854   2.806   4.975 -0.3712 -0.6118  0.3215
14720TIP3    H165575   5.842   2.715   4.946  0.4818 -1.0835  1.4477
14720TIP3    H265576   5.918   2.801   5.046 -0.9679  0.7782  0.9710
14721TIP3   OH265577   3.988   5.815   3.169 -0.4184  0.0835 -0.1052
14721TIP3    H165578   4.031   5.850   3.246  0.9440 -0.1424 -0.7533
14721TIP3    H265579   3.916   5.763   3.204  0.1167  0.0772  1.0096
14722TIP3   OH265580   3.903   4.117   4.638  0.1360 -0.1597 -0.0497
14722TIP3    H165581   3.852   4.187   4.597 -0.1204  0.0143  0.5632
14722TIP3    H265582   3.869   4.111   4.727  0.5544 -0.6743  0.0809
14723TIP3   OH265583   1.986   1.659   2.877 -0.3482  0.0434  0.2069
14723TIP3    H165584   1.923   1.682   2.946  1.3557  1.5155  1.2958
14723TIP3    H265585   1.931   1.632   2.804 -2.2150 -2.5441  2.4360
14724TIP3   OH265586   3.097   3.218   4.312  0.0910  0.0509 -0.0255
14724TIP3    H165587   3.024   3.271   4.343  0.4650  0.5461  0.0178
14724TIP3    H265588   3.139   3.186   4.391  0.6548  0.7770 -0.0304
14725TIP3   OH265589   6.094   0.610   3.927  0.1582 -0.3523 -0.2373
14725TIP3    H165590   6.130   0.521   3.926  1.8887  0.3329 -0.5096
14725TIP3    H265591   6.107   0.639   4.017 -2.2348 -1.0709  0.3807
14726TIP3   OH265592   5.394   6.605   4.240  0.1169 -0.3937  0.2309
14726TIP3    H165593   5.432   6.659   4.171  1.4545 -0.3363  1.0094
14726TIP3    H265594   5.310   6.647   4.259  1.1033  1.3845  0.7772
14727TIP3   OH265595   1.929   6.996   3.768  0.0507 -0.1308 -0.1577
14727TIP3    H165596   2.018   7.021   3.792  0.1436 -0.4330 -0.1877
14727TIP3    H265597   1.935   6.903   3.749 -0.6829 -0.6439  1.9347
14728TIP3   OH265598   5.416   0.903   1.586  0.1291  0.2715  0.6184
14728TIP3    H165599   5.394   0.809   1.589  1.9551 -0.1355  2.8728
14728TIP3    H265600   5.461   0.914   1.503 -1.7132 -0.4536 -0.5111
14729TIP3   OH265601   3.904   2.410   3.328  0.4362  0.1114 -0.0413
14729TIP3    H165602   3.998   2.394   3.328  0.3498 -0.4101  0.1481
14729TIP3    H265603   3.869   2.350   3.393 -0.2470 -1.1137 -1.4995
14730TIP3   OH265604   4.578   2.488   3.006  0.0694  0.1122  0.2965
14730TIP3    H165605   4.651   2.426   2.995 -1.6648 -1.4670 -2.8351
14730TIP3    H265606   4.539   2.464   3.090  1.1415 -1.1765  0.4462
14731TIP3   OH265607   5.400   1.040   3.362 -0.7239  0.2753  0.3539
14731TIP3    H165608   5.456   1.050   3.439  0.9194 -1.1195 -0.6246
14731TIP3    H265609   5.317   1.008   3.396  0.0921 -0.6330  1.5142
14732TIP3   OH265610   5.175   1.707   4.144  0.4404 -0.5646  0.3829
14732TIP3    H165611   5.099   1.725   4.200  0.1513 -0.2338 -0.1110
14732TIP3    H265612   5.169   1.613   4.126 -1.1998 -0.1087 -1.5908
14733TIP3   OH265613   3.633   3.051   1.679  0.1559  0.9032 -0.0011
14733TIP3    H165614   3.714   3.058   1.730 -0.0377 -0.5920  0.5280
14733TIP3    H265615   3.580   3.126   1.709  1.4610  2.0766 -0.5943
14734TIP3   OH265616   4.963   4.761   2.019  0.8573  0.0465 -0.0256
14734TIP3    H165617   5.019   4.685   2.006  1.2842  0.1807  1.0423
14734TIP3    H265618   4.918   4.745   2.102  0.7279  0.8129  0.0581
14735TIP3   OH265619   4.964   2.569   2.870  0.0057 -0.7929  0.3559
14735TIP3    H165620   4.890   2.570   2.810  0.8049 -0.1805 -0.6350
14735TIP3    H265621   5.040   2.590   2.816  0.8199 -0.7599  1.4759
14736TIP3   OH265622   2.244   2.222   2.257  0.4605 -0.2351 -0.1430
14736TIP3    H165623   2.296   2.243   2.179  1.4096 -1.0574  0.2614
14736TIP3    H265624   2.293   2.153   2.301 -3.2867 -4.5900 -2.2554
14737TIP3   OH265625   4.395   2.147   4.859  0.0305  0.2836  0.1284
14737TIP3    H165626   4.437   2.166   4.775  0.1397  0.2583  0.1771
14737TIP3    H265627   4.386   2.233   4.900 -0.6815  0.3801 -0.2125
14738TIP3   OH265628   5.243   1.128   3.785  0.3120 -0.4477  0.2518
14738TIP3    H165629   5.274   1.075   3.858 -0.2868 -2.4096 -0.8969
14738TIP3    H265630   5.154   1.153   3.810  0.5070 -0.1570  0.6777
14739TIP3   OH265631   6.556   4.539   3.214 -0.4172 -0.1160  0.0638
14739TIP3    H165632   6.588   4.448   3.214 -0.9889 -0.3187 -0.5189
14739TIP3    H265633   6.505   4.545   3.295  0.5578  0.0261  0.6794
14740TIP3   OH265634   3.599   5.074   3.442 -0.5330  0.4124 -0.2514
14740TIP3    H165635   3.558   5.103   3.361  0.4770 -2.1011 -1.7480
14740TIP3    H265636   3.655   5.147   3.468 -1.6446  1.6445 -1.2483
14741TIP3   OH265637   4.520   1.159   5.133 -0.0785 -0.2806  0.5457
14741TIP3    H165638   4.497   1.127   5.046  2.3551 -1.0211  0.1333
14741TIP3    H265639   4.468   1.106   5.193 -1.4175 -0.0903 -0.4091
14742TIP3   OH265640   4.879   2.685   1.883  0.5014  0.6902  0.2012
14742TIP3    H165641   4.846   2.607   1.927 -1.1532  1.0365 -0.3888
14742TIP3    H265642   4.950   2.653   1.827  2.3906  0.1984  2.7682
14743TIP3   OH265643   5.707   5.771   2.570  0.0000 -0.2643  0.1120
14743TIP3    H165644   5.617   5.760   2.604 -0.0037 -0.8454 -0.0782
14743TIP3    H265645   5.699   5.840   2.504 -0.1744  0.1950  0.6051
14744TIP3   OH265646   4.443   2.663   3.797 -0.3992  0.4121  0.4006
14744TIP3    H165647   4.429   2.754   3.769 -1.5406  1.0029  2.7300
14744TIP3    H265648   4.514   2.669   3.862 -0.7597 -0.2870  0.8668
14745TIP3   OH265649   5.692   3.204   4.357 -0.2395  0.2520  0.3343
14745TIP3    H165650   5.630   3.171   4.422  0.5373 -0.4941  0.7030
14745TIP3    H265651   5.749   3.130   4.337  0.7621  1.0255  0.2612
14746TIP3   OH265652   6.171   4.632   2.448 -0.2391  0.1905 -0.6844
14746TIP3    H165653   6.244   4.607   2.505 -1.5702 -0.4858  0.7978
14746TIP3    H265654   6.212   4.662   2.367  1.7791  1.9976  0.9216
14747TIP3   OH265655   5.135   2.799   3.123  0.5311 -0.2198  0.0652
14747TIP3    H165656   5.190   2.860   3.172 -2.0362  1.6788  0.6956
14747TIP3    H265657   5.048   2.808   3.163 -0.6307 -1.8595 -1.9853
14748TIP3   OH265658   3.704   3.890   2.724  0.5548 -0.3276  0.2359
14748TIP3    H165659   3.669   3.828   2.661 -2.0531  0.1381  1.1720
14748TIP3    H265660   3.658   3.972   2.706  1.7121  0.5175  1.0238
14749TIP3   OH265661   3.734   3.004   2.354  0.0239  0.5159  0.6641
14749TIP3    H165662   3.782   2.946   2.413  0.9365  2.1247  1.5325
14749TIP3    H265663   3.677   2.945   2.305  0.5115 -1.0524  1.9124
14750TIP3   OH265664   5.202   7.024   2.771 -0.2432 -0.8921 -0.0084
14750TIP3    H165665   5.284   6.987   2.805 -1.2889 -2.1112  1.2453
14750TIP3    H265666   5.194   7.109   2.815  1.2108  0.0269 -1.4644
14751TIP3   OH265667   0.101   1.972   3.513  0.5394  0.0601  0.1582
14751TIP3    H165668   0.118   1.878   3.506 -1.4361 -0.4064  1.4278
14751TIP3    H265669   0.156   2.001   3.585  0.6854 -0.2264  0.1632
14752TIP3   OH265670   4.609   0.757   4.943  0.4149 -0.2124 -0.0009
14752TIP3    H165671   4.554   0.818   4.992 -0.0521 -2.5449  2.5447
14752TIP3    H265672   4.550   0.687   4.916  1.3574 -0.6818 -0.8985
14753TIP3   OH265673   5.807   2.739   3.942  0.0220  0.1454 -0.1972
14753TIP3    H165674   5.882   2.687   3.972  0.2790  0.1807 -0.7641
14753TIP3    H265675   5.840   2.784   3.864 -0.7157 -0.1299 -0.6617
14754TIP3   OH265676   5.359   4.684   1.649 -0.0483  0.3011 -0.4614
14754TIP3    H165677   5.303   4.755   1.619 -0.8078 -0.8610 -1.8582
14754TIP3    H265678   5.328   4.607   1.602  1.3175 -0.7966  0.3769
14755TIP3   OH265679   0.683   2.841   1.590  0.2085  0.4496  0.0901
14755TIP3    H165680   0.632   2.861   1.511  0.0548 -0.7713 -0.1227
14755TIP3    H265681   0.766   2.807   1.557 -0.1188 -0.7294  0.4416
14756TIP3   OH265682   6.014   2.971   0.716  0.2077  0.0059 -0.0921
14756TIP3    H165683   5.957   2.974   0.639  0.2573  0.2592 -0.1177
14756TIP3    H265684   6.091   3.022   0.692  0.1449  0.2338  0.1901
14757TIP3   OH265685   2.887   2.333   1.636 -0.0837  0.1119 -0.3655
14757TIP3    H165686   2.869   2.250   1.681  0.5754 -0.1143 -0.5174
14757TIP3    H265687   2.807   2.352   1.587 -0.0991 -0.6144 -0.6147
14758TIP3   OH265688   5.789   2.087   2.960  0.6312 -0.2672  0.2051
14758TIP3    H165689   5.782   2.058   3.051 -0.8352  0.4397  0.3439
14758TIP3    H265690   5.883   2.089   2.942  0.9497 -0.1288  1.7988
14759TIP3   OH265691   5.218   5.321   3.595 -0.0644  0.1041 -0.2112
14759TIP3    H165692   5.143   5.265   3.616  0.1422 -0.5871 -1.3363
14759TIP3    H265693   5.205   5.346   3.504  1.5378 -0.7406 -0.6812
14760TIP3   OH265694   4.874   2.068   4.554  0.2201 -0.0807  0.3855
14760TIP3    H165695   4.923   2.097   4.477  0.3356 -0.6008  0.2589
14760TIP3    H265696   4.907   1.980   4.572 -0.6801 -0.4471  0.2925
14761TIP3   OH265697   7.241   0.927   1.295 -0.5344  0.6799  0.4680
14761TIP3    H165698   7.205   0.882   1.219  0.6523  1.9633 -0.8888
14761TIP3    H265699   7.186   1.005   1.305 -0.3034  0.8350  0.5393
14762TIP3   OH265700   5.569   4.112   0.071  0.3850 -0.1765 -0.0980
14762TIP3    H165701   5.609   4.088  -0.012 -1.7170 -0.6326 -0.9895
14762TIP3    H265702   5.626   4.073   0.138  1.2899 -0.9972 -1.3421
14763TIP3   OH265703   6.128   2.506   3.661  0.4339  0.4579  0.5670
14763TIP3    H165704   6.040   2.472   3.642  0.3105  1.4210 -0.6004
14763TIP3    H265705   6.159   2.452   3.734 -1.1393  0.1307  1.0078
14764TIP3   OH265706   5.366   2.850   1.997 -0.2258 -0.6986  0.0416
14764TIP3    H165707   5.351   2.757   2.008 -1.4190 -0.6143 -0.7486
14764TIP3    H265708   5.460   2.858   1.978 -0.1484 -1.7376 -0.0012
14765TIP3   OH265709   5.329   2.708   2.423 -0.2248  0.1762 -0.3927
14765TIP3    H165710   5.303   2.617   2.410  0.3760  0.1448 -1.4669
14765TIP3    H265711   5.421   2.704   2.449 -0.1496  0.4766 -0.5980
14766TIP3   OH265712   4.879   2.435   3.077  0.0740 -0.4912  0.9988
14766TIP3    H165713   4.952   2.390   3.119  2.0295  0.2065 -1.5740
14766TIP3    H265714   4.915   2.468   2.995 -2.8535  0.8115  0.1914
14767TIP3   OH265715   5.273   3.002   3.248  0.6378 -0.3180 -0.1572
14767TIP3    H165716   5.229   3.081   3.279 -0.7576 -1.0114 -0.3741
14767TIP3    H265717   5.365   3.016   3.273  0.4916  1.5536 -0.5828
14768TIP3   OH265718   6.348   5.431   4.163  0.2164  0.3961  0.4788
14768TIP3    H165719   6.417   5.375   4.201 -0.4432  0.5318  1.9054
14768TIP3    H265720   6.325   5.388   4.081  2.0608  0.3835 -0.0546
14769TIP3   OH265721   6.793   3.025   3.259  0.1317 -0.3358 -0.0786
14769TIP3    H165722   6.714   3.059   3.301  0.2918 -0.5951  0.4418
14769TIP3    H265723   6.784   3.048   3.167 -0.1273  0.4282  0.1410
14770TIP3   OH265724   3.507   7.073   2.616  1.1553  0.2939 -0.1279
14770TIP3    H165725   3.462   7.154   2.640 -0.3713 -0.3706 -0.6841
14770TIP3    H265726   3.536   7.037   2.700 -0.7279 -0.0461  0.4032
14771TIP3   OH265727   4.891   0.992   1.514 -0.7808  0.0270 -0.0926
14771TIP3    H165728   4.975   0.951   1.495  0.1451  3.0464 -2.9753
14771TIP3    H265729   4.834   0.964   1.442 -2.1599 -1.5895  1.5691
14772TIP3   OH265730   4.715   0.887   2.629 -0.0894  0.3602 -0.2956
14772TIP3    H165731   4.697   0.927   2.714  1.0059  1.4446 -0.5552
14772TIP3    H265732   4.646   0.921   2.572  0.0189  0.7966 -0.1729
14773TIP3   OH265733   4.658   2.517   4.226 -0.3595 -0.2515 -0.7758
14773TIP3    H165734   4.662   2.433   4.179 -0.1418 -0.0036 -1.1968
14773TIP3    H265735   4.722   2.507   4.297 -1.1992 -0.8923 -0.0938
14774TIP3   OH265736   5.237   2.419   2.465  0.7714  0.1181  0.9588
14774TIP3    H165737   5.151   2.427   2.423  1.6884  0.9601 -0.8176
14774TIP3    H265738   5.218   2.412   2.558 -1.3458 -2.0091  0.4177
14775TIP3   OH265739   5.965   3.265   3.096 -0.1174  0.0603  0.5451
14775TIP3    H165740   5.927   3.219   3.021 -0.1019  0.9040  0.0225
14775TIP3    H265741   6.051   3.224   3.108 -0.0591  0.0277  0.0142
14776TIP3   OH265742   5.016   3.001   3.585  0.0009 -0.5692 -0.2964
14776TIP3    H165743   5.111   2.988   3.588  0.0024 -0.3561  0.6205
14776TIP3    H265744   4.992   2.982   3.494  1.1848  1.1994 -1.0145
14777TIP3   OH265745   1.889   2.467   3.326 -0.5199 -0.3677 -1.0416
14777TIP3    H165746   1.905   2.477   3.420 -0.9130  1.5389 -1.1716
14777TIP3    H265747   1.902   2.373   3.310 -2.3613 -1.0720  1.2609
14778TIP3   OH265748   5.400   3.038   2.529 -0.0378 -0.0975 -0.2438
14778TIP3    H165749   5.484   3.018   2.571 -0.9255 -0.3957  1.4166
14778TIP3    H265750   5.334   3.006   2.590 -1.4059  2.1045 -0.5171
14779TIP3   OH265751   4.093   1.953   2.513  0.5564  0.0771  0.4965
14779TIP3    H165752   4.152   1.922   2.583  0.1923 -0.7814  0.4306
14779TIP3    H265753   4.018   1.894   2.518 -0.3770  1.2736  0.6829
14780TIP3   OH265754   4.302   4.968   1.495  0.1863  0.3717 -0.4769
14780TIP3    H165755   4.237   4.910   1.535  0.8576 -0.6348 -0.8349
14780TIP3    H265756   4.370   4.909   1.462  0.5079  1.3176 -1.5161
14781TIP3   OH265757   3.092   2.970  13.926 -0.1680 -0.5225 -0.2315
14781TIP3    H165758   3.090   3.050  13.979  1.9930 -1.3613  1.1866
14781TIP3    H265759   3.089   3.001  13.835  0.9787  1.2090  0.2960
14782TIP3   OH265760   3.402   5.982   4.451 -0.5925  0.3448 -0.2959
14782TIP3    H165761   3.347   6.021   4.519  0.7926  0.4364  0.7969
14782TIP3    H265762   3.354   5.904   4.424 -1.3668  0.5384  0.4828
14783TIP3   OH265763   5.392   4.125   4.425  0.6611 -0.3798 -0.1876
14783TIP3    H165764   5.347   4.177   4.358  0.4594  0.4506  0.5758
14783TIP3    H265765   5.442   4.189   4.476  0.2427 -0.9022  0.8988
14784TIP3   OH265766   2.754   1.995   3.630  0.1031 -0.0308  0.4273
14784TIP3    H165767   2.677   1.995   3.572 -0.6142  2.6199  1.3156
14784TIP3    H265768   2.829   1.994   3.570 -0.5629 -3.8054 -0.4411
14785TIP3   OH265769   4.765   4.011   3.461 -0.3368 -0.1204 -0.1356
14785TIP3    H165770   4.715   4.053   3.391 -1.5962  0.7755  1.2635
14785TIP3    H265771   4.741   3.919   3.455 -0.9030  0.0456 -0.5315
14786TIP3   OH265772   6.536   3.494   4.874  0.4054 -0.4693 -0.4266
14786TIP3    H165773   6.577   3.576   4.900 -1.7936 -0.0852  2.0369
14786TIP3    H265774   6.445   3.502   4.903  0.2098 -3.8768  0.1412
14787TIP3   OH265775   2.555   2.071   5.313 -0.9727  0.2832  0.3121
14787TIP3    H165776   2.492   2.143   5.309  1.9621  2.9252 -0.9326
14787TIP3    H265777   2.585   2.070   5.403 -0.8557  0.7868  0.2820
14788TIP3   OH265778   4.106   3.911   2.615 -0.3772 -0.5057  0.4461
14788TIP3    H165779   4.200   3.895   2.609 -0.2589  0.5427 -0.6858
14788TIP3    H265780   4.066   3.836   2.568 -0.1419 -1.2216  1.3763
14789TIP3   OH265781   6.596   4.293   2.730 -0.2618 -0.7191 -0.7441
14789TIP3    H165782   6.690   4.278   2.722  0.4423  2.8500 -0.3764
14789TIP3    H265783   6.581   4.303   2.824 -1.2628 -2.5104 -0.6877
14790TIP3   OH265784   4.820   5.731   2.866  0.1353  0.0354 -0.8909
14790TIP3    H165785   4.731   5.758   2.889  0.7342 -1.0698  3.0154
14790TIP3    H265786   4.811   5.640   2.839  0.0660 -0.0489 -0.5862
14791TIP3   OH265787   5.984   2.885   3.736 -0.1711 -0.0652 -0.4194
14791TIP3    H165788   6.047   2.851   3.671  2.1862 -0.3294  1.8978
14791TIP3    H265789   6.033   2.953   3.783 -2.0569  0.5966  0.6331
14792TIP3   OH265790   5.077   4.505   1.973  0.0337 -0.1548  0.3488
14792TIP3    H165791   5.034   4.467   1.896  0.7617  1.1345 -0.7280
14792TIP3    H265792   5.050   4.450   2.046  2.0708 -3.5177 -1.3343
14793TIP3   OH265793   5.955   4.243   3.310 -0.1071  0.3395  0.4839
14793TIP3    H165794   5.863   4.245   3.335 -0.2645 -0.7600  0.0009
14793TIP3    H265795   5.998   4.192   3.379 -0.1367 -0.5680 -0.1562
14794TIP3   OH265796   2.484   4.500   4.058  0.2858 -0.7210 -0.4335
14794TIP3    H165797   2.436   4.443   4.118 -1.2969  0.7270 -0.2727
14794TIP3    H265798   2.567   4.519   4.103 -1.0426  0.6760  1.5386
14795TIP3   OH265799   4.551   1.932   3.665  0.6062  0.2000 -0.3081
14795TIP3    H165800   4.510   1.953   3.749  1.9524  0.9446  0.1825
14795TIP3    H265801   4.501   1.984   3.601  0.6993  0.9990  0.2585
14796TIP3   OH265802   4.436   4.125   4.616  0.3899  0.6155  0.4133
14796TIP3    H165803   4.362   4.085   4.663 -0.3569  2.3347  0.7521
14796TIP3    H265804   4.395   4.186   4.554  1.4615  0.0772 -0.8503
14797TIP3   OH265805   4.227   4.251   1.844 -0.0413 -0.4535  0.2773
14797TIP3    H165806   4.209   4.186   1.913 -1.0607 -0.0329  0.4173
14797TIP3    H265807   4.165   4.229   1.774 -0.7756  0.6960  0.5466
14798TIP3   OH265808   5.211   1.080   4.794  0.1769 -0.1552 -0.1899
14798TIP3    H165809   5.245   0.994   4.768 -0.6344  0.0600 -2.0111
14798TIP3    H265810   5.129   1.061   4.838 -0.8107 -0.2386 -2.0137
14799TIP3   OH265811   6.447   2.104   2.636 -0.4802  0.1186  0.0907
14799TIP3    H165812   6.415   2.118   2.547 -0.1054  2.4452  0.2823
14799TIP3    H265813   6.494   2.021   2.632 -0.9516 -0.0717 -1.7574
14800TIP3   OH265814   3.823   3.407   5.716  0.1924 -1.3096 -0.2471
14800TIP3    H165815   3.852   3.482   5.768  0.1386 -1.7712  0.4554
14800TIP3    H265816   3.804   3.339   5.781 -2.7110 -0.9437 -0.6548
14801TIP3   OH265817   5.697   3.812   1.173  0.0399 -0.2287  0.2683
14801TIP3    H165818   5.723   3.904   1.172 -1.3172  0.1978 -2.8554
14801TIP3    H265819   5.633   3.805   1.244  0.1690  1.2517  0.5307
14802TIP3   OH265820   3.008   1.850   3.094 -0.1129  0.0496  0.1521
14802TIP3    H165821   2.926   1.835   3.142  0.5940 -0.4442  1.2460
14802TIP3    H265822   3.076   1.843   3.162  0.8115  0.6493 -0.7086
14803TIP3   OH265823   3.511   1.570   4.754 -0.4541  0.2298 -0.5108
14803TIP3    H165824   3.517   1.657   4.714 -2.7186  0.7040  0.1377
14803TIP3    H265825   3.438   1.576   4.815 -1.2667 -2.4307 -1.1545
14804TIP3   OH265826   4.295   3.015   3.438  0.6254  0.0631 -0.2227
14804TIP3    H165827   4.338   3.052   3.360 -1.1943  0.9819 -0.8166
14804TIP3    H265828   4.209   2.988   3.407  0.1521 -0.2457  1.3228
14805TIP3   OH265829   4.903   2.282   4.938 -0.5093 -0.0468 -0.2967
14805TIP3    H165830   4.820   2.282   4.985  0.0502  0.3799  0.7231
14805TIP3    H265831   4.965   2.240   4.998  0.1234  0.1206 -0.8222
14806TIP3   OH265832   4.091   4.604   4.962  0.0760  0.0993 -0.7420
14806TIP3    H165833   4.185   4.584   4.972 -0.2488 -1.5079 -0.8413
14806TIP3    H265834   4.047   4.525   4.993 -1.2521  0.7692 -0.9237
14807TIP3   OH265835   3.060   1.441   3.783  0.2586 -0.1525  0.5306
14807TIP3    H165836   2.997   1.430   3.855 -1.1425 -0.3346 -0.7012
14807TIP3    H265837   3.141   1.404   3.817 -0.5623 -0.8591  1.7860
14808TIP3   OH265838   6.085   2.898   3.345 -0.2485  0.2113 -0.5652
14808TIP3    H165839   6.094   2.858   3.432 -1.3593  0.6660 -0.2395
14808TIP3    H265840   6.034   2.977   3.360  1.0772  1.2495 -1.3582
14809TIP3   OH265841   4.309   0.970   3.290 -0.4073  0.4417  0.0716
14809TIP3    H165842   4.351   1.015   3.364 -2.2553 -1.1987  2.1917
14809TIP3    H265843   4.241   1.030   3.261  0.1264  0.9608 -0.1232
14810TIP3   OH265844   5.722   7.123   4.453 -0.2974 -0.5810 -0.2457
14810TIP3    H165845   5.758   7.039   4.482  1.4261  0.7396  1.5660
14810TIP3    H265846   5.629   7.118   4.476 -0.3832 -2.2830 -0.8864
14811TIP3   OH265847   4.683   0.073   2.412  0.2729  0.2946 -0.2504
14811TIP3    H165848   4.637   0.017   2.349 -1.3518 -0.1804  1.3221
14811TIP3    H265849   4.669   0.161   2.379 -2.0651  0.1875  0.3337
14812TIP3   OH265850   4.410   3.135   4.827 -0.3636  0.2876  0.1988
14812TIP3    H165851   4.468   3.149   4.902 -0.3534  1.0226  0.0576
14812TIP3    H265852   4.331   3.095   4.865  0.2834 -0.8631  0.3669
14813TIP3   OH265853   5.218   6.743   5.073  0.2404 -0.3677 -0.0732
14813TIP3    H165854   5.171   6.672   5.028 -1.3069 -0.0900  1.0614
14813TIP3    H265855   5.299   6.702   5.104  0.2449 -1.1479 -1.0898
14814TIP3   OH265856   3.438   1.444   4.120  0.2723 -0.2281 -0.0930
14814TIP3    H165857   3.472   1.354   4.122 -0.7904 -0.7198 -2.2899
14814TIP3    H265858   3.345   1.434   4.143  0.2362  0.3299 -0.0035
14815TIP3   OH265859   4.504   4.589  15.530 -0.3230  0.1435  0.0243
14815TIP3    H165860   4.517   4.498  15.504  0.8976 -0.4256  2.4645
14815TIP3    H265861   4.418   4.590  15.571 -0.7325  0.2945 -0.8294
14816TIP3   OH265862   4.329   2.181   0.553  0.0889 -0.2579 -0.1090
14816TIP3    H165863   4.287   2.262   0.581  0.4877 -0.6975  1.8499
14816TIP3    H265864   4.266   2.139   0.495 -0.8438  0.6217  0.2631
14817TIP3   OH265865   4.929   5.465   3.883 -0.1331 -0.0879  0.2596
14817TIP3    H165866   5.017   5.501   3.899  0.1133  0.0941 -1.3789
14817TIP3    H265867   4.875   5.542   3.864 -0.7934 -0.1487  1.8378
14818TIP3   OH265868   2.369   3.082   2.670 -0.2280 -0.4175  0.0477
14818TIP3    H165869   2.427   3.133   2.728  0.0412  1.1905 -1.5944
14818TIP3    H265870   2.338   3.145   2.606 -1.5222 -1.9162 -0.8276
14819TIP3   OH265871   5.972   3.737   3.061  0.5966  0.1928  0.4304
14819TIP3    H165872   5.945   3.768   2.974 -1.0964 -0.5115  0.6891
14819TIP3    H265873   6.024   3.809   3.096 -0.4829  1.3787 -0.3258
14820TIP3   OH265874   2.095   2.074   4.342 -0.7068  0.0720  0.1410
14820TIP3    H165875   2.008   2.037   4.325 -0.9064  1.1075 -1.1505
14820TIP3    H265876   2.124   2.107   4.257  0.3925  0.9216  0.8402
14821TIP3   OH265877   6.149   3.443   3.259  0.4476  0.2052  0.1122
14821TIP3    H165878   6.182   3.354   3.259  2.2421  0.8406 -0.6243
14821TIP3    H265879   6.183   3.482   3.340 -0.3194  0.2420  0.4262
14822TIP3   OH265880   4.412   2.692   4.768 -0.2389  0.2705 -0.2949
14822TIP3    H165881   4.481   2.726   4.824 -0.9739  0.8194  0.2973
14822TIP3    H265882   4.331   2.723   4.809 -0.8113  0.1059 -1.2833
14823TIP3   OH265883   4.130   6.698   1.761  0.3837  0.0438  0.1634
14823TIP3    H165884   4.115   6.792   1.764 -1.6384 -0.2964  1.9455
14823TIP3    H265885   4.081   6.668   1.684  0.5825  0.3599 -0.0885
14824TIP3   OH265886   7.167   2.469   1.290 -0.2969  0.1275  0.2594
14824TIP3    H165887   7.227   2.531   1.248  0.4971 -1.1604 -0.5359
14824TIP3    H265888   7.097   2.524   1.325  1.8891  1.7797  2.1802
14825TIP3   OH265889   5.843   3.858   2.852 -0.2940  0.0085  0.9249
14825TIP3    H165890   5.801   3.942   2.872 -1.3611 -0.0478 -0.9249
14825TIP3    H265891   5.837   3.850   2.756  2.6493 -0.7077  0.7546
14826TIP3   OH265892   6.596   4.337   0.996 -0.0829 -0.2577 -0.0614
14826TIP3    H165893   6.626   4.343   0.905  0.5925  0.0287  0.1847
14826TIP3    H265894   6.559   4.423   1.015  0.4745 -0.0706  0.1842
14827TIP3   OH265895   3.886   2.256   3.580  0.2685 -0.3929 -0.7579
14827TIP3    H165896   3.848   2.340   3.607  2.6873  0.3925  0.3321
14827TIP3    H265897   3.844   2.192   3.638  2.2269  0.7545  2.0748
14828TIP3   OH265898   4.547   0.598   2.216 -0.1675  0.5990 -0.2275
14828TIP3    H165899   4.548   0.651   2.136 -0.6923 -0.2150 -0.7790
14828TIP3    H265900   4.541   0.662   2.287 -1.2207  1.2581 -0.9017
14829TIP3   OH265901   4.191   3.054   1.376  0.5909 -0.0945  0.4367
14829TIP3    H165902   4.162   3.145   1.371  0.9492 -0.0441 -1.0134
14829TIP3    H265903   4.285   3.058   1.358  0.2703 -0.9154 -1.6415
14830TIP3   OH265904   3.971   3.168   4.351 -0.1500  0.5601  0.2259
14830TIP3    H165905   4.028   3.094   4.372 -1.9551 -0.2026  2.7565
14830TIP3    H265906   4.015   3.244   4.387  0.1474  0.2372  0.5406
14831TIP3   OH265907   5.582   2.894   5.043  0.1559  0.0853  0.1129
14831TIP3    H165908   5.673   2.864   5.041 -0.6210 -2.4524  0.8456
14831TIP3    H265909   5.567   2.916   5.135 -0.0841  0.1827  0.0492
14832TIP3   OH265910   3.943   3.082   3.006  0.0618  0.1938  0.4225
14832TIP3    H165911   3.859   3.064   2.965 -0.7165  0.5893  1.7861
14832TIP3    H265912   3.987   3.144   2.948  0.3191 -1.6059 -1.3607
14833TIP3   OH265913   3.268   3.178   3.427 -0.0492  0.3297  0.1856
14833TIP3    H165914   3.294   3.159   3.517  1.8215 -0.5955 -0.5145
14833TIP3    H265915   3.227   3.264   3.431  1.1481  0.8515  1.7255
14834TIP3   OH265916   6.478   3.044   4.086  0.0661  0.2995  0.2157
14834TIP3    H165917   6.411   3.000   4.033  2.3117 -0.0965 -2.3651
14834TIP3    H265918   6.517   2.974   4.138 -1.3465  0.5001  1.5868
14835TIP3   OH265919   5.756   1.341   1.038 -0.3093  0.0332 -1.1164
14835TIP3    H165920   5.766   1.435   1.027 -0.0887  0.1986  0.3623
14835TIP3    H265921   5.804   1.303   0.965 -0.4868  1.0693 -1.7843
14836TIP3   OH265922   4.752   1.662   3.942  0.1747  0.1325 -0.0137
14836TIP3    H165923   4.719   1.637   3.855 -0.2985  0.2006  0.1449
14836TIP3    H265924   4.837   1.703   3.924 -0.3184  0.9493 -0.5302
14837TIP3   OH265925   6.679   2.798   1.641 -0.0205 -0.1387  0.5913
14837TIP3    H165926   6.671   2.868   1.576 -1.7359 -1.1956 -0.3998
14837TIP3    H265927   6.767   2.764   1.629  0.1271  0.5336 -0.2942
14838TIP3   OH265928   3.993   4.198   0.861 -0.1248 -0.0031 -0.1788
14838TIP3    H165929   4.022   4.285   0.887 -1.5225  0.4495 -0.1245
14838TIP3    H265930   3.937   4.169   0.933 -2.1196  0.2963 -1.5844
14839TIP3   OH265931   1.726   0.983   3.813 -0.2699 -0.8927  0.4888
14839TIP3    H165932   1.808   0.991   3.861 -0.8611 -0.0338  1.3753
14839TIP3    H265933   1.752   0.955   3.725  1.0210  0.0140  0.5716
14840TIP3   OH265934   5.515   4.877   1.197  0.3029  0.5832 -0.1770
14840TIP3    H165935   5.582   4.899   1.133  1.5042  0.8835  1.1445
14840TIP3    H265936   5.559   4.817   1.257 -0.9859 -0.1909  0.0063
14841TIP3   OH265937   3.922   2.076   4.360  0.3942 -0.2373  0.2385
14841TIP3    H165938   3.895   2.146   4.420  0.6228  0.0629 -0.0072
14841TIP3    H265939   3.971   2.016   4.415  0.3565 -0.1093  0.4145
14842TIP3   OH265940   0.272   4.176   2.520  0.0179 -0.4127 -0.1762
14842TIP3    H165941   0.230   4.169   2.605  0.2013  2.7118  0.2133
14842TIP3    H265942   0.359   4.210   2.539  1.2235 -2.6772 -1.3727
14843TIP3   OH265943   2.198   3.337   5.033  0.7004 -0.1195 -0.0594
14843TIP3    H165944   2.112   3.340   4.990  0.9508 -2.4371 -0.8118
14843TIP3    H265945   2.250   3.404   4.987 -0.2051  0.1270 -0.7427
14844TIP3   OH265946   5.130   2.985   4.893  0.3302 -0.1533  0.2946
14844TIP3    H165947   5.071   2.919   4.928  0.4274 -1.5460 -2.0825
14844TIP3    H265948   5.073   3.049   4.851  0.3836 -0.2602  0.0577
14845TIP3   OH265949   1.439   2.602   5.749  0.8902  0.1883 -0.0883
14845TIP3    H165950   1.451   2.684   5.701  2.4914  0.6776  1.0949
14845TIP3    H265951   1.481   2.618   5.833 -0.5101 -1.1937  0.8888
14846TIP3   OH265952   4.510   3.393   5.470  0.0786  0.0294 -0.1776
14846TIP3    H165953   4.489   3.300   5.483 -0.0193  0.1464  0.4936
14846TIP3    H265954   4.432   3.430   5.429 -0.0642 -0.0808 -0.0033
14847TIP3   OH265955   5.512   3.637   1.603  0.1717  0.0186  0.3376
14847TIP3    H165956   5.464   3.623   1.685 -2.2878  3.3370 -0.4465
14847TIP3    H265957   5.463   3.586   1.538  0.3510 -0.1885  0.3644
14848TIP3   OH265958   4.950   1.957   2.649  0.2082  0.1405  0.8525
14848TIP3    H165959   4.863   1.949   2.610  0.5758  2.1816 -0.4722
14848TIP3    H265960   4.949   1.895   2.722 -0.5305 -3.6661 -2.2430
14849TIP3   OH265961   3.649   2.266   4.897  0.1905 -0.2902 -0.1815
14849TIP3    H165962   3.649   2.319   4.817  0.5324  1.3586  0.8938
14849TIP3    H265963   3.567   2.289   4.941  0.4060 -0.5478  0.3591
14850TIP3   OH265964   6.509   2.593   4.411  0.3216 -0.3802 -0.1873
14850TIP3    H165965   6.446   2.665   4.417 -0.8979 -1.4899  0.6558
14850TIP3    H265966   6.543   2.598   4.322 -0.6230  0.5221 -0.5090
14851TIP3   OH265967   6.145   1.774   2.424 -0.2876 -0.8121  0.3887
14851TIP3    H165968   6.155   1.700   2.365  0.7770 -1.2601  1.1321
14851TIP3    H265969   6.054   1.769   2.453  0.1809 -2.6782  1.5774
14852TIP3   OH265970   4.167   0.541   3.748 -0.0457 -0.1016 -0.0299
14852TIP3    H165971   4.197   0.573   3.663 -0.1510 -0.3436 -0.1577
14852TIP3    H265972   4.174   0.617   3.806  0.8385 -0.1690 -0.0528
14853TIP3   OH265973   3.417   4.951   1.513 -0.2857  0.7782  0.6466
14853TIP3    H165974   3.372   4.979   1.592  0.5386  0.6834  1.1549
14853TIP3    H265975   3.479   4.884   1.543 -1.7729 -1.1419 -0.4490
14854TIP3   OH265976   3.343   6.198   3.669  0.7381 -0.7156  0.1045
14854TIP3    H165977   3.411   6.224   3.731  1.5209  0.4978 -1.2399
14854TIP3    H265978   3.281   6.147   3.722  1.4346  0.1941  1.8560
14855TIP3   OH265979   4.549   1.910   4.621 -0.4795  0.1325  0.5753
14855TIP3    H165980   4.572   1.883   4.531  1.5816  1.3535  0.7000
14855TIP3    H265981   4.535   2.004   4.615  0.0612  0.2859  1.6071
14856TIP3   OH265982   6.272   3.073   1.120  0.4673  0.5652  0.2274
14856TIP3    H165983   6.324   3.133   1.173 -0.8855  0.7151  1.4096
14856TIP3    H265984   6.278   3.107   1.031  1.3865  1.2643  0.5586
14857TIP3   OH265985   5.471   2.871   4.391 -0.9992 -0.7127  0.1168
14857TIP3    H165986   5.376   2.878   4.376 -0.9585 -0.2935  0.0440
14857TIP3    H265987   5.489   2.937   4.457 -0.6389 -0.2804 -0.4096
14858TIP3   OH265988   5.153   7.123   3.729 -0.4255 -0.1789 -0.3604
14858TIP3    H165989   5.099   7.109   3.651  2.3780  1.1040 -2.6039
14858TIP3    H265990   5.215   7.191   3.704  0.7970 -0.0096  2.8915
14859TIP3   OH265991   4.535   3.630   1.474 -0.2290  0.0118  0.1755
14859TIP3    H165992   4.487   3.638   1.557  1.3668  0.1288  1.1035
14859TIP3    H265993   4.588   3.709   1.469 -0.0305 -0.1772 -0.7860
14860TIP3   OH265994   3.021   1.281   5.239 -0.1361 -0.4437 -0.3099
14860TIP3    H165995   3.085   1.252   5.175 -0.8719 -0.4901 -1.0422
14860TIP3    H265996   3.072   1.300   5.318  0.9272  0.7406 -1.2666
14861TIP3   OH265997   3.971   0.831   4.399  0.9253  0.0119  0.3358
14861TIP3    H165998   4.059   0.804   4.374  0.8196  0.3595 -0.4358
14861TIP3    H265999   3.966   0.924   4.375 -0.2237 -0.4368 -1.2613
14862TIP3   OH266000   2.953   3.257   5.169  0.0698 -0.2608  0.1521
14862TIP3    H166001   3.000   3.243   5.251  1.9357  2.1966 -0.4674
14862TIP3    H266002   3.011   3.221   5.102 -0.0389  0.5547 -0.3846
14863TIP3   OH266003   4.466   3.625   1.757  0.0352  0.6438  0.2773
14863TIP3    H166004   4.386   3.579   1.732  0.4349  0.4378 -0.6127
14863TIP3    H266005   4.490   3.586   1.841 -1.5926  1.7024  1.2682
14864TIP3   OH266006   3.243   2.637   3.073 -0.1002 -0.0434 -0.4419
14864TIP3    H166007   3.214   2.567   3.015  0.8479  0.2308 -1.2673
14864TIP3    H266008   3.310   2.683   3.022 -1.6051  2.2407 -0.4271
14865TIP3   OH266009   6.692   2.414   4.173  0.2698 -0.0176 -0.3703
14865TIP3    H166010   6.773   2.426   4.123  0.0319 -2.3672 -1.3987
14865TIP3    H266011   6.622   2.434   4.110  0.0188 -0.0277 -0.0953
14866TIP3   OH266012   6.923   1.545   3.338  0.5032 -0.2853  0.2168
14866TIP3    H166013   6.880   1.477   3.389 -1.5205  0.2770 -0.6621
14866TIP3    H266014   6.982   1.498   3.279 -0.8262 -1.2843 -0.3327
14867TIP3   OH266015   3.106   3.075   0.947  0.3126 -0.3812 -0.3875
14867TIP3    H166016   3.117   3.009   1.015 -0.3430 -0.9933 -0.8732
14867TIP3    H266017   3.015   3.104   0.957  0.4788  0.1652 -0.4327
14868TIP3   OH266018   2.411   4.183   3.905 -0.4212 -0.2535  0.6267
14868TIP3    H166019   2.373   4.198   3.818  0.0576 -2.0312  0.0931
14868TIP3    H266020   2.347   4.220   3.966 -2.8742 -2.8209 -0.2850
14869TIP3   OH266021   2.046   1.706   3.194 -0.1063  0.2630  0.4020
14869TIP3    H166022   2.100   1.695   3.273  1.6043  0.5183 -0.7022
14869TIP3    H266023   2.062   1.796   3.167 -1.5045  0.5008  0.3371
14870TIP3   OH266024   4.211   2.727   3.926  0.3906  0.1398 -0.1882
14870TIP3    H166025   4.281   2.677   3.885  0.2642 -0.6885  0.5854
14870TIP3    H266026   4.137   2.719   3.865  0.6227  0.0772 -0.4635
14871TIP3   OH266027   5.558   2.594   3.527  0.0996  0.5118 -0.3781
14871TIP3    H166028   5.567   2.567   3.618  1.3714 -0.5870 -0.8069
14871TIP3    H266029   5.522   2.683   3.531 -0.8996  0.0436  1.1473
14872TIP3   OH266030   4.574   1.934   4.109  0.4456 -0.0820  0.2945
14872TIP3    H166031   4.527   1.924   4.026  1.4687  1.0813 -0.4437
14872TIP3    H266032   4.666   1.917   4.086  0.5656 -1.0893  1.4636
14873TIP3   OH266033   3.840   1.021   2.162 -0.2606  0.1873 -0.0842
14873TIP3    H166034   3.749   1.032   2.192 -0.5662  0.2515 -1.0249
14873TIP3    H266035   3.833   0.963   2.086  0.5904 -0.5759  0.4106
14874TIP3   OH266036   3.498   4.135   2.705  0.0615  0.2007 -0.0601
14874TIP3    H166037   3.417   4.186   2.701 -0.3541 -0.4471  0.0153
14874TIP3    H266038   3.499   4.084   2.624 -0.5204 -1.1417  0.7553
14875TIP3   OH266039   3.986   1.394   5.205  0.1314  0.1638 -0.3218
14875TIP3    H166040   4.081   1.397   5.194  0.4050 -1.1614  1.4753
14875TIP3    H266041   3.973   1.414   5.298 -1.3290  0.0580 -0.4983
14876TIP3   OH266042   7.292   3.137   5.463  0.5655  0.3337 -0.5354
14876TIP3    H166043   7.383   3.163   5.477  1.3566 -0.8489 -3.0324
14876TIP3    H266044   7.284   3.052   5.507  1.1495 -0.3009 -1.6255
14877TIP3   OH266045   5.415   2.841   1.386  0.4775 -0.3637  0.0349
14877TIP3    H166046   5.422   2.791   1.468  1.0175  0.0079  0.2129
14877TIP3    H266047   5.504   2.871   1.368  0.3393 -0.3516 -0.6335
14878TIP3   OH266048   0.121   3.966   3.073 -0.3019  0.6871 -0.3039
14878TIP3    H166049   0.081   3.882   3.052  1.7540 -0.4313  0.0506
14878TIP3    H266050   0.201   3.943   3.121  1.7455  2.6902 -2.5749
14879TIP3   OH266051   6.033   2.217   2.005 -0.7082 -0.4886 -0.4451
14879TIP3    H166052   6.058   2.227   2.097  1.2623  0.2423 -1.0099
14879TIP3    H266053   6.041   2.306   1.969 -2.2976 -0.6167 -1.1231
14880TIP3   OH266054   6.896   1.123   4.228 -0.1022  0.2404  0.8109
14880TIP3    H166055   6.982   1.161   4.249  0.2978 -0.2607  0.1097
14880TIP3    H266056   6.896   1.038   4.272  0.9177 -1.0103 -1.5036
14881TIP3   OH266057   5.374   3.355   2.480  0.6975 -0.0493  0.5345
14881TIP3    H166058   5.465   3.379   2.500  0.8559 -0.2661  0.0901
14881TIP3    H266059   5.377   3.260   2.468  0.6570  0.0996 -0.7496
14882TIP3   OH266060   6.807   2.191   1.601  0.2095  0.3819  0.1667
14882TIP3    H166061   6.887   2.244   1.609 -0.7698  1.5849  2.2858
14882TIP3    H266062   6.808   2.134   1.678 -0.8051  0.1719  0.0287
14883TIP3   OH266063   4.006   0.522   4.689  0.4629 -0.4196  0.0336
14883TIP3    H166064   4.008   0.479   4.604  0.2327 -0.4326  0.0321
14883TIP3    H266065   3.990   0.614   4.669 -0.7476 -0.6044  0.1110
14884TIP3   OH266066   6.335   1.899   5.198 -0.1759  0.2907 -0.6096
14884TIP3    H166067   6.375   1.929   5.279  0.1794  1.4445 -1.1938
14884TIP3    H266068   6.241   1.914   5.211 -0.4839 -2.5468  0.8125
14885TIP3   OH266069   0.163   3.162   2.772  0.4445 -0.1183 -0.0297
14885TIP3    H166070   0.182   3.110   2.850  1.9410  0.9022  0.2980
14885TIP3    H266071   0.190   3.251   2.795 -0.5924  0.5035 -1.1598
14886TIP3   OH266072   0.481   2.103   5.992 -0.0572  0.3579 -0.0532
14886TIP3    H166073   0.525   2.054   6.062  0.7740  0.1284 -0.7225
14886TIP3    H266074   0.526   2.187   5.989  1.2394 -0.3572 -1.6086
14887TIP3   OH266075   7.015   2.126   2.196 -0.2645 -0.1968  0.0900
14887TIP3    H166076   6.982   2.041   2.225  0.3559 -0.6177 -0.4511
14887TIP3    H266077   7.003   2.183   2.272  0.9378 -1.1837  1.0229
14888TIP3   OH266078   0.092   1.904   0.105 -0.1534  0.0042 -0.2943
14888TIP3    H166079   0.131   1.828   0.063 -0.4625  0.1235 -0.7931
14888TIP3    H266080   0.158   1.973   0.097 -0.1733 -0.0012 -0.4953
14889TIP3   OH266081   3.944   0.392   3.681 -0.0976 -0.0429 -0.8769
14889TIP3    H166082   3.950   0.411   3.587  1.0550  1.1272 -0.5774
14889TIP3    H266083   4.021   0.434   3.719 -1.6842  1.3744  0.8889
14890TIP3   OH266084   5.932   1.365   2.087  0.2499 -0.3959  0.2325
14890TIP3    H166085   5.868   1.296   2.103 -0.0814 -0.4449 -1.1942
14890TIP3    H266086   6.016   1.320   2.085  0.0268 -0.7846 -0.7577
14891TIP3   OH266087   0.066   2.721   2.978  0.1485 -0.0715 -0.0538
14891TIP3    H166088   0.054   2.722   2.884  0.3566 -1.6867 -0.1214
14891TIP3    H266089   0.063   2.628   3.002 -1.7892  0.4180  1.7770
14892TIP3   OH266090   6.241   3.959   2.719  0.5168  0.0669 -0.0597
14892TIP3    H166091   6.326   3.928   2.750 -0.2385  0.2871  2.3357
14892TIP3    H266092   6.187   3.881   2.712 -0.4349  0.3698  2.9393
14893TIP3   OH266093   4.514   3.235   3.769 -0.0967  0.0463  0.1863
14893TIP3    H166094   4.507   3.330   3.754 -0.6881  0.0769  0.6392
14893TIP3    H266095   4.481   3.195   3.689  1.1188  0.2286 -0.4121
14894TIP3   OH266096   0.420   2.711   1.335 -0.2561  0.2868  0.2218
14894TIP3    H166097   0.374   2.631   1.360  1.2282 -0.1182  1.7887
14894TIP3    H266098   0.427   2.761   1.417 -0.6708  1.7642 -0.6254
14895TIP3   OH266099   6.408   1.583   0.950 -0.1454 -0.4816  0.1403
14895TIP3    H166100   6.411   1.537   0.866  0.3069  0.5012 -0.3861
14895TIP3    H266101   6.389   1.514   1.014  0.6306 -1.4287 -0.6229
14896TIP3   OH266102   6.496   1.593   1.420  0.3521  0.4297 -0.1205
14896TIP3    H166103   6.437   1.561   1.352 -0.3010 -0.2585  0.7728
14896TIP3    H266104   6.509   1.685   1.398  2.3432 -0.4011 -2.7872
14897TIP3   OH266105   0.199   1.526   4.268 -0.2557 -0.3182 -0.0080
14897TIP3    H166106   0.157   1.442   4.251 -0.1663 -0.3550 -0.0426
14897TIP3    H266107   0.127   1.583   4.295 -0.6833  0.2530 -2.2593
14898TIP3   OH266108   0.405   3.652   2.010  0.1757  0.7072  0.2024
14898TIP3    H166109   0.481   3.601   1.983 -0.5892  0.8515 -2.4408
14898TIP3    H266110   0.437   3.741   2.017  0.3332  0.7315 -0.6843
14899TIP3   OH266111   6.744   1.402   2.147 -0.4341  0.5313  0.3471
14899TIP3    H166112   6.703   1.424   2.063  2.6274 -1.2310 -1.7545
14899TIP3    H266113   6.768   1.487   2.185 -1.8195  1.3519 -0.5614
14900TIP3   OH266114   6.397   0.854   1.993  0.1105  0.3172  0.2807
14900TIP3    H166115   6.448   0.868   2.073  0.0850 -0.2371  0.3936
14900TIP3    H266116   6.393   0.941   1.952  1.0178  0.3913  0.3418
14901TIP3   OH266117   0.040   3.620   3.667 -0.3140 -0.0675 -0.4579
14901TIP3    H166118  -0.048   3.649   3.692 -0.2747 -0.0418 -0.3467
14901TIP3    H266119   0.034   3.524   3.668 -0.5093 -0.0597 -1.0624
14902TIP3   OH266120   0.568   2.186   1.636  0.0536  0.0737  0.8197
14902TIP3    H166121   0.613   2.176   1.720 -0.2798 -1.1728  0.8624
14902TIP3    H266122   0.478   2.159   1.654 -0.3936  1.2601  0.4090
14903TIP3   OH266123   1.054   4.604   3.379  0.0835  0.0381  0.4877
14903TIP3    H166124   0.999   4.615   3.457 -3.0570 -0.2082 -1.6088
14903TIP3    H266125   1.079   4.694   3.355  1.2089  0.1050  1.8137
14904TIP3   OH266126   7.096   2.580   2.887  0.3366  0.2456 -0.3229
14904TIP3    H166127   7.056   2.492   2.892  1.6544 -0.2241  2.9773
14904TIP3    H266128   7.145   2.579   2.805 -0.9684 -1.5373 -1.1197
14905TIP3   OH266129   6.304   3.645   2.126 -0.4154 -0.3690  0.1862
14905TIP3    H166130   6.235   3.642   2.060 -0.3433  1.6903 -0.0315
14905TIP3    H266131   6.384   3.661   2.076 -0.4385  1.7561  0.7853
14906TIP3   OH266132   6.204   7.128   4.377  0.1160 -0.2621  0.1316
14906TIP3    H166133   6.296   7.157   4.371 -0.1211  0.5206  0.2114
14906TIP3    H266134   6.205   7.059   4.443  0.8869 -1.2245 -0.8758
14907TIP3   OH266135   7.189   2.741   3.161  0.7670 -0.7404  0.0316
14907TIP3    H166136   7.228   2.697   3.237  0.9754  1.0619  1.0055
14907TIP3    H266137   7.253   2.728   3.091  0.6058 -2.3621  0.1622
14908TIP3   OH266138   5.247   2.370   1.202 -0.2420 -0.4049 -0.1792
14908TIP3    H166139   5.252   2.276   1.186 -0.6371 -0.6227  0.9418
14908TIP3    H266140   5.156   2.385   1.229  0.0197  0.1690  0.4023
14909TIP3   OH266141   0.846   2.373   3.719  0.2895 -0.5060  0.2863
14909TIP3    H166142   0.920   2.351   3.775  0.2122 -0.5584  0.3677
14909TIP3    H266143   0.777   2.313   3.745 -0.0769  0.1417  0.8296
14910TIP3   OH266144   7.141   2.548   2.580 -0.2602 -0.1970  0.0347
14910TIP3    H166145   7.215   2.489   2.565  0.1337  0.2041  0.3944
14910TIP3    H266146   7.136   2.600   2.500 -0.2222 -0.3017 -0.0363
14911TIP3   OH266147   6.168   4.828   2.122  0.2504  0.0632 -0.0114
14911TIP3    H166148   6.220   4.899   2.084  0.9727 -0.6082 -0.2802
14911TIP3    H266149   6.232   4.772   2.166 -0.3479 -0.2725  0.4367
14912TIP3   OH266150   6.059   2.437   5.514  0.5335 -0.0626 -0.3044
14912TIP3    H166151   5.997   2.372   5.481 -0.5303  1.5232 -1.5219
14912TIP3    H266152   6.116   2.389   5.574 -0.6888 -1.9421 -0.6372
14913TIP3   OH266153   7.277   3.612   1.759  0.1322 -0.4893 -0.3643
14913TIP3    H166154   7.227   3.532   1.741 -0.7609 -0.2532  0.9842
14913TIP3    H266155   7.237   3.647   1.839  1.1158  0.8176 -0.4425
14914TIP3   OH266156   6.971   3.805   4.263  0.1237  0.0481  0.0366
14914TIP3    H166157   6.955   3.815   4.357  0.4673  0.7492  0.0303
14914TIP3    H266158   6.884   3.796   4.224 -0.1063  1.2114  0.2689
14915TIP3   OH266159   6.014   2.947   1.815 -0.4416  0.4108  0.1314
14915TIP3    H166160   6.012   3.042   1.825 -0.3144  0.4599 -0.3054
14915TIP3    H266161   5.947   2.928   1.749  0.9154  0.3939 -1.2843
14916TIP3   OH266162   6.173   2.741   2.817 -0.3700  0.5535  0.0719
14916TIP3    H166163   6.189   2.675   2.749  0.7313  1.2864 -0.4045
14916TIP3    H266164   6.250   2.736   2.874 -1.2713 -0.0367  1.2603
14917TIP3   OH266165   4.246   3.606   3.871  0.2051  0.4557 -0.3408
14917TIP3    H166166   4.189   3.614   3.947  0.2592  2.3024 -0.4669
14917TIP3    H266167   4.330   3.642   3.900  1.4215 -2.4344 -0.0869
14918TIP3   OH266168   5.453   1.805   1.975 -0.3634 -0.0687 -0.3876
14918TIP3    H166169   5.473   1.876   2.037  0.6889 -2.1392  1.7165
14918TIP3    H266170   5.524   1.808   1.911 -1.8198  2.5302 -1.9746
14919TIP3   OH266171   6.172   2.756   3.573  0.0366 -0.2351 -0.6791
14919TIP3    H166172   6.253   2.740   3.526 -0.6320 -1.8273 -1.3262
14919TIP3    H266173   6.157   2.676   3.624  0.3394  1.1417  1.6705
14920TIP3   OH266174   0.976   0.823   2.910 -0.2123  0.0429 -0.0009
14920TIP3    H166175   0.908   0.759   2.930  0.6473 -0.5522  1.0720
14920TIP3    H266176   1.024   0.785   2.837 -0.4737  0.0496 -0.1782
14921TIP3   OH266177   6.550   2.740   5.367 -0.2034 -0.6112 -0.7333
14921TIP3    H166178   6.644   2.730   5.382 -0.5109  1.0790  3.0245
14921TIP3    H266179   6.542   2.752   5.272  3.1823 -2.2947 -1.3137
14922TIP3   OH266180   5.659   3.314   2.946  0.3436 -0.2157  0.0185
14922TIP3    H166181   5.616   3.386   2.992 -0.0084  0.4299 -1.3043
14922TIP3    H266182   5.655   3.339   2.854 -0.7856 -2.4491 -0.5640
14923TIP3   OH266183   3.283   3.471   3.476 -0.1292 -0.1595  0.0128
14923TIP3    H166184   3.299   3.564   3.461 -1.3718  0.0874  0.1817
14923TIP3    H266185   3.353   3.444   3.535 -0.2426  0.8583  0.6314
14924TIP3   OH266186   6.318   2.375   2.185  0.3879 -0.1618  0.0341
14924TIP3    H166187   6.382   2.445   2.202  0.2937  0.0973 -0.7006
14924TIP3    H266188   6.278   2.398   2.102  1.2581 -1.7635 -0.8687
14925TIP3   OH266189   0.744   2.853   2.485  0.0552  0.0224  0.3846
14925TIP3    H166190   0.673   2.796   2.514  0.9281 -1.0499  0.4417
14925TIP3    H266191   0.814   2.838   2.548  0.7085  0.2795 -0.2737
14926TIP3   OH266192   6.011   3.406   0.880 -0.6333 -0.0327 -0.3953
14926TIP3    H166193   5.990   3.495   0.853 -1.0191  0.6538  2.0088
14926TIP3    H266194   6.055   3.416   0.965 -2.2337 -2.1828  0.7617
14927TIP3   OH266195   3.390   1.913   3.005 -0.1446 -0.4912  0.2686
14927TIP3    H166196   3.320   1.878   2.950 -1.2357  1.7251  0.2115
14927TIP3    H266197   3.422   1.989   2.957  0.4145  0.1572  1.6472
14928TIP3   OH266198   7.082   3.381   2.537 -0.0399  0.0920 -0.0065
14928TIP3    H166199   7.143   3.312   2.562  1.3661  0.9638 -0.9717
14928TIP3    H266200   7.059   3.425   2.619 -1.0979 -1.6174  0.6449
14929TIP3   OH266201   0.934   1.750   1.178 -0.0785  0.2855  0.4238
14929TIP3    H166202   0.932   1.845   1.168  3.2892  0.3566 -0.2861
14929TIP3    H266203   0.905   1.716   1.093  0.2872  0.6871  0.1402
14930TIP3   OH266204   2.658   2.170   2.132  0.3691 -0.5048 -0.0395
14930TIP3    H166205   2.685   2.224   2.206  0.7115  2.3632 -2.1809
14930TIP3    H266206   2.574   2.207   2.105  0.0382 -1.8067 -0.8263
14931TIP3   OH266207   7.288   1.294   2.935  0.3719 -0.7484  0.0426
14931TIP3    H166208   7.297   1.214   2.987 -0.4568  0.6467  2.3737
14931TIP3    H266209   7.357   1.287   2.869  1.8497 -2.2567  1.7010
14932TIP3   OH266210   6.179   1.584   2.226  0.1113  0.5482 -0.1013
14932TIP3    H166211   6.260   1.625   2.195 -0.3052  1.1202 -0.4634
14932TIP3    H266212   6.127   1.571   2.146  0.9629 -2.3706 -0.2361
14933TIP3   OH266213   0.306   3.349   3.231 -0.7228  0.5198 -0.4504
14933TIP3    H166214   0.390   3.385   3.200 -0.3244  1.4568  1.6666
14933TIP3    H266215   0.328   3.261   3.261 -0.2540  1.1905  1.2004
14934TIP3   OH266216   6.217   1.699   1.497  0.4615 -0.4667  0.0324
14934TIP3    H166217   6.156   1.690   1.424  1.6422  1.5331 -1.2707
14934TIP3    H266218   6.286   1.635   1.480  0.2150 -0.6939 -0.0896
14935TIP3   OH266219   6.922   1.891   2.338  0.3248 -0.4298 -0.1542
14935TIP3    H166220   6.830   1.918   2.342  0.9182  1.5142  1.1302
14935TIP3    H266221   6.954   1.900   2.428  2.4915  1.5680 -1.0734
14936TIP3   OH266222   7.068   2.350   4.169  1.2784 -0.0787 -0.1519
14936TIP3    H166223   7.092   2.285   4.102 -1.5687 -0.6671 -0.6615
14936TIP3    H266224   7.059   2.432   4.121  2.2906  0.1750  0.0662
14937TIP3   OH266225   4.594   2.196   2.986  0.0958  0.2678 -0.2285
14937TIP3    H166226   4.599   2.201   3.082  0.1849 -0.5618 -0.1867
14937TIP3    H266227   4.681   2.219   2.956  0.1964  0.0662 -0.0916
14938TIP3   OH266228   0.113   0.830   0.273  0.0031  0.3018 -0.2758
14938TIP3    H166229   0.147   0.793   0.192 -1.1657  0.6834 -0.9405
14938TIP3    H266230   0.170   0.793   0.341  1.3703  0.4655 -1.3114
14939TIP3   OH266231   0.403   1.105   3.573 -0.3132  0.3910  0.5398
14939TIP3    H166232   0.420   1.135   3.484  0.8405 -0.0109  0.6234
14939TIP3    H266233   0.462   1.030   3.585 -2.4455 -1.3228  0.6731
14940TIP3   OH266234   2.586   5.964   1.390 -0.3726  0.3016 -0.5520
14940TIP3    H166235   2.502   5.993   1.427 -1.6602 -2.9594 -0.7067
14940TIP3    H266236   2.634   5.928   1.464  0.4162  1.0994 -0.6726
14941TIP3   OH266237   0.031   1.590   1.817  0.4040 -0.3171 -0.1501
14941TIP3    H166238   0.119   1.596   1.855  1.7944  1.4179 -3.4230
14941TIP3    H266239  -0.011   1.672   1.843 -0.4194 -1.3259  1.7553
14942TIP3   OH266240   4.556   3.182   0.899  0.5787  0.0971  0.1243
14942TIP3    H166241   4.626   3.130   0.938  0.0491 -0.2147  0.6825
14942TIP3    H266242   4.585   3.272   0.909  1.8382 -0.0963 -1.5048
14943TIP3   OH266243   5.734   1.147   3.852 -0.6335  0.2028  0.1092
14943TIP3    H166244   5.708   1.172   3.763  0.3650  0.0129 -0.2392
14943TIP3    H266245   5.661   1.176   3.907 -0.7276  1.4148 -0.6260
14944TIP3   OH266246   7.053   2.251   1.161 -0.3111 -0.1594 -0.2250
14944TIP3    H166247   7.089   2.334   1.192  0.0378  0.1113 -1.3617
14944TIP3    H266248   7.009   2.214   1.238  0.7129  0.4200  0.6481
14945TIP3   OH266249   1.491   1.476   4.002  0.1365  0.0756  0.3945
14945TIP3    H166250   1.583   1.492   4.023 -0.4340  1.0192  2.2608
14945TIP3    H266251   1.460   1.417   4.070 -0.7018 -0.0476 -0.0785
14946TIP3   OH266252   6.900   3.719   1.438 -0.5136  0.1398 -0.1153
14946TIP3    H166253   6.975   3.766   1.476 -0.3949 -0.5248  0.4633
14946TIP3    H266254   6.838   3.709   1.510 -1.0512  0.4397 -0.5271
14947TIP3   OH266255   0.213   3.940   2.343  0.0807 -0.1356 -0.4205
14947TIP3    H166256   0.235   3.987   2.423 -0.8294 -0.9549  0.3280
14947TIP3    H266257   0.193   4.008   2.279  1.2585  0.5339 -0.0947
14948TIP3   OH266258   4.585   3.745   5.732 -0.3390  0.3349 -0.2569
14948TIP3    H166259   4.530   3.737   5.810  1.0822  0.3590  0.7758
14948TIP3    H266260   4.655   3.805   5.759  1.3038 -1.2523 -0.8844
14949TIP3   OH266261   7.261   1.929   1.098 -0.5809  0.5408  0.0861
14949TIP3    H166262   7.211   1.915   1.018  0.1438  0.7679 -0.4123
14949TIP3    H266263   7.344   1.967   1.068 -0.5447  1.1904  0.9941
14950TIP3   OH266264   0.392   2.286   3.854  0.9284 -0.2194 -0.0213
14950TIP3    H166265   0.330   2.263   3.923  1.8243 -0.0959  0.8384
14950TIP3    H266266   0.378   2.379   3.839  0.3837 -0.3542 -0.3659
14951TIP3   OH266267   6.096   3.711   1.555 -0.1314 -0.7782  0.1122
14951TIP3    H166268   6.037   3.758   1.615 -0.7601 -0.0487 -1.0614
14951TIP3    H266269   6.107   3.625   1.595 -1.0972 -0.5379  0.9236
14952TIP3   OH266270   6.851   4.003   0.049 -0.2591  0.1018  0.0102
14952TIP3    H166271   6.836   3.909   0.052  0.5612 -0.0438 -0.3636
14952TIP3    H266272   6.821   4.035   0.135  2.7169 -0.9841  1.5275
14953TIP3   OH266273   0.658   2.371   2.337 -0.0060 -0.2145  0.6463
14953TIP3    H166274   0.603   2.319   2.395 -2.4730  0.3691 -1.0633
14953TIP3    H266275   0.619   2.358   2.250  2.3533  0.5345 -0.5613
14954TIP3   OH266276   5.600   0.982   2.060  0.9705 -0.3475  0.2434
14954TIP3    H166277   5.631   1.056   2.111  1.5210 -0.7251  0.4644
14954TIP3    H266278   5.667   0.968   1.993  0.1430  0.2797 -0.7204
14955TIP3   OH266279   0.141   1.968   5.709 -0.3755  0.1874 -0.1735
14955TIP3    H166280   0.220   1.971   5.764 -1.0558 -0.6250  0.8719
14955TIP3    H266281   0.129   2.058   5.680  0.0307  0.6178  0.9661
14956TIP3   OH266282   0.656   0.602   3.918  0.5105  0.1618 -0.6622
14956TIP3    H166283   0.577   0.656   3.922  0.8526  0.7758 -1.9517
14956TIP3    H266284   0.710   0.635   3.990  0.0855  0.5496 -0.5160
14957TIP3   OH266285   7.164   1.665   2.433  0.0758  0.6442  0.8991
14957TIP3    H166286   7.121   1.580   2.440 -2.5189  1.8383  0.1903
14957TIP3    H266287   7.135   1.713   2.511 -0.0114  1.5216  0.3363
14958TIP3   OH266288   7.172   3.039   3.171  0.0194 -0.4219 -0.4413
14958TIP3    H166289   7.200   3.051   3.262  0.9069 -1.4510 -0.5706
14958TIP3    H266290   7.210   2.955   3.145 -1.6469 -0.9336 -1.2352
14959TIP3   OH266291   5.403   2.276   3.172  0.4309  0.4464  0.6243
14959TIP3    H166292   5.382   2.360   3.212 -2.7990 -0.0487  0.1076
14959TIP3    H266293   5.372   2.211   3.234 -0.1630 -0.3341 -0.4632
14960TIP3   OH266294   0.319   2.400   0.281  0.1483  0.0246 -0.8149
14960TIP3    H166295   0.315   2.328   0.218  2.9978 -0.8170 -0.0935
14960TIP3    H266296   0.335   2.477   0.227  0.0623 -0.3061 -1.3211
14961TIP3   OH266297   0.394   5.219   2.786  0.0674 -0.7562  0.1455
14961TIP3    H166298   0.454   5.282   2.745 -1.3779  0.6038  0.0777
14961TIP3    H266299   0.397   5.241   2.880 -0.6047 -0.4251  0.0937
14962TIP3   OH266300   0.443   3.091   2.241 -0.2422 -0.3543 -0.0406
14962TIP3    H166301   0.500   3.168   2.238  1.6738 -1.7498 -0.7372
14962TIP3    H266302   0.406   3.091   2.329 -0.3459  1.4272 -0.0844
14963TIP3   OH266303   5.992   3.487   5.730  0.0033 -0.2413  0.1985
14963TIP3    H166304   6.069   3.523   5.687 -0.1753  0.7500  0.6896
14963TIP3    H266305   5.944   3.564   5.762  0.4774 -0.9565  2.7335
14964TIP3   OH266306   5.044   3.688   1.047  0.5585  0.4622  0.0539
14964TIP3    H166307   4.980   3.687   0.975  0.7159 -0.6933 -0.0855
14964TIP3    H266308   5.094   3.768   1.034  1.0761 -0.1012 -1.5746
14965TIP3   OH266309   0.495   3.586   2.362  0.5282 -0.4888  0.1728
14965TIP3    H166310   0.444   3.507   2.344 -0.1077 -0.1133  0.2753
14965TIP3    H266311   0.512   3.583   2.456 -1.3424  0.5517  0.5758
14966TIP3   OH266312   6.843   3.686   1.886  0.3825 -0.4087  0.0186
14966TIP3    H166313   6.800   3.641   1.959  1.3296  0.5841  1.2023
14966TIP3    H266314   6.901   3.750   1.928  0.5634  0.5162 -1.6156
14967TIP3   OH266315   4.370   3.927   2.628  0.0166 -0.1130  0.5861
14967TIP3    H166316   4.418   3.999   2.586  1.0649 -0.4017  1.2723
14967TIP3    H266317   4.433   3.888   2.688 -1.1084 -0.4645  1.5511
14968TIP3   OH266318   5.854   1.914   4.483  0.2347 -0.7824 -0.1273
14968TIP3    H166319   5.795   1.938   4.554  0.3791 -1.4641  0.2304
14968TIP3    H266320   5.804   1.849   4.432  1.1748 -2.3779  0.9540
14969TIP3   OH266321   1.618   2.800   1.072  0.5921  0.2484 -0.0524
14969TIP3    H166322   1.552   2.730   1.073 -0.7048  1.4622 -0.2605
14969TIP3    H266323   1.604   2.848   1.153  2.0581 -0.2228  0.5067
14970TIP3   OH266324   1.113   3.613   3.479 -0.6864 -0.2320  0.0621
14970TIP3    H166325   1.178   3.643   3.415 -2.4983  1.6413 -0.9712
14970TIP3    H266326   1.050   3.564   3.427 -1.2072 -0.2483  0.7142
14971TIP3   OH266327   1.485   1.547   1.668 -0.0474  0.5419  0.0789
14971TIP3    H166328   1.526   1.582   1.747  0.4266  1.2657 -0.4867
14971TIP3    H266329   1.391   1.555   1.684 -0.0298 -1.7735  1.6785
14972TIP3   OH266330   6.756   5.831  15.662  0.1105  0.2261 -0.4376
14972TIP3    H166331   6.849   5.832  15.687  0.0004  2.4267 -0.0035
14972TIP3    H266332   6.754   5.783  15.580  2.0586  2.5270 -1.8959
14973TIP3   OH266333   5.162   2.347   2.117 -0.3575 -0.2322  0.0021
14973TIP3    H166334   5.091   2.296   2.154  0.5123 -1.5167 -0.0564
14973TIP3    H266335   5.235   2.285   2.109  0.5068  0.8428 -0.7137
14974TIP3   OH266336   0.992   4.591   3.018 -0.2408  0.0308  0.6584
14974TIP3    H166337   1.017   4.623   3.105 -0.5406  0.8062  0.4592
14974TIP3    H266338   1.038   4.507   3.010  0.6924  0.4879  1.1062
14975TIP3   OH266339   7.260   3.942   2.458 -0.3748 -0.0841  0.3112
14975TIP3    H166340   7.348   3.927   2.424 -0.6066  0.8987 -0.7301
14975TIP3    H266341   7.267   4.020   2.512 -1.0093  1.1962 -1.4054
14976TIP3   OH266342   1.581   2.211   2.775  0.5155 -0.2673  0.2075
14976TIP3    H166343   1.570   2.126   2.818  1.5929  0.3376  1.7529
14976TIP3    H266344   1.497   2.255   2.788  0.6711 -0.2773  1.2860
14977TIP3   OH266345   6.066   1.877   1.299 -0.2678  0.5807 -0.4007
14977TIP3    H166346   6.045   1.913   1.386  0.0088  0.1127 -0.1393
14977TIP3    H266347   6.120   1.946   1.258 -0.2819  0.7450 -0.1475
14978TIP3   OH266348   2.351   2.325   1.685 -0.1599  0.1177 -0.7421
14978TIP3    H166349   2.416   2.260   1.657  1.1091  1.3997 -0.8279
14978TIP3    H266350   2.286   2.274   1.735 -0.2737 -1.5319 -2.5211
14979TIP3   OH266351   6.359   1.234   0.982 -0.0591 -0.1565  0.3981
14979TIP3    H166352   6.333   1.151   0.941  0.5037 -0.3690  0.4714
14979TIP3    H266353   6.380   1.211   1.072  0.6997 -0.0448  0.2535
14980TIP3   OH266354   5.597   0.624   3.210  0.5974 -0.6036 -0.5059
14980TIP3    H166355   5.529   0.667   3.159  1.1975 -2.4618 -2.9657
14980TIP3    H266356   5.671   0.685   3.207 -0.4286  0.7751  0.9877
14981TIP3   OH266357   5.726   0.365   4.022  0.2707  1.0216  0.0612
14981TIP3    H166358   5.648   0.317   3.992  1.2183  0.0533 -0.9494
14981TIP3    H266359   5.699   0.457   4.023 -1.6516  0.4911  2.2138
14982TIP3   OH266360   6.121   1.843   1.716  0.0593  0.1624  0.0424
14982TIP3    H166361   6.084   1.924   1.682  0.6891  0.5386  0.2462
14982TIP3    H266362   6.166   1.804   1.642 -1.9423 -1.0275 -0.5981
14983TIP3   OH266363   5.521   2.034   2.976  0.0501 -0.5494  0.0656
14983TIP3    H166364   5.609   2.067   2.956  0.0790 -1.1062 -0.7196
14983TIP3    H266365   5.470   2.112   2.996  0.9104 -0.2721  1.2643
14984TIP3   OH266366   0.527   0.037   2.740 -0.2903  0.0763 -0.0856
14984TIP3    H166367   0.614   0.014   2.772 -0.0815  1.1636  0.1315
14984TIP3    H266368   0.476   0.053   2.819 -1.7667 -4.2207 -0.0074
14985TIP3   OH266369   6.667   1.958   2.295 -0.0383  0.3923  0.3238
14985TIP3    H166370   6.613   1.910   2.357 -0.2458 -0.9380 -0.8616
14985TIP3    H266371   6.606   2.016   2.250 -0.1560  0.2655  0.3181
14986TIP3   OH266372   0.668   3.356   4.051 -0.8219 -0.1456  0.5748
14986TIP3    H166373   0.717   3.431   4.018  0.2990 -0.9050  0.4423
14986TIP3    H266374   0.611   3.392   4.118  0.6755  0.6445  1.4636
14987TIP3   OH266375   6.266   1.705   4.445 -0.8192  0.5502  0.4811
14987TIP3    H166376   6.177   1.684   4.415 -1.0743  0.7471  1.1100
14987TIP3    H266377   6.300   1.622   4.477 -0.8201  0.5037  0.3640
14988TIP3   OH266378   6.662   5.598   1.929 -0.0753  0.8134  0.3297
14988TIP3    H166379   6.595   5.592   1.860 -1.5090  0.8382  1.6924
14988TIP3    H266380   6.612   5.615   2.009  1.6535  1.8000  1.2167
14989TIP3   OH266381   0.083   0.862   4.139 -0.3292  0.1015  0.2070
14989TIP3    H166382   0.140   0.817   4.201 -0.2777  0.6426  0.5533
14989TIP3    H266383   0.144   0.910   4.082 -0.2392 -2.3003 -1.7760
14990TIP3   OH266384   4.041   6.984   3.292  0.5100 -0.3178 -0.3683
14990TIP3    H166385   3.948   6.966   3.305  0.5609  0.0383  0.5491
14990TIP3    H266386   4.062   7.050   3.358  1.6873 -1.2656  0.2102
14991TIP3   OH266387   6.271   6.170   2.445 -0.0563 -0.3642  0.5919
14991TIP3    H166388   6.186   6.126   2.450  0.0214 -0.3058  2.7340
14991TIP3    H266389   6.249   6.263   2.441 -0.0907 -0.3524  1.0665
14992TIP3   OH266390   6.280   4.065   4.294 -0.4450  0.5613 -0.0088
14992TIP3    H166391   6.286   4.124   4.369  1.0835  1.4009 -0.7676
14992TIP3    H266392   6.366   4.022   4.290 -0.6134  0.2922 -1.0789
14993TIP3   OH266393   6.394   2.512   4.086 -0.0016  0.4999 -0.0980
14993TIP3    H166394   6.364   2.458   4.013  2.8386 -0.9473 -0.2534
14993TIP3    H266395   6.353   2.473   4.163  0.0408 -0.3386 -0.4992
14994TIP3   OH266396   5.989   5.282   2.076  0.4511  0.7069 -0.1499
14994TIP3    H166397   5.991   5.321   2.164  1.7467  2.5556 -0.9682
14994TIP3    H266398   5.901   5.246   2.068  0.6158 -0.3696  2.2881
14995TIP3   OH266399   0.982   0.613   3.488 -0.2034 -0.4347  0.0767
14995TIP3    H166400   1.003   0.551   3.559  1.1143  1.0807  1.0666
14995TIP3    H266401   0.968   0.696   3.533 -0.4956  0.3022 -1.3552
14996TIP3   OH266402   6.336   4.137   1.787  0.4055  0.0884  0.0523
14996TIP3    H166403   6.295   4.069   1.840  0.7573 -1.8783 -2.1148
14996TIP3    H266404   6.271   4.207   1.782 -0.4916 -0.6497  1.1864
14997TIP3   OH266405   0.238   3.333   3.921 -0.0661 -0.0105 -0.6706
14997TIP3    H166406   0.240   3.361   3.830  1.3909 -2.4321 -1.4145
14997TIP3    H266407   0.317   3.280   3.933 -1.2761 -1.4522  1.4185
14998TIP3   OH266408   7.086   4.058   3.653 -0.2982 -0.6729  0.3356
14998TIP3    H166409   7.111   4.093   3.739 -1.7845  2.1350 -0.3220
14998TIP3    H266410   7.168   4.054   3.605  0.3868 -1.2483  1.5134
14999TIP3   OH266411   1.073   2.518   5.057 -0.0024  0.1362  0.3174
14999TIP3    H166412   1.120   2.601   5.070  1.3800 -0.3779 -1.2356
14999TIP3    H266413   1.129   2.452   5.097 -1.0961 -0.0516  1.5311
15000TIP3   OH266414   5.758   7.016   2.434 -0.1497 -0.2525  0.0362
15000TIP3    H166415   5.702   7.075   2.485  0.6388  0.3330  0.2346
15000TIP3    H266416   5.719   7.016   2.347 -1.6805 -1.4958  0.7041
15001TIP3   OH266417   7.064   4.612   2.910 -0.1418  0.5354 -0.5360
15001TIP3    H166418   7.080   4.647   2.998 -0.5714 -0.3459 -0.1026
15001TIP3    H266419   7.025   4.526   2.925  0.8026 -0.0882 -1.5896
15002TIP3   OH266420   6.230   2.361   3.893 -0.0320  0.1798 -0.2816
15002TIP3    H166421   6.314   2.315   3.883  0.8597  0.9460  2.9683
15002TIP3    H266422   6.166   2.291   3.909  0.6258 -0.2242  0.6817
15003TIP3   OH266423   0.117   3.253   2.397  0.3359  0.1628 -0.1403
15003TIP3    H166424   0.157   3.232   2.481 -0.4307  0.9644  0.4240
15003TIP3    H266425   0.190   3.283   2.343  0.6446  0.7146  0.5834
15004TIP3   OH266426   7.237   0.604   5.609  0.0590  0.0549 -0.9914
15004TIP3    H166427   7.267   0.577   5.696 -1.6315 -0.5868 -0.5943
15004TIP3    H266428   7.298   0.561   5.549  0.9376  0.1026 -0.1561
15005TIP3   OH266429   0.780   0.646   2.818  0.3623  0.6175  0.2729
15005TIP3    H166430   0.749   0.691   2.740  2.3548  1.3825 -0.1035
15005TIP3    H266431   0.781   0.553   2.794 -1.7273  0.5330  0.3616
15006TIP3   OH266432   1.415   0.737   2.115  0.1192 -0.1716  0.2897
15006TIP3    H166433   1.457   0.821   2.133 -1.5133  0.8403 -0.5397
15006TIP3    H266434   1.419   0.689   2.198  2.0817  0.2616  0.4646
15007TIP3   OH266435   6.915   2.986   4.083 -0.1350  0.0164 -0.2026
15007TIP3    H166436   6.889   3.078   4.081  0.0590  0.0966  0.7126
15007TIP3    H266437   6.839   2.939   4.050  0.1479  0.5837 -1.6928
15008TIP3   OH266438   4.900   2.381   2.391  0.0960  0.1984  0.4547
15008TIP3    H166439   4.915   2.327   2.469  0.6451 -1.8004 -1.0078
15008TIP3    H266440   4.897   2.318   2.318 -3.0314  1.7182 -0.8457
15009TIP3   OH266441   5.053   4.524   2.721 -0.4545 -0.1104 -0.6619
15009TIP3    H166442   5.102   4.494   2.645 -1.1445  1.1531 -1.6149
15009TIP3    H266443   4.965   4.489   2.709 -0.7225  0.5933 -0.7455
15010TIP3   OH266444   5.675   3.486   3.972  0.9456 -0.3595  0.0854
15010TIP3    H166445   5.582   3.472   3.953  1.0792 -1.7848  0.3786
15010TIP3    H266446   5.695   3.421   4.040  1.6610  1.3049  1.4940
15011TIP3   OH266447   6.895   2.614   4.976  0.2469  0.3617 -0.0223
15011TIP3    H166448   6.937   2.607   4.891 -0.0983  4.1458 -0.5842
15011TIP3    H266449   6.813   2.660   4.959  0.0174  0.8794  2.2813
15012TIP3   OH266450   0.402   1.199   2.796  0.0888 -0.4689  0.1540
15012TIP3    H166451   0.431   1.147   2.871 -0.4039  1.1640  1.4886
15012TIP3    H266452   0.427   1.288   2.817  3.9428 -0.4879 -3.5787
15013TIP3   OH266453   7.215   2.420   5.181  0.0878  0.0014 -0.2400
15013TIP3    H166454   7.252   2.503   5.153 -0.7592 -0.2896 -2.2913
15013TIP3    H266455   7.122   2.439   5.197  0.4892  0.0965  2.1481
15014TIP3   OH266456   6.648   2.623   3.592 -0.0719  0.9112  0.3146
15014TIP3    H166457   6.708   2.548   3.589 -1.5892 -0.3137 -3.4506
15014TIP3    H266458   6.595   2.608   3.670  0.1332 -1.5861  0.0289
15015TIP3   OH266459   6.283   2.821   4.085  0.6891  0.4103 -0.5783
15015TIP3    H166460   6.253   2.851   3.998  3.4537  1.7130 -1.1358
15015TIP3    H266461   6.321   2.735   4.069  0.1222  0.1283 -0.4286
15016TIP3   OH266462   6.412   1.584   1.899  0.3943 -0.5414 -0.0466
15016TIP3    H166463   6.396   1.661   1.844 -3.6227 -0.8369  0.5454
15016TIP3    H266464   6.415   1.619   1.988  0.2562 -0.8644  0.0857
15017TIP3   OH266465   5.361   2.094   3.733  0.5098  0.3518  0.0665
15017TIP3    H166466   5.299   2.124   3.799 -0.1495  0.2061 -0.4844
15017TIP3    H266467   5.307   2.066   3.659  1.2278  0.3013 -0.4537
15018TIP3   OH266468   6.040   0.306   2.704 -0.4826  0.2540 -0.2866
15018TIP3    H166469   6.134   0.325   2.701 -0.5309  0.6621  0.7290
15018TIP3    H266470   6.025   0.268   2.790 -1.0413 -1.0240 -0.9198
15019TIP3   OH266471   7.177   2.008   5.750  0.1720  0.5054 -0.1864
15019TIP3    H166472   7.184   2.037   5.841 -1.4816 -0.0571  0.1243
15019TIP3    H266473   7.262   1.966   5.732  0.1118 -0.3465  1.4410
15020TIP3   OH266474   0.837   2.074   1.053  0.7825 -0.1156 -0.1309
15020TIP3    H166475   0.802   2.123   1.128  2.9366  1.3155  0.0043
15020TIP3    H266476   0.760   2.049   1.002 -0.5565  1.0712  1.2527
15021TIP3   OH266477   6.176   3.907   1.935  0.0198 -0.3938 -0.0880
15021TIP3    H166478   6.186   3.815   1.912 -0.8829 -0.1964 -1.2952
15021TIP3    H266479   6.086   3.915   1.967  0.5127 -0.1896  1.2938
15022TIP3   OH266480   0.514   1.608   3.242  0.1978  0.5040 -0.1645
15022TIP3    H166481   0.537   1.698   3.263 -0.2594  0.4927  0.4054
15022TIP3    H266482   0.504   1.565   3.327 -2.8017  0.7308 -0.3307
15023TIP3   OH266483   3.933   7.095   2.622 -0.1687  0.1136  0.2065
15023TIP3    H166484   3.949   7.182   2.585 -0.3968 -0.0382 -0.2614
15023TIP3    H266485   3.861   7.059   2.569 -0.9443  0.1442  1.2223
15024TIP3   OH266486   1.642   2.258   2.213 -0.0853 -0.2633  0.3978
15024TIP3    H166487   1.633   2.165   2.235 -0.0471 -0.4645 -0.4368
15024TIP3    H266488   1.572   2.275   2.150 -0.1930  0.3204  0.6685
15025TIP3   OH266489   6.678   2.132   3.800  0.0935  0.4126  0.3073
15025TIP3    H166490   6.625   2.163   3.726  1.5175  1.8426 -0.1495
15025TIP3    H266491   6.763   2.112   3.761  0.8175  1.0715  1.5436
15026TIP3   OH266492   5.047   1.789   2.838 -0.5878  0.9605  0.0207
15026TIP3    H166493   5.068   1.697   2.853 -1.6944  0.7208  0.1363
15026TIP3    H266494   5.130   1.828   2.810 -0.0017  0.0381  0.4403
15027TIP3   OH266495   0.659   4.216   2.275 -0.0482 -0.0853  0.2574
15027TIP3    H166496   0.671   4.311   2.274 -0.2617 -0.0445  1.3045
15027TIP3    H266497   0.564   4.204   2.265  0.1442 -0.2457 -1.6371
15028TIP3   OH266498   6.741   2.724   3.351  0.1341  0.1964  0.3216
15028TIP3    H166499   6.732   2.718   3.446 -1.7473  0.6431  0.1831
15028TIP3    H266500   6.770   2.814   3.336  0.4617  0.1171  0.4638
15029TIP3   OH266501   0.631   2.243   1.219  0.0597 -0.0914  0.3019
15029TIP3    H166502   0.651   2.292   1.299 -1.2123 -0.7717  1.0593
15029TIP3    H266503   0.601   2.310   1.157  2.1118  0.5897 -0.0029
15030TIP3   OH266504   6.986   2.791   3.000  0.1631  0.6092  0.0529
15030TIP3    H166505   7.004   2.713   2.946  1.1016  1.4297 -0.8292
15030TIP3    H266506   7.048   2.785   3.072  1.4343  1.4288 -0.9438
15031TIP3   OH266507   7.144   2.814   3.614  0.0093 -0.3779  0.3473
15031TIP3    H166508   7.092   2.849   3.687 -0.7063 -1.4915  0.3988
15031TIP3    H266509   7.095   2.736   3.586  2.2089 -2.1068  1.1190
15032TIP3   OH266510   1.894   1.662   2.451 -0.1762  0.1079 -0.6962
15032TIP3    H166511   1.978   1.617   2.438 -1.0183 -1.3683 -1.1075
15032TIP3    H266512   1.866   1.636   2.538 -0.0280  0.9124 -0.4053
15033TIP3   OH266513   7.018   3.195   2.316  0.5099 -0.1601  1.0819
15033TIP3    H166514   7.020   3.256   2.389 -2.4797 -0.0524  1.1595
15033TIP3    H266515   7.014   3.252   2.238  2.6085 -0.2792  0.8585
15034TIP3   OH266516   6.275   1.087   4.346  0.4139  0.0007  0.2092
15034TIP3    H166517   6.243   1.168   4.388 -0.9350 -0.2469 -0.3071
15034TIP3    H266518   6.212   1.020   4.373  1.2714 -0.7920  0.2615
15035TIP3   OH266519   5.472   2.972   4.058 -0.2936  0.0629 -0.2830
15035TIP3    H166520   5.533   2.955   4.130  0.9937  0.5266 -1.2594
15035TIP3    H266521   5.468   2.890   4.010 -1.0403 -0.2012  0.2166
15036TIP3   OH266522   1.704   1.751   1.587  0.6094  0.3154 -0.6096
15036TIP3    H166523   1.686   1.833   1.540  1.3432  1.5066  1.1353
15036TIP3    H266524   1.617   1.718   1.610  0.2929  0.3852 -1.6361
15037TIP3   OH266525   4.328   3.304  15.942  0.1235 -0.1105 -0.0855
15037TIP3    H166526   4.367   3.217  15.931 -0.6620 -0.6281  1.1183
15037TIP3    H266527   4.396   3.355  15.986  0.2369 -0.3971  0.0755
15038TIP3   OH266528   5.444   3.492   3.308 -0.3183 -0.1027  0.4338
15038TIP3    H166529   5.487   3.564   3.262 -0.0617  0.4509  1.5115
15038TIP3    H266530   5.500   3.417   3.292 -0.3702  0.0177 -0.3615
15039TIP3   OH266531   2.986   2.899   4.132  0.4791 -0.7316  0.4538
15039TIP3    H166532   3.022   2.977   4.174  0.1573 -0.8772  0.9991
15039TIP3    H266533   2.895   2.923   4.112  0.6604 -0.6271 -0.2495
15040TIP3   OH266534   6.726   4.564   2.508 -0.3160 -0.6802  0.2948
15040TIP3    H166535   6.812   4.538   2.540 -0.1481  0.7012  1.0135
15040TIP3    H266536   6.679   4.591   2.587 -0.5685  0.9009 -0.3748
15041TIP3   OH266537   2.088   2.621   2.341 -0.7403  0.2832  0.2219
15041TIP3    H166538   2.149   2.593   2.273 -2.0037 -0.2450 -0.7287
15041TIP3    H266539   2.138   2.618   2.422  0.2355 -1.0244 -0.4164
15042TIP3   OH266540   5.761   2.830   3.551 -0.6338  0.2561 -0.1791
15042TIP3    H166541   5.730   2.921   3.550 -0.7658  0.2240  0.9461
15042TIP3    H266542   5.832   2.829   3.615  0.0977 -0.2042 -0.9791
15043TIP3   OH266543   5.873   2.447   2.528  0.0606 -0.5393  0.2029
15043TIP3    H166544   5.834   2.362   2.548  0.5017 -0.4366  1.5322
15043TIP3    H266545   5.895   2.484   2.613 -1.4354  1.5469 -0.2788
15044TIP3   OH266546   5.748   5.744   1.743  0.4159 -0.0606 -0.0271
15044TIP3    H166547   5.721   5.829   1.776 -0.9520  0.1250 -1.6193
15044TIP3    H266548   5.669   5.691   1.743  0.9535 -0.8827 -0.4436
15045TIP3   OH266549   5.887   1.572   0.964  0.3653  0.2405 -0.0960
15045TIP3    H166550   5.893   1.618   0.880 -1.5892 -1.3161 -1.1202
15045TIP3    H266551   5.946   1.497   0.954 -0.7684 -0.6015 -0.5324
15046TIP3   OH266552   1.202   2.259   0.867  0.5518  0.2399  0.5300
15046TIP3    H166553   1.129   2.302   0.913  0.1771  0.7897 -0.5592
15046TIP3    H266554   1.159   2.201   0.804  1.0616 -0.3713  0.7447
15047TIP3   OH266555   5.790   3.556   4.385 -0.6439 -0.0540 -0.0956
15047TIP3    H166556   5.831   3.580   4.468 -0.6946 -0.8470  0.1553
15047TIP3    H266557   5.728   3.487   4.407 -0.2472 -0.6635 -0.8761
15048TIP3   OH266558   6.899   5.144   3.183  0.2827  0.1087 -0.3569
15048TIP3    H166559   6.828   5.191   3.227 -1.4393  0.2150 -3.1252
15048TIP3    H266560   6.976   5.200   3.196 -0.3983  0.6636  1.5368
15049TIP3   OH266561   6.488   3.811   2.750 -0.3861 -0.2011 -0.2320
15049TIP3    H166562   6.490   3.751   2.675  1.1801 -1.4673  0.7828
15049TIP3    H266563   6.485   3.754   2.826  1.2572  0.9847  0.7586
15050TIP3   OH266564   6.894   2.547   2.130  0.1671 -0.3110  0.9568
15050TIP3    H166565   6.834   2.579   2.063  0.4560 -1.2624  0.2344
15050TIP3    H266566   6.932   2.468   2.092 -0.1766 -1.2393  2.5260
15051TIP3   OH266567   0.163   2.239   5.655 -0.4138  0.3392  0.7657
15051TIP3    H166568   0.191   2.248   5.564 -2.3176 -0.7010  0.0472
15051TIP3    H266569   0.243   2.216   5.703  0.0871 -2.0852 -1.1353
15052TIP3   OH266570   5.828   1.789   2.499  0.2992  0.3907  0.0344
15052TIP3    H166571   5.822   1.832   2.414 -1.7219 -0.1988 -0.1424
15052TIP3    H266572   5.840   1.861   2.562 -0.1991  0.9967 -0.5542
15053TIP3   OH266573   6.190   0.205   1.868 -0.1349 -0.7946 -0.0616
15053TIP3    H166574   6.191   0.196   1.773 -0.4493 -0.5356 -0.0898
15053TIP3    H266575   6.283   0.210   1.892 -0.0629 -0.4635 -0.3940
15054TIP3   OH266576   0.175   2.294   0.709 -0.4147  0.1563  0.3403
15054TIP3    H166577   0.131   2.320   0.790 -1.3712  0.3049 -0.2123
15054TIP3    H266578   0.109   2.242   0.663  0.7599 -1.5214  0.5006
15055TIP3   OH266579   1.626   3.968   0.146  0.5169 -0.6777  0.2797
15055TIP3    H166580   1.703   3.914   0.164 -0.2357 -1.5344  0.9441
15055TIP3    H266581   1.631   4.039   0.211  2.1366  0.7302 -1.3447
15056TIP3   OH266582   0.027   3.288   0.286  0.7878 -0.5674  0.3734
15056TIP3    H166583   0.092   3.264   0.352  2.4328  0.7154 -0.7440
15056TIP3    H266584   0.033   3.219   0.220  1.6201 -0.0258 -0.1303
15057TIP3   OH266585   5.480   5.369   2.580 -0.4432  0.0786  0.2162
15057TIP3    H166586   5.572   5.370   2.554 -0.2300  0.7201  0.9511
15057TIP3    H266587   5.433   5.339   2.502  0.2613  1.0585 -0.6041
15058TIP3   OH266588   4.426   0.578   0.884  0.2494  0.2463  0.2051
15058TIP3    H166589   4.515   0.588   0.850  0.4867  0.8773  0.9825
15058TIP3    H266590   4.400   0.666   0.909 -0.2833 -0.0617  0.7459
15059TIP3   OH266591   0.103   2.667   4.338  0.0781  0.2016  0.7374
15059TIP3    H166592   0.167   2.636   4.274  1.3169  2.1019  1.0057
15059TIP3    H266593   0.114   2.762   4.338 -1.2247  0.3704  2.4042
15060TIP3   OH266594   6.120   3.867   2.322 -0.4515 -0.0341  0.2863
15060TIP3    H166595   6.185   3.902   2.261  0.0509 -0.7608  0.3882
15060TIP3    H266596   6.128   3.772   2.312 -2.2367 -0.1112 -0.4492
15061TIP3   OH266597   0.112   1.244   3.484 -0.4398  0.1144 -0.5438
15061TIP3    H166598   0.204   1.221   3.473  0.2511  0.0495  4.3217
15061TIP3    H266599   0.074   1.171   3.534 -2.4112  1.4286 -0.0538
15062TIP3   OH266600   5.761   1.822   2.119 -0.1787  0.0932 -0.2101
15062TIP3    H166601   5.757   1.728   2.100  1.7754 -0.6547  2.8619
15062TIP3    H266602   5.838   1.853   2.072  0.3072 -0.2255  0.3808
15063TIP3   OH266603   6.478   3.178   2.297  0.5085 -0.6288 -0.2865
15063TIP3    H166604   6.408   3.157   2.235  1.5515 -0.4271 -1.5445
15063TIP3    H266605   6.547   3.115   2.278  1.4719  0.4504 -0.4131
15064TIP3   OH266606   0.209   0.472   5.765 -0.1896  0.0516 -0.0731
15064TIP3    H166607   0.198   0.560   5.803  2.0046  1.0598 -1.6966
15064TIP3    H266608   0.263   0.425   5.828  0.5298  0.5968 -0.2823
15065TIP3   OH266609   7.039   3.056   2.910  0.0070 -0.2500 -0.0107
15065TIP3    H166610   7.097   3.057   2.987  1.1766 -1.7716 -0.8378
15065TIP3    H266611   7.009   2.966   2.904  0.1931 -0.2146 -1.5487
15066TIP3   OH266612   1.817   5.432   0.788  0.0721 -0.2768  0.0908
15066TIP3    H166613   1.815   5.479   0.872  0.4048  0.2102 -0.1685
15066TIP3    H266614   1.882   5.480   0.736  0.6201 -1.2070 -0.0813
15067TIP3   OH266615   0.081   2.619   1.966 -0.4324  0.0492  0.3507
15067TIP3    H166616  -0.005   2.661   1.965  0.0773  1.0965  0.0165
15067TIP3    H266617   0.133   2.669   1.904 -0.0439 -1.5906 -0.6639
15068TIP3   OH266618   5.495   3.848   2.898 -0.8263  0.8981 -0.7443
15068TIP3    H166619   5.536   3.919   2.948 -1.2970  1.0484 -0.5709
15068TIP3    H266620   5.404   3.847   2.928 -0.4495 -0.8433  0.4496
15069TIP3   OH266621   0.949   4.649  14.558  0.0987  0.3702 -0.4621
15069TIP3    H166622   0.992   4.601  14.629  0.5995 -1.4708 -1.9718
15069TIP3    H266623   0.856   4.631  14.571  0.1456  0.4917  0.0529
15070TIP3   OH266624   6.947   4.451   3.329 -0.0685  0.8048 -0.1280
15070TIP3    H166625   7.015   4.517   3.341  1.4046 -0.4569 -1.2784
15070TIP3    H266626   6.951   4.398   3.409  0.7287  0.3761 -0.4445
15071TIP3   OH266627   4.774   3.748   1.728 -0.1001  0.2811  0.5754
15071TIP3    H166628   4.866   3.755   1.751  0.4805 -1.0241 -1.2117
15071TIP3    H266629   4.755   3.655   1.731 -1.0518  0.4391 -0.1688
15072TIP3   OH266630   5.675   3.614   0.646 -0.0900  0.0412 -0.0564
15072TIP3    H166631   5.660   3.692   0.700 -0.2452 -0.0687  0.0602
15072TIP3    H266632   5.676   3.541   0.708  1.7914  0.1294  0.0329
15073TIP3   OH266633   2.246   5.371   2.619  0.7435 -0.3287  0.3124
15073TIP3    H166634   2.324   5.390   2.671 -0.1723  1.8919  0.9189
15073TIP3    H266635   2.274   5.385   2.528  0.7621  1.6243  0.5967
15074TIP3   OH266636   1.777   4.299   3.575 -0.6011 -0.4821 -0.1695
15074TIP3    H166637   1.738   4.385   3.589 -1.0257 -0.6492 -0.3006
15074TIP3    H266638   1.824   4.307   3.491  1.1930  0.2540  0.8796
15075TIP3   OH266639   2.833   5.294   4.514  1.0205  0.2196  0.2033
15075TIP3    H166640   2.768   5.364   4.508  1.5309  0.8080  1.3359
15075TIP3    H266641   2.860   5.278   4.424 -0.0276  0.6029 -0.1823
15076TIP3   OH266642   0.769   3.137   2.423  0.3652  0.2943 -0.3807
15076TIP3    H166643   0.864   3.132   2.428  0.2866 -0.3089  0.6667
15076TIP3    H266644   0.740   3.046   2.430 -0.3042  0.5075 -0.3164
15077TIP3   OH266645   0.351   2.488   2.493  0.2259 -0.0151 -0.3646
15077TIP3    H166646   0.332   2.471   2.401 -0.6580 -1.6329  0.0898
15077TIP3    H266647   0.288   2.555   2.519 -1.1134 -1.2678 -0.3401
15078TIP3   OH266648   7.173   2.538   0.672  0.1975  0.0179 -0.2555
15078TIP3    H166649   7.153   2.630   0.650 -1.3772 -0.4123 -0.7046
15078TIP3    H266650   7.164   2.534   0.767 -0.2183  0.2340 -0.2811
15079TIP3   OH266651   0.693   5.817   1.237  0.2585 -0.8300 -0.1319
15079TIP3    H166652   0.755   5.744   1.243  0.8731 -0.2367  0.8036
15079TIP3    H266653   0.697   5.859   1.323 -0.6634 -0.1486 -0.4178
15080TIP3   OH266654   1.796   4.067   2.617  0.3378 -0.0203 -0.4332
15080TIP3    H166655   1.720   4.084   2.562 -1.8315 -2.3449  1.7272
15080TIP3    H266656   1.806   3.972   2.618  2.4718  0.1664  0.4087
15081TIP3   OH266657   0.778   4.470   3.423  0.2383  0.0710  0.1326
15081TIP3    H166658   0.712   4.539   3.420  0.7808  0.5430 -1.0612
15081TIP3    H266659   0.799   4.462   3.516  1.0513  2.3749  0.1953
15082TIP3   OH266660   0.955   3.834   2.335 -0.6806 -0.1870  0.4848
15082TIP3    H166661   1.004   3.867   2.260  0.0950 -1.7674  0.2801
15082TIP3    H266662   0.873   3.884   2.335  0.2928  1.4337 -0.0432
15083TIP3   OH266663   2.895   6.193   2.133 -0.1390 -0.4181 -0.2282
15083TIP3    H166664   2.978   6.235   2.110 -0.7735 -0.3093 -2.4546
15083TIP3    H266665   2.913   6.099   2.125 -0.1737 -0.3996 -0.5438
15084TIP3   OH266666   1.091   5.510   3.467 -0.6852 -0.0782  0.4175
15084TIP3    H166667   1.019   5.513   3.404 -0.7241  0.2840  0.4803
15084TIP3    H266668   1.047   5.503   3.552 -0.6238 -1.1482  0.3651
15085TIP3   OH266669   2.758   3.202   5.532  0.2851  0.1417 -0.6274
15085TIP3    H166670   2.835   3.158   5.569  0.2890  0.0814 -0.7089
15085TIP3    H266671   2.775   3.295   5.548 -0.1895  0.0593  0.4510
15086TIP3   OH266672   5.904   1.468   0.599 -0.1913 -0.1559 -0.3311
15086TIP3    H166673   5.972   1.474   0.666 -2.9269 -0.5142  2.5643
15086TIP3    H266674   5.930   1.395   0.544  1.9445 -0.0502  0.5013
15087TIP3   OH266675   1.498   4.009   2.217  0.1129  0.8936  0.8778
15087TIP3    H166676   1.413   4.042   2.188  1.6120  2.3378 -2.1026
15087TIP3    H266677   1.482   3.916   2.236 -2.5614  1.6249  2.4564
15088TIP3   OH266678   2.676   0.217   1.905 -0.0270 -0.0459 -0.1466
15088TIP3    H166679   2.758   0.266   1.894 -0.1460  0.2563  0.2743
15088TIP3    H266680   2.609   0.274   1.866  0.0440 -0.5548 -1.0145
15089TIP3   OH266681   1.602   4.843   3.925 -0.0847  0.2189 -0.2905
15089TIP3    H166682   1.513   4.817   3.949 -0.5911  1.8838 -0.3454
15089TIP3    H266683   1.648   4.760   3.912 -2.2962 -0.7035 -2.7238
15090TIP3   OH266684   1.853   4.111   1.095  0.3447  1.0203 -0.4940
15090TIP3    H166685   1.785   4.135   1.032 -0.8774  1.2277  0.8953
15090TIP3    H266686   1.813   4.123   1.181  2.1728  1.2792  0.3640
15091TIP3   OH266687   4.839   3.440   4.009  0.0056  0.4577  0.6293
15091TIP3    H166688   4.802   3.461   4.095 -0.1589  0.6756  0.5060
15091TIP3    H266689   4.799   3.356   3.986 -0.7351  0.8882  0.3153
15092TIP3   OH266690   7.206   4.592   2.299  0.1857  0.3327  0.2190
15092TIP3    H166691   7.157   4.670   2.325  1.8029  2.1561 -1.8628
15092TIP3    H266692   7.291   4.602   2.342 -0.5092 -1.6974  2.1025
15093TIP3   OH266693   2.694   3.579   3.627 -0.2711  0.0267  0.8310
15093TIP3    H166694   2.626   3.555   3.564 -0.2714  1.3534  0.3006
15093TIP3    H266695   2.773   3.535   3.596 -0.4525  0.0525  0.3324
15094TIP3   OH266696   2.650   4.186   3.276 -0.2862  0.1340 -0.2283
15094TIP3    H166697   2.648   4.246   3.351  1.5815 -0.1272  0.0672
15094TIP3    H266698   2.665   4.243   3.200 -0.4117  0.2316 -0.1794
15095TIP3   OH266699   1.913   3.614   1.442 -0.3217 -0.7747  0.4074
15095TIP3    H166700   1.959   3.541   1.401 -2.3748 -2.2170  0.6155
15095TIP3    H266701   1.914   3.594   1.535 -1.8818 -1.1655  0.3638
15096TIP3   OH266702   2.141   5.581   3.055 -0.5189  0.6416 -0.4945
15096TIP3    H166703   2.122   5.673   3.036 -0.0106  0.6923 -0.7681
15096TIP3    H266704   2.135   5.537   2.970  2.3205  0.9680 -0.9264
15097TIP3   OH266705   1.106   3.044   4.590  0.0903  0.3777 -0.3366
15097TIP3    H166706   1.110   3.103   4.665 -1.1727  0.3483 -0.2334
15097TIP3    H266707   1.184   2.988   4.599  0.8488  1.4819  0.0025
15098TIP3   OH266708   3.443   3.611   1.680  0.4333 -0.6394 -0.4785
15098TIP3    H166709   3.415   3.595   1.590  1.3810 -1.3499 -0.6520
15098TIP3    H266710   3.538   3.609   1.677  0.5250  1.3201  0.1956
15099TIP3   OH266711   0.253   3.450   2.884  0.3544 -0.2359  0.2518
15099TIP3    H166712   0.307   3.436   2.962  1.0868  1.3239  0.0486
15099TIP3    H266713   0.297   3.520   2.837 -1.1893  0.2158 -0.5571
15100TIP3   OH266714   1.445   0.934   2.680  0.6519 -0.5591  0.2876
15100TIP3    H166715   1.373   0.898   2.731 -0.0932 -0.0488 -0.3954
15100TIP3    H266716   1.479   1.006   2.733  0.3828 -0.5211  0.4047
15101TIP3   OH266717   1.569   4.885   2.154 -0.1068  0.1159  0.2975
15101TIP3    H166718   1.535   4.845   2.074  1.1672  0.6085 -0.4903
15101TIP3    H266719   1.514   4.848   2.224 -0.0240 -1.7537 -0.5936
15102TIP3   OH266720   1.109   4.068   3.322  0.5604 -0.1345 -0.0033
15102TIP3    H166721   1.095   4.043   3.413 -0.9589  0.4776 -0.0512
15102TIP3    H266722   1.202   4.086   3.316  0.8081 -0.9206  1.2430
15103TIP3   OH266723   1.405   5.595   3.317  0.1988 -0.0552 -0.4503
15103TIP3    H166724   1.350   5.517   3.305 -1.5991  1.2513 -0.8673
15103TIP3    H266725   1.455   5.577   3.396 -0.4469 -1.5145 -0.3595
15104TIP3   OH266726   2.274   5.164   3.022  0.2842 -0.7504  0.4202
15104TIP3    H166727   2.275   5.253   2.989  0.4468 -1.0703 -0.4582
15104TIP3    H266728   2.184   5.134   3.009 -0.0552 -0.3516  1.7376
15105TIP3   OH266729   2.769   3.416   0.177 -0.4324  0.0326 -0.1625
15105TIP3    H166730   2.684   3.458   0.160 -1.2837 -0.6777  2.1206
15105TIP3    H266731   2.747   3.329   0.209  1.2264 -0.7897 -1.2223
15106TIP3   OH266732   0.300   5.941   2.085  0.2605 -0.0864 -0.3085
15106TIP3    H166733   0.249   5.860   2.088  0.9349 -0.4890  0.3690
15106TIP3    H266734   0.362   5.933   2.157  0.3132  1.0460 -0.2211
15107TIP3   OH266735   1.673   5.332   3.348 -0.4240  0.4701 -0.2022
15107TIP3    H166736   1.727   5.411   3.341  1.2710 -0.6733 -0.4282
15107TIP3    H266737   1.601   5.357   3.405 -0.4534  2.4666 -1.0768
15108TIP3   OH266738   2.016   5.078   2.967  0.5319 -0.1206  0.0564
15108TIP3    H166739   1.968   5.065   2.885 -1.1142 -0.7450  1.0946
15108TIP3    H266740   1.948   5.088   3.033  1.8440  0.4352  1.3534
15109TIP3   OH266741   1.167   1.992   2.310  0.0825 -0.3263 -0.1206
15109TIP3    H166742   1.221   1.922   2.345  0.6615  1.1662  2.1171
15109TIP3    H266743   1.127   2.033   2.387 -2.0080  0.3822 -1.5327
15110TIP3   OH266744   7.123   4.770   3.670  0.0117 -0.2415  0.7246
15110TIP3    H166745   7.171   4.840   3.714  0.8842  0.5320 -1.3686
15110TIP3    H266746   7.173   4.690   3.690  1.0969  0.2821  0.1220
15111TIP3   OH266747   0.964   4.687   4.502 -0.0396 -0.1628 -0.1563
15111TIP3    H166748   0.952   4.742   4.580  1.8378  0.7638 -0.5041
15111TIP3    H266749   1.044   4.638   4.519 -1.0405 -1.9070 -0.3911
15112TIP3   OH266750   7.161   3.779   3.150 -0.0741  0.3504  0.0970
15112TIP3    H166751   7.206   3.798   3.067  0.0872  0.8541  0.2974
15112TIP3    H266752   7.083   3.731   3.124  0.6941 -0.7601 -0.2440
15113TIP3   OH266753   6.753   5.269   2.288 -0.0539  0.4508 -0.2728
15113TIP3    H166754   6.831   5.224   2.254 -1.0326 -1.0159 -0.6615
15113TIP3    H266755   6.680   5.226   2.243 -1.2344  0.1002  1.9233
15114TIP3   OH266756   0.966   5.892   4.673 -0.2033  0.8274  0.0969
15114TIP3    H166757   1.041   5.866   4.620  1.0195  2.3364  1.0113
15114TIP3    H266758   1.005   5.930   4.752 -1.9549 -2.1479  2.5199
15115TIP3   OH266759   6.783   3.033   4.426  0.4714 -0.6642  0.3289
15115TIP3    H166760   6.808   3.122   4.401  0.2713 -0.5350  0.5836
15115TIP3    H266761   6.705   3.044   4.480  0.5639 -0.9790  0.5319
15116TIP3   OH266762   2.730   5.158   3.504  0.2672 -0.0371  0.2503
15116TIP3    H166763   2.785   5.145   3.427  0.0781  2.7537 -0.3850
15116TIP3    H266764   2.786   5.131   3.578  0.9216 -1.4168 -0.7334
15117TIP3   OH266765   5.194   6.431   1.046  0.0546 -0.0063 -0.4827
15117TIP3    H166766   5.201   6.527   1.043  0.4425 -0.0585 -3.2359
15117TIP3    H266767   5.153   6.408   0.963  0.0128 -2.2526  0.1349
15118TIP3   OH266768   2.311   2.228   0.024 -0.3476  0.4770  0.2242
15118TIP3    H166769   2.313   2.153  -0.036 -0.3995  0.4399  0.2692
15118TIP3    H266770   2.229   2.273   0.003 -1.8896 -1.2305  2.3617
15119TIP3   OH266771   1.921   7.233   2.804  0.3294 -0.2728 -0.3014
15119TIP3    H166772   1.935   7.311   2.750 -1.5620  0.4168  0.1575
15119TIP3    H266773   1.838   7.196   2.772  0.3724 -1.1611  0.5828
15120TIP3   OH266774   0.364   6.259   3.984 -0.0698  0.3145  0.3054
15120TIP3    H166775   0.290   6.260   3.923  0.3685 -1.1211 -0.2666
15120TIP3    H266776   0.354   6.340   4.035  0.1324  2.0760 -2.3369
15121TIP3   OH266777   0.715   4.347   3.194 -0.0365  0.1551 -0.1417
15121TIP3    H166778   0.742   4.258   3.216 -0.3196  0.3512  1.0544
15121TIP3    H266779   0.750   4.401   3.266 -1.3268  0.7687  0.0346
15122TIP3   OH266780   0.191   4.582   1.432  0.1954  0.8747  0.0376
15122TIP3    H166781   0.123   4.516   1.447  0.1182  1.2854  1.6113
15122TIP3    H266782   0.252   4.540   1.372 -1.5446  0.5666 -1.5450
15123TIP3   OH266783   0.394   5.455   3.008  0.3772  0.3383 -0.0265
15123TIP3    H166784   0.353   5.464   3.095 -1.7242 -0.5315 -0.8905
15123TIP3    H266785   0.451   5.379   3.016 -0.2490 -0.0904  0.4522
15124TIP3   OH266786   0.703   4.118   3.485  0.4991  0.4310  1.0241
15124TIP3    H166787   0.616   4.134   3.448  0.5430 -1.2650  0.1127
15124TIP3    H266788   0.759   4.104   3.408  1.1529 -0.4676  1.6444
15125TIP3   OH266789   1.145   1.775   2.935 -0.4943  0.2823 -0.2533
15125TIP3    H166790   1.192   1.694   2.956 -0.7502  0.6571  1.8638
15125TIP3    H266791   1.074   1.746   2.878  0.9979 -0.5945 -1.7058
15126TIP3   OH266792   2.367   5.250   1.283 -0.1171 -0.2458  0.1814
15126TIP3    H166793   2.370   5.161   1.317 -0.6668  0.3110  1.7432
15126TIP3    H266794   2.278   5.261   1.250  0.1997 -0.5471 -0.7769
15127TIP3   OH266795   0.597   4.063   2.991  0.5041 -0.3002 -0.1101
15127TIP3    H166796   0.561   4.142   3.031  2.7694  0.3353  0.7179
15127TIP3    H266797   0.520   4.012   2.966 -0.9675  0.4773  2.6887
15128TIP3   OH266798   0.405   0.247   3.394  0.3855 -0.4432 -0.2502
15128TIP3    H166799   0.404   0.152   3.382  2.8083 -0.3488 -1.3631
15128TIP3    H266800   0.448   0.260   3.479 -0.1008 -0.3264 -0.0168
15129TIP3   OH266801   2.189   3.284   2.887  0.1754  0.2647 -0.2979
15129TIP3    H166802   2.255   3.329   2.834 -0.8275  0.0585 -1.7503
15129TIP3    H266803   2.196   3.192   2.860 -0.8829  0.2861 -0.6539
15130TIP3   OH266804   1.271   3.029   2.383 -0.3373 -0.1272  0.3639
15130TIP3    H166805   1.317   2.945   2.387  0.9388  0.5521  0.1779
15130TIP3    H266806   1.306   3.079   2.457 -0.9399  0.3201  0.3471
15131TIP3   OH266807   2.953   2.771   0.831  0.0374  0.0548 -0.5302
15131TIP3    H166808   2.999   2.804   0.908 -0.2743 -0.2238 -0.2248
15131TIP3    H266809   2.880   2.832   0.819  1.4359  1.4969 -2.0184
15132TIP3   OH266810   7.282   3.358   3.868  0.1678 -0.5569  0.2324
15132TIP3    H166811   7.271   3.293   3.798 -0.6489  1.5623 -1.6801
15132TIP3    H266812   7.364   3.334   3.910  0.2325 -2.3980 -0.8718
15133TIP3   OH266813   6.681   4.177   1.441  0.0656  0.1339 -0.0650
15133TIP3    H166814   6.674   4.125   1.361 -1.9576 -0.5645  0.5488
15133TIP3    H266815   6.649   4.263   1.416 -1.1618 -0.2582  0.1556
15134TIP3   OH266816   5.993   6.848   2.177  0.2492  0.0210 -0.0198
15134TIP3    H166817   5.999   6.852   2.273 -1.3835 -0.4226  0.1093
15134TIP3    H266818   6.013   6.937   2.148  0.4156  0.2405  0.7509
15135TIP3   OH266819   6.873   4.893   3.651 -0.2752 -0.0553 -0.0330
15135TIP3    H166820   6.955   4.854   3.681 -0.1978  0.0924 -0.0522
15135TIP3    H266821   6.892   4.925   3.563 -0.2132  0.4107  0.1474
15136TIP3   OH266822   2.810   3.746   3.149  0.2700  0.0494  0.0714
15136TIP3    H166823   2.857   3.727   3.067  0.1958 -0.3141  0.1118
15136TIP3    H266824   2.750   3.817   3.126  0.3198  0.0166 -0.1643
15137TIP3   OH266825   2.106   5.151   2.334 -0.3267 -0.4643 -0.5751
15137TIP3    H166826   2.116   5.056   2.338  0.5081 -0.3387  0.7704
15137TIP3    H266827   2.188   5.181   2.294 -0.1926 -0.2442 -0.1316
15138TIP3   OH266828   1.724   2.987   0.138  0.4161 -0.4291 -0.2385
15138TIP3    H166829   1.725   3.077   0.104 -1.9088 -1.1429 -2.2853
15138TIP3    H266830   1.706   2.998   0.232  1.1705  1.2555 -0.2584
15139TIP3   OH266831   2.346   6.128   1.185  0.3699 -0.3834  0.2192
15139TIP3    H166832   2.381   6.039   1.186  1.0494 -0.1132  0.6401
15139TIP3    H266833   2.423   6.185   1.186 -0.0603  0.2106  0.0941
15140TIP3   OH266834   6.043   1.089   5.333 -0.5778  0.3937 -0.1045
15140TIP3    H166835   6.049   0.993   5.336 -2.7195  0.2207 -0.5294
15140TIP3    H266836   6.043   1.116   5.425 -3.8679 -0.3437  0.1802
15141TIP3   OH266837   1.102   6.437   1.767  0.3394  0.2632  0.4349
15141TIP3    H166838   1.017   6.416   1.727 -0.4424  1.8433  1.2417
15141TIP3    H266839   1.081   6.464   1.856  1.7368  0.2830  0.7671
15142TIP3   OH266840   2.000   5.363   4.093 -0.1513  0.2087  0.3061
15142TIP3    H166841   2.026   5.271   4.096  0.6202  0.4585  1.2510
15142TIP3    H266842   2.032   5.400   4.175  0.6067  1.6063 -0.6113
15143TIP3   OH266843   2.066   3.747   3.041  0.2326 -0.2192 -0.5405
15143TIP3    H166844   1.983   3.763   2.997  0.2712  1.2066 -0.1119
15143TIP3    H266845   2.045   3.743   3.134  0.8301  1.5601 -0.3125
15144TIP3   OH266846   5.761   6.300   2.887 -0.0166  0.2554 -0.5070
15144TIP3    H166847   5.852   6.321   2.866  0.0317  1.5440  0.9393
15144TIP3    H266848   5.754   6.315   2.982 -1.5114 -0.6515 -0.4612
15145TIP3   OH266849   0.572   0.717   2.001 -0.3242  0.2934 -0.1749
15145TIP3    H166850   0.660   0.679   1.990  0.0234  1.7002 -2.6025
15145TIP3    H266851   0.526   0.654   2.057  1.3336 -1.9445 -1.2128
15146TIP3   OH266852   1.792   0.965   4.223  0.2033 -0.0807 -0.4531
15146TIP3    H166853   1.835   0.985   4.139  0.5740  1.2464  0.0525
15146TIP3    H266854   1.708   1.010   4.219  0.1035 -0.2423 -0.2101
15147TIP3   OH266855   3.060   2.474   1.841  0.6653  0.4370 -0.8709
15147TIP3    H166856   3.036   2.562   1.813  1.7568  1.5439  1.5026
15147TIP3    H266857   2.990   2.418   1.808  0.6424  1.9509 -3.6107
15148TIP3   OH266858   0.689   4.458   5.402  0.5227 -0.1434  0.0409
15148TIP3    H166859   0.695   4.397   5.476 -0.8630 -0.8912 -0.4372
15148TIP3    H266860   0.656   4.539   5.440  0.9919 -0.1418  0.4441
15149TIP3   OH266861   7.105   3.766   2.646 -0.0758 -0.4442 -0.3123
15149TIP3    H166862   7.170   3.701   2.671  0.6761  0.2180 -0.5173
15149TIP3    H266863   7.145   3.813   2.572  1.1420  2.8652  2.2782
15150TIP3   OH266864   1.211   4.200   2.761  0.3891 -0.4472 -0.1914
15150TIP3    H166865   1.219   4.249   2.843  0.8810 -1.0111  0.1029
15150TIP3    H266866   1.294   4.216   2.716 -0.4666  1.0922 -1.2775
15151TIP3   OH266867   3.223   5.047   4.089  0.3659 -0.3260  0.1153
15151TIP3    H166868   3.171   5.009   4.159 -0.8999  0.2160 -0.5251
15151TIP3    H266869   3.306   5.071   4.131 -0.1298 -0.6069  1.2686
15152TIP3   OH266870   6.433   5.748  15.265  0.3508 -0.8889  0.3650
15152TIP3    H166871   6.408   5.670  15.216 -0.9776  0.1790 -0.6718
15152TIP3    H266872   6.366   5.757  15.333 -0.1012 -0.0440 -0.1893
15153TIP3   OH266873   1.468   4.436  15.338  0.2920  0.3588  0.5446
15153TIP3    H166874   1.515   4.400  15.414  2.2690  2.9765  0.6109
15153TIP3    H266875   1.422   4.512  15.373 -1.6539 -0.4675 -0.1777
15154TIP3   OH266876   1.222   4.557   4.507 -0.7989  0.6845  0.2976
15154TIP3    H166877   1.281   4.494   4.465 -0.3973  0.1623  1.6097
15154TIP3    H266878   1.260   4.642   4.488  0.9983  0.2941  2.0239
15155TIP3   OH266879   0.721   6.703   5.051  0.1396  0.2871 -0.2436
15155TIP3    H166880   0.794   6.759   5.027  0.9981  0.0590  1.7648
15155TIP3    H266881   0.649   6.763   5.068  0.7198  0.7326  0.7151
15156TIP3   OH266882   1.901   4.337   4.287  0.2407  0.7786 -0.2953
15156TIP3    H166883   1.992   4.349   4.315  0.2440 -0.7932  0.3873
15156TIP3    H266884   1.866   4.271   4.346 -0.3710 -1.0953 -2.6873
15157TIP3   OH266885   1.598   3.850   3.939  0.0219 -0.0293 -0.3095
15157TIP3    H166886   1.504   3.833   3.944 -0.1644  1.2109  0.6475
15157TIP3    H266887   1.639   3.782   3.991 -0.4173 -0.0172  0.0490
15158TIP3   OH266888   0.513   4.174   5.887 -0.2179 -0.2660  0.4698
15158TIP3    H166889   0.589   4.224   5.857  0.1195 -1.1281 -0.1164
15158TIP3    H266890   0.543   4.132   5.968 -0.5890  0.6932  1.1123
15159TIP3   OH266891   2.062   5.949   3.256 -0.0112 -0.1857  0.4483
15159TIP3    H166892   2.091   5.996   3.178 -0.3003 -0.7675 -0.0167
15159TIP3    H266893   2.014   6.014   3.307  0.8259  0.3930  0.5023
15160TIP3   OH266894   0.989   2.997   3.897 -0.3534  0.6832  0.1964
15160TIP3    H166895   0.920   3.063   3.897 -0.3705  0.7010 -1.5215
15160TIP3    H266896   1.023   2.998   3.807 -0.2886 -1.5731  0.1698
15161TIP3   OH266897   0.151   0.765   1.964 -0.3631 -0.1227 -0.5802
15161TIP3    H166898   0.065   0.782   1.925 -0.5260  0.4512  0.0131
15161TIP3    H266899   0.157   0.829   2.035  0.4431 -0.3457 -0.4528
15162TIP3   OH266900   5.647   6.042   3.740 -0.5278  0.2862  0.1874
15162TIP3    H166901   5.721   6.015   3.687  0.6289 -0.3543  2.0814
15162TIP3    H266902   5.584   5.970   3.732 -0.1012 -0.0853  0.1588
15163TIP3   OH266903   0.258   5.362   0.042 -0.0258  0.0292 -0.1113
15163TIP3    H166904   0.336   5.318   0.076 -1.3140 -0.3320  2.5506
15163TIP3    H266905   0.215   5.297  -0.014 -0.0094 -0.8515  0.8813
15164TIP3   OH266906   0.594   5.066   3.249 -0.5627  0.1703  0.2993
15164TIP3    H166907   0.671   5.032   3.296 -0.7338 -0.0049  0.4531
15164TIP3    H266908   0.561   4.992   3.199 -0.7538  0.1887  0.3956
15165TIP3   OH266909   0.273   4.681   2.173  0.4596  0.4052  0.1679
15165TIP3    H166910   0.330   4.758   2.179  1.6142 -0.2031 -2.1882
15165TIP3    H266911   0.187   4.716   2.152  0.3602  1.2108  1.8182
15166TIP3   OH266912   4.248   4.301   3.469 -0.1818 -0.0330  0.3123
15166TIP3    H166913   4.218   4.239   3.536 -1.0467  0.1392  0.0938
15166TIP3    H266914   4.262   4.247   3.391  2.3547 -0.5024  1.0263
15167TIP3   OH266915   3.038   6.195  15.788 -0.0955  0.3657  0.8398
15167TIP3    H166916   2.994   6.206  15.872  0.4948 -0.1999  1.2310
15167TIP3    H266917   3.046   6.100  15.778  1.6224  0.4756  1.0887
15168TIP3   OH266918   0.134   4.172   3.308 -0.2099 -0.2988  0.3970
15168TIP3    H166919   0.175   4.243   3.258 -0.0108 -0.5233  0.2455
15168TIP3    H266920   0.115   4.104   3.244 -0.0067 -0.5631  0.6144
15169TIP3   OH266921   2.018   6.325   0.883 -0.6876  0.1870 -1.0770
15169TIP3    H166922   2.092   6.327   0.823 -0.0185 -0.9246 -0.2950
15169TIP3    H266923   1.974   6.242   0.864  1.4282 -1.7865  2.2155
15170TIP3   OH266924   1.105   5.907   3.686  0.3539  0.0640 -0.1938
15170TIP3    H166925   1.119   5.994   3.649 -2.1115  0.4481 -0.2872
15170TIP3    H266926   1.048   5.921   3.761  1.9999 -1.1993  1.3627
15171TIP3   OH266927   2.525   1.590   2.292  0.2406  0.0855 -0.2012
15171TIP3    H166928   2.441   1.556   2.262  0.2019  0.4005 -0.4492
15171TIP3    H266929   2.584   1.516   2.286 -0.3275 -0.5031  1.2439
15172TIP3   OH266930   1.456   4.273   3.086 -0.2271  0.2010  0.3220
15172TIP3    H166931   1.478   4.247   3.175  1.5220  1.7312  0.3610
15172TIP3    H266932   1.457   4.191   3.036  2.7231 -0.2069  0.9410
15173TIP3   OH266933   0.884   6.754   1.512 -0.2974  0.7119  0.0660
15173TIP3    H166934   0.969   6.792   1.534  0.1008  0.7861 -1.5333
15173TIP3    H266935   0.904   6.687   1.446 -1.4797  0.8246 -0.4156
15174TIP3   OH266936   0.733   5.997   3.043 -0.1424 -0.1554 -0.1097
15174TIP3    H166937   0.703   5.930   2.981  1.3099  0.2259 -1.2787
15174TIP3    H266938   0.662   6.005   3.106 -1.0767 -1.5604 -0.9399
15175TIP3   OH266939   0.062   6.507   2.544  0.7890 -0.3995 -0.0152
15175TIP3    H166940   0.084   6.553   2.463  0.9183 -1.2843 -0.4889
15175TIP3    H266941   0.127   6.538   2.607  1.6200 -0.8155 -0.6485
15176TIP3   OH266942   1.011   5.883   2.213 -0.7817 -0.5323 -0.0827
15176TIP3    H166943   1.085   5.893   2.273 -1.9307 -1.4454  1.5333
15176TIP3    H266944   1.026   5.948   2.145  1.2652 -0.3972  0.4640
15177TIP3   OH266945   0.741   1.941   1.918  0.2255 -0.1425  0.3350
15177TIP3    H166946   0.734   1.966   2.010 -2.4166 -1.4657  0.5328
15177TIP3    H266947   0.664   1.888   1.901  0.1103  0.9494 -2.9388
15178TIP3   OH266948   0.346   4.348   0.967 -0.1460  0.7419  0.7228
15178TIP3    H166949   0.372   4.438   0.946 -1.7308  0.9773 -0.3959
15178TIP3    H266950   0.416   4.315   1.023  0.5039  2.6448  1.0809
15179TIP3   OH266951   0.834   1.739   2.357 -0.3786 -0.1407 -0.2393
15179TIP3    H166952   0.888   1.709   2.284  0.4809 -1.1543  0.8048
15179TIP3    H266953   0.776   1.665   2.376 -1.0970  0.3852 -0.3531
15180TIP3   OH266954   1.719   3.183   3.578  0.7159  0.0380 -1.3754
15180TIP3    H166955   1.703   3.277   3.589  1.8367  0.2824 -1.7044
15180TIP3    H266956   1.774   3.178   3.500  3.1631 -0.6217  0.3275
15181TIP3   OH266957   3.109   4.881   3.919  0.2234  0.0675  0.6282
15181TIP3    H166958   3.141   4.960   3.962  0.3489 -1.3028  3.1639
15181TIP3    H266959   3.188   4.841   3.882  0.6147 -0.3475  1.8801
15182TIP3   OH266960   6.395   6.873   3.259 -0.3187 -0.1439  0.1497
15182TIP3    H166961   6.360   6.961   3.272 -0.2477 -0.1316  0.2581
15182TIP3    H266962   6.473   6.870   3.314 -1.0535 -0.7201  1.1609
15183TIP3   OH266963   0.749   3.376   2.867  0.2595 -0.4563 -0.7952
15183TIP3    H166964   0.686   3.313   2.832  1.0134 -0.3772 -2.3270
15183TIP3    H266965   0.810   3.323   2.918 -1.1280 -0.5095  0.9066
15184TIP3   OH266966   4.907   3.645   4.500 -0.3153 -0.1747 -0.1396
15184TIP3    H166967   4.830   3.647   4.557 -0.3941 -0.6132 -0.2305
15184TIP3    H266968   4.874   3.616   4.415 -0.0425 -0.4145 -0.1672
15185TIP3   OH266969   2.690   4.550   0.209  0.3457 -0.1278  0.0548
15185TIP3    H166970   2.738   4.469   0.190  0.8111  0.0083  0.6531
15185TIP3    H266971   2.747   4.599   0.268 -0.5154  0.0566  0.7365
15186TIP3   OH266972   1.781   4.161   3.106  0.1354 -0.5516 -0.2736
15186TIP3    H166973   1.803   4.150   3.199  1.7373 -0.5161 -0.6371
15186TIP3    H266974   1.828   4.240   3.080  1.0374 -1.4999 -1.5447
15187TIP3   OH266975   7.016   6.810   2.996  0.1416 -0.2547  0.0936
15187TIP3    H166976   6.927   6.801   2.961  0.4411 -0.8712 -0.5342
15187TIP3    H266977   7.014   6.760   3.078 -0.3145  0.4261  0.4990
15188TIP3   OH266978   2.138   3.620   2.708 -0.4955  0.3691 -0.1970
15188TIP3    H166979   2.197   3.648   2.779  0.8428 -0.4807 -0.9616
15188TIP3    H266980   2.186   3.641   2.628 -0.1681 -2.5564 -0.8153
15189TIP3   OH266981   0.548   3.549   5.548  0.2215  0.2347 -0.8754
15189TIP3    H166982   0.634   3.591   5.555  0.7361 -0.9006 -0.2728
15189TIP3    H266983   0.561   3.478   5.485  0.4776 -1.8012  1.4457
15190TIP3   OH266984   1.795   5.377   2.799  0.1831 -0.0670 -0.2823
15190TIP3    H166985   1.889   5.386   2.810  0.1105  0.8417 -0.4272
15190TIP3    H266986   1.783   5.360   2.705  0.0292  2.1926 -0.6966
15191TIP3   OH266987   6.445   6.830   2.921  0.0120 -0.0629 -0.0608
15191TIP3    H166988   6.359   6.797   2.894 -0.4479  0.4317  0.7609
15191TIP3    H266989   6.441   6.833   3.016 -0.1050  2.6581 -0.0962
15192TIP3   OH266990   1.177   6.839   5.013  0.2331  0.1791  0.2754
15192TIP3    H166991   1.233   6.859   4.938 -0.9965 -1.1173 -1.0310
15192TIP3    H266992   1.238   6.828   5.086  1.4753  1.1520 -0.5906
15193TIP3   OH266993   2.159   3.996   3.146 -0.5254  0.2639  0.0692
15193TIP3    H166994   2.148   4.055   3.071 -0.3600  1.4565  0.9697
15193TIP3    H266995   2.124   3.912   3.116 -0.6140  0.7729 -1.2823
15194TIP3   OH266996   1.417   1.777   4.807  0.1328  0.3591  0.2169
15194TIP3    H166997   1.485   1.806   4.868  0.4963  0.0695 -0.0434
15194TIP3    H266998   1.335   1.804   4.847  0.5409  3.4951 -0.9146
15195TIP3   OH266999   1.132   6.921   2.212  0.0469  0.0016  0.3647
15195TIP3    H167000   1.171   6.975   2.144  0.3821  0.3190  0.8103
15195TIP3    H267001   1.040   6.947   2.214 -0.1618 -0.6683 -0.6076
15196TIP3   OH267002   1.980   3.592   4.418 -0.3736  1.0295  0.1554
15196TIP3    H167003   1.919   3.585   4.492  0.0144  2.3651  0.6019
15196TIP3    H267004   2.027   3.508   4.419 -1.5154  0.3767  0.4029
15197TIP3   OH267005   1.256   5.964   0.157 -0.2876  0.5349 -0.3631
15197TIP3    H167006   1.312   5.904   0.207 -1.7890 -1.3241 -0.8364
15197TIP3    H267007   1.317   6.012   0.101  0.9251 -1.0137 -0.4281
15198TIP3   OH267008   2.182   3.835   4.050 -0.1573  0.2270  0.6566
15198TIP3    H167009   2.105   3.877   4.014  0.8470  2.0408  0.5685
15198TIP3    H267010   2.208   3.890   4.124  0.8999 -0.4994  0.8530
15199TIP3   OH267011   2.607   6.344   2.710 -0.0630 -0.6177  0.1671
15199TIP3    H167012   2.677   6.293   2.752  0.1997 -0.0838  0.3782
15199TIP3    H267013   2.637   6.434   2.714 -0.5603 -0.4360 -0.1534
15200TIP3   OH267014   1.490   3.862   3.216  0.0679  0.3043 -0.5964
15200TIP3    H167015   1.536   3.780   3.197  0.2269  0.4377 -0.7949
15200TIP3    H267016   1.417   3.837   3.272  0.2750  0.0626 -0.4350
15201TIP3   OH267017   2.200   3.867   2.222  0.1724  0.3840 -0.1466
15201TIP3    H167018   2.184   3.819   2.141  1.2941 -0.6442  0.2224
15201TIP3    H267019   2.288   3.903   2.211  0.7077 -0.5570  0.9905
15202TIP3   OH267020   2.142   3.990   0.487  0.2497 -0.3829 -0.7465
15202TIP3    H167021   2.130   4.073   0.442 -1.1699 -0.4457 -0.5036
15202TIP3    H267022   2.107   4.005   0.575  1.0693 -0.8854 -0.3356
15203TIP3   OH267023   1.811   5.041   3.802  0.1803 -0.2434  0.0747
15203TIP3    H167024   1.798   4.947   3.788  0.0370 -0.4208  1.2976
15203TIP3    H267025   1.817   5.078   3.714 -2.2338 -1.0511 -0.4573
15204TIP3   OH267026   1.457   5.488   1.246 -0.6027 -0.4336 -0.0623
15204TIP3    H167027   1.447   5.395   1.226 -1.1589 -0.5639  0.8192
15204TIP3    H267028   1.493   5.526   1.165  0.7552 -1.6117 -0.0290
15205TIP3   OH267029   2.699   4.586   4.445  0.6371 -0.3097 -0.1524
15205TIP3    H167030   2.728   4.587   4.354 -0.3911 -0.1457 -0.4890
15205TIP3    H267031   2.641   4.510   4.450 -2.2748  1.7821 -0.6137
15206TIP3   OH267032   2.808   4.859   1.542 -0.3033 -0.5454 -0.0830
15206TIP3    H167033   2.804   4.929   1.608 -0.9516  0.0901 -0.7903
15206TIP3    H267034   2.902   4.845   1.529 -0.0688  2.4699 -2.3021
15207TIP3   OH267035   0.971   3.880   1.811  0.2037  0.3591 -0.5599
15207TIP3    H167036   0.944   3.798   1.769  1.6188 -1.1583  1.3739
15207TIP3    H267037   1.027   3.922   1.746  1.0741 -1.1840 -0.8471
15208TIP3   OH267038   2.998   1.540   3.547  0.1897 -0.3074  0.1345
15208TIP3    H167039   3.008   1.515   3.639  0.8184 -2.8668 -0.5920
15208TIP3    H267040   3.057   1.615   3.537  3.4279 -2.6363  0.8284
15209TIP3   OH267041   0.820   1.138   2.944 -0.0451  0.3227  0.3003
15209TIP3    H167042   0.804   1.068   2.880 -1.8376  1.1022 -0.1581
15209TIP3    H267043   0.811   1.095   3.029 -0.2941 -0.1932  0.0175
15210TIP3   OH267044   7.267   3.044   2.267  0.4739  0.0893 -0.0986
15210TIP3    H167045   7.310   3.006   2.343 -2.7906  0.5095  2.0557
15210TIP3    H267046   7.224   3.123   2.300 -2.5508 -0.7001 -1.9351
15211TIP3   OH267047   0.237   5.993   5.727  0.3061  0.4524  0.7409
15211TIP3    H167048   0.219   5.933   5.655  0.8697 -1.7883  2.4256
15211TIP3    H267049   0.150   6.016   5.761  0.0975  0.4245  0.2303
15212TIP3   OH267050   0.343   4.967   4.124  0.4991  0.0125 -0.4509
15212TIP3    H167051   0.367   4.910   4.198 -0.7829 -1.8289 -1.4061
15212TIP3    H267052   0.413   4.953   4.060  0.5296  0.0146 -0.4184
15213TIP3   OH267053   0.006   1.985   3.060  0.2829  0.4245 -0.1928
15213TIP3    H167054  -0.060   1.917   3.067  0.6723  0.2009  1.3507
15213TIP3    H267055   0.081   1.952   3.109 -0.0915  2.6109  1.9592
15214TIP3   OH267056   7.208   4.709   3.150 -0.2614 -0.2706  0.1197
15214TIP3    H167057   7.239   4.619   3.136  0.6511  0.0939 -0.2040
15214TIP3    H267058   7.207   4.718   3.245  0.9535 -0.1822  0.1381
15215TIP3   OH267059   1.138   2.747   2.601  0.0266 -0.4217  0.0439
15215TIP3    H167060   1.104   2.711   2.519  0.9548 -3.3180  0.8384
15215TIP3    H267061   1.220   2.790   2.576 -0.6459  0.3639 -0.8226
15216TIP3   OH267062   1.341   3.770   3.943 -0.4654 -0.3337  0.0814
15216TIP3    H167063   1.268   3.740   3.889 -0.3190  0.5951 -0.6271
15216TIP3    H267064   1.384   3.689   3.972 -0.3501 -0.8402 -1.4515
15217TIP3   OH267065   0.718   5.029   2.877  0.0342  0.0339 -0.5591
15217TIP3    H167066   0.632   4.989   2.868  0.6576 -1.3378 -0.4932
15217TIP3    H267067   0.761   4.979   2.946  0.2631  1.8287  0.6430
15218TIP3   OH267068   7.272   2.957   4.514 -0.0103  0.0609  0.0601
15218TIP3    H167069   7.271   3.052   4.531  0.2189  0.4360 -1.9025
15218TIP3    H267070   7.183   2.936   4.487  0.2254 -0.0533 -0.6431
15219TIP3   OH267071   0.229   3.911   4.757  0.9766  1.0891 -0.1444
15219TIP3    H167072   0.181   3.975   4.704  1.4179  0.3863 -1.4221
15219TIP3    H267073   0.244   3.838   4.697 -1.2205 -1.0526  1.8033
15220TIP3   OH267074   2.455   0.126   2.039  0.3913 -0.0526  0.2601
15220TIP3    H167075   2.521   0.176   1.991 -0.5985  2.6311  1.5766
15220TIP3    H267076   2.504   0.057   2.084  2.0901  0.9198 -0.0683
15221TIP3   OH267077   2.135   4.551   3.845 -0.2810  0.7282  0.1900
15221TIP3    H167078   2.100   4.472   3.886 -0.7059  0.0481 -1.4599
15221TIP3    H267079   2.180   4.520   3.767  0.2876  2.0415 -0.0178
15222TIP3   OH267080   1.429   6.800   3.090 -0.1020  0.1553  0.2327
15222TIP3    H167081   1.425   6.738   3.163 -0.5260 -0.3813 -0.2401
15222TIP3    H267082   1.454   6.883   3.131  3.6710 -0.9761  0.4850
15223TIP3   OH267083   0.292   6.617   1.977  0.9400 -0.7132  0.1360
15223TIP3    H167084   0.360   6.619   1.910  1.8559 -1.4302  1.0271
15223TIP3    H267085   0.338   6.639   2.058  0.0096 -0.7136  0.6695
15224TIP3   OH267086   3.045   6.224   3.707 -0.6377 -0.0578 -0.1250
15224TIP3    H167087   3.066   6.282   3.634 -0.7085 -1.4559 -1.2920
15224TIP3    H267088   3.076   6.138   3.678  1.0863 -0.2975  2.2936
15225TIP3   OH267089   2.494   4.592   2.802 -0.2594  0.1532 -0.1331
15225TIP3    H167090   2.520   4.544   2.723 -0.3223  0.6106 -0.4291
15225TIP3    H267091   2.405   4.621   2.784 -1.0596 -1.5380  0.9382
15226TIP3   OH267092   5.873   5.565   3.239  0.2631  0.6695  0.1955
15226TIP3    H167093   5.880   5.583   3.145 -1.2609  1.8197  0.2769
15226TIP3    H267094   5.906   5.476   3.250  0.2601  0.4613 -1.4587
15227TIP3   OH267095   1.792   6.771   4.966 -0.1633 -0.3227  0.1897
15227TIP3    H167096   1.848   6.840   5.000  1.7897 -1.3444 -0.8328
15227TIP3    H267097   1.786   6.708   5.038  0.5547 -0.5198  0.0818
15228TIP3   OH267098   1.196   3.734   3.215 -0.2242 -0.6768  0.1532
15228TIP3    H167099   1.167   3.796   3.149  0.5512  0.4824  0.8741
15228TIP3    H267100   1.245   3.668   3.166 -0.6076 -0.4340 -0.5606
15229TIP3   OH267101   1.689   3.419   2.242 -0.5218  0.0439  0.6834
15229TIP3    H167102   1.678   3.465   2.159 -0.2175 -1.0073  0.0529
15229TIP3    H267103   1.779   3.386   2.240 -0.8327 -0.8396  0.9897
15230TIP3   OH267104   1.759   4.978   4.124  0.5465  0.2130 -0.4380
15230TIP3    H167105   1.831   4.930   4.083  0.8908 -0.6729  1.1511
15230TIP3    H267106   1.681   4.951   4.076  0.9327 -0.8360 -0.4903
15231TIP3   OH267107   0.921   5.224   5.299  0.0485  0.0495  0.2615
15231TIP3    H167108   0.964   5.161   5.356  0.1114 -0.2631 -0.1341
15231TIP3    H267109   0.959   5.210   5.212  0.4460  0.9792  0.2735
15232TIP3   OH267110   2.444   1.723   2.616 -0.0039 -0.2239  0.1079
15232TIP3    H167111   2.485   1.637   2.630 -0.8044 -0.2367  2.7269
15232TIP3    H267112   2.376   1.728   2.684 -0.1974  2.3376 -0.2255
15233TIP3   OH267113   1.217   6.215   3.660 -0.3551 -0.2728 -0.2450
15233TIP3    H167114   1.305   6.201   3.694 -0.3624 -0.0374 -0.1281
15233TIP3    H267115   1.209   6.310   3.652 -1.1156 -0.2021  1.1405
15234TIP3   OH267116   0.787   7.267   2.822  0.4179  0.1607  0.3901
15234TIP3    H167117   0.758   7.220   2.743  2.3061  0.0638 -0.2727
15234TIP3    H267118   0.818   7.198   2.880  2.7154  0.4996 -0.3813
15235TIP3   OH267119   1.926   5.573   3.915 -0.6493 -0.1301  0.3153
15235TIP3    H167120   1.988   5.643   3.897 -0.2513 -0.8748 -1.2890
15235TIP3    H267121   1.968   5.520   3.983  0.0849 -0.1447 -0.1488
15236TIP3   OH267122   0.699   2.451   3.511  0.0307  0.0120  0.1960
15236TIP3    H167123   0.747   2.432   3.592  1.9902  3.1221 -0.1511
15236TIP3    H267124   0.739   2.395   3.445  0.3119 -0.5341  0.8301
15237TIP3   OH267125   2.831   3.788   4.903  0.4134 -0.5449  0.4425
15237TIP3    H167126   2.873   3.743   4.976  1.7624 -2.0741 -1.2389
15237TIP3    H267127   2.898   3.847   4.870 -0.2310  0.2188  0.5019
15238TIP3   OH267128   2.063   3.583   4.165  0.3123  0.1141 -0.2654
15238TIP3    H167129   2.018   3.595   4.249  1.0902  0.1568  0.1501
15238TIP3    H267130   2.099   3.670   4.145 -0.6247  0.3204 -1.0848
15239TIP3   OH267131   1.829   3.588   3.513 -0.2236 -0.0098  0.1837
15239TIP3    H167132   1.843   3.597   3.608 -1.1157  0.3571  0.2900
15239TIP3    H267133   1.867   3.668   3.476  0.2581 -0.2224  0.2177
15240TIP3   OH267134   6.075   4.164   2.139 -0.4292 -0.6528  0.1606
15240TIP3    H167135   6.093   4.207   2.055  1.8949  0.7117  1.3091
15240TIP3    H267136   6.008   4.218   2.180 -0.1940 -0.2424  0.0081
15241TIP3   OH267137   1.306   4.105   4.991  0.1682 -0.1980 -0.0715
15241TIP3    H167138   1.394   4.068   4.990  0.4722  0.5136  0.2529
15241TIP3    H267139   1.248   4.029   4.988  0.7934 -0.6526 -0.7189
15242TIP3   OH267140   4.981   4.787   3.224 -0.4760 -0.3512 -0.3919
15242TIP3    H167141   4.899   4.810   3.181 -1.2871 -0.9874  0.7845
15242TIP3    H267142   4.956   4.768   3.315  1.4047  2.4809  0.7827
15243TIP3   OH267143   3.832   4.034   4.901  0.4868  0.7247 -0.1802
15243TIP3    H167144   3.898   3.986   4.952  0.2868  0.3149 -0.3020
15243TIP3    H267145   3.838   4.124   4.932 -0.7380  0.1836  1.7446
15244TIP3   OH267146   0.981   3.159   2.708 -0.4055  0.1065 -0.2339
15244TIP3    H167147   0.990   3.148   2.613  0.8197  1.1745 -0.2654
15244TIP3    H267148   0.897   3.203   2.719  1.1930  3.5550 -1.1539
15245TIP3   OH267149   1.240   4.150   2.197  0.1248  0.5152  0.4448
15245TIP3    H167150   1.227   4.106   2.281 -1.0814  0.8547  0.4437
15245TIP3    H267151   1.164   4.206   2.187 -0.6189 -0.8017 -1.6783
15246TIP3   OH267152   2.016   5.100   4.128  0.4112 -0.5205 -0.3052
15246TIP3    H167153   2.020   5.066   4.218  0.1987  1.8048  0.6395
15246TIP3    H267154   1.925   5.089   4.102 -0.3184  1.9268  1.0900
15247TIP3   OH267155   2.138   3.024   2.836  0.3626 -0.3657 -0.0946
15247TIP3    H167156   2.140   2.966   2.913  1.0394 -1.6125 -1.0334
15247TIP3    H267157   2.190   2.978   2.770 -0.2875  0.6529 -1.3361
15248TIP3   OH267158   2.106   4.282   0.394 -0.0076 -0.7059 -0.6395
15248TIP3    H167159   2.160   4.342   0.445  1.2078 -1.4098 -1.0703
15248TIP3    H267160   2.145   4.283   0.306  0.6123 -2.8018 -0.4213
15249TIP3   OH267161   1.764   3.695   1.833  0.3373  0.2110  0.4775
15249TIP3    H167162   1.710   3.689   1.754  1.3652 -0.2341 -0.1998
15249TIP3    H267163   1.838   3.636   1.816  2.5304  2.9162  0.2195
15250TIP3   OH267164   5.512   2.645   3.203  0.3466 -0.2760 -0.1955
15250TIP3    H167165   5.531   2.661   3.110  1.6313 -2.2669 -0.3198
15250TIP3    H267166   5.598   2.633   3.243 -0.0881  2.4566  1.6739
15251TIP3   OH267167   5.820   6.550   4.352 -0.0424 -0.0451 -0.4614
15251TIP3    H167168   5.834   6.623   4.413  0.5254 -0.4264 -0.1244
15251TIP3    H267169   5.823   6.590   4.265  0.4855  0.3081 -0.2860
15252TIP3   OH267170   2.935   5.184   2.365 -0.2263  0.0352  0.5642
15252TIP3    H167171   2.870   5.230   2.418  1.5247  1.0040  1.9295
15252TIP3    H267172   2.999   5.251   2.341  1.1936 -1.2406  0.7194
15253TIP3   OH267173   2.328   5.497   4.026  0.4604  0.5369  0.2696
15253TIP3    H167174   2.419   5.525   4.031  0.7787 -0.4408 -0.0686
15253TIP3    H267175   2.309   5.495   3.932 -0.0961  1.3093  0.3542
15254TIP3   OH267176   0.529   5.080   4.628 -0.1481  0.1164 -0.2457
15254TIP3    H167177   0.612   5.118   4.598  0.5452 -1.8223 -0.8594
15254TIP3    H267178   0.530   4.990   4.594 -1.7487 -0.4479  1.1290
15255TIP3   OH267179   2.131   3.239   3.881 -0.0033  0.2095 -0.8789
15255TIP3    H167180   2.114   3.145   3.871 -0.1978  0.0508  0.7795
15255TIP3    H267181   2.045   3.280   3.873 -0.3216 -0.0198  1.2166
15256TIP3   OH267182   7.055   3.571   0.810  0.6983  0.2720 -0.2089
15256TIP3    H167183   6.974   3.558   0.761  0.4490 -0.3836  0.3772
15256TIP3    H267184   7.114   3.503   0.777  1.7522  2.0770 -2.1891
15257TIP3   OH267185   7.002   3.214   5.061  0.2023 -0.1462  0.2901
15257TIP3    H167186   6.958   3.134   5.088  2.2775 -1.3309  0.2582
15257TIP3    H267187   7.058   3.238   5.135  0.5666  0.5360 -0.1922
15258TIP3   OH267188   0.827   6.690   3.584  0.3263 -0.0811 -0.0240
15258TIP3    H167189   0.757   6.653   3.530 -0.5099  0.6806  0.5141
15258TIP3    H267190   0.870   6.614   3.624 -2.0998 -0.4444  1.9773
15259TIP3   OH267191   6.797   0.202   2.067  0.0296  0.0559  0.6304
15259TIP3    H167192   6.842   0.164   2.142  0.7708 -2.1288 -0.8598
15259TIP3    H267193   6.714   0.155   2.063 -0.6390  1.1977  0.9368
15260TIP3   OH267194   3.322   6.661   0.046 -0.5122  0.2575  0.4968
15260TIP3    H167195   3.231   6.691   0.042 -0.6576 -0.2590 -0.1588
15260TIP3    H267196   3.322   6.579  -0.003  0.2171  0.0303  0.8787
15261TIP3   OH267197   6.013   6.306   3.084  0.2019 -0.2070  0.8708
15261TIP3    H167198   6.024   6.369   3.014  1.0516  0.5558  1.6721
15261TIP3    H267199   6.066   6.340   3.156 -0.4346 -1.1100  1.7933
15262TIP3   OH267200   3.325   4.147   4.004 -0.3393 -0.0363 -0.3098
15262TIP3    H167201   3.346   4.156   3.911  0.3702  0.1375 -0.1331
15262TIP3    H267202   3.369   4.067   4.031 -0.5964 -0.1202 -0.1320
15263TIP3   OH267203   0.391   6.813   3.360 -0.9140 -0.3434  0.4460
15263TIP3    H167204   0.405   6.727   3.400 -0.4877  0.7753  2.8138
15263TIP3    H267205   0.438   6.874   3.418 -0.8289  1.4347 -1.4374
15264TIP3   OH267206   2.079   3.730   3.323  0.2227 -0.3840  0.1414
15264TIP3    H167207   2.079   3.662   3.389  1.1950 -1.0429 -0.5166
15264TIP3    H267208   2.058   3.810   3.371  1.3325 -0.7794  1.3292
15265TIP3   OH267209   1.338   4.363   4.845  0.0608  0.0148 -0.3984
15265TIP3    H167210   1.383   4.442   4.876  0.3930 -0.6262  0.7731
15265TIP3    H267211   1.348   4.300   4.916  0.3911 -1.3155 -1.5970
15266TIP3   OH267212   1.168   2.335   2.184  0.1262 -0.5665  0.0092
15266TIP3    H167213   1.179   2.323   2.278  0.6306 -0.4999 -0.0379
15266TIP3    H267214   1.168   2.430   2.172  1.5955 -0.5761 -0.2203
15267TIP3   OH267215   0.205   1.726   1.986  0.3368  0.1063  0.0913
15267TIP3    H167216   0.194   1.779   2.065  0.1372  0.6629 -0.3054
15267TIP3    H267217   0.274   1.663   2.008  1.7940  1.6304  0.0087
15268TIP3   OH267218   2.128   3.813   0.925 -0.5900  0.2466  0.0626
15268TIP3    H167219   2.129   3.883   0.990  0.3908 -0.7245  1.1036
15268TIP3    H267220   2.089   3.738   0.970 -0.2248 -0.3341 -0.5728
15269TIP3   OH267221   0.762   2.455   1.868  0.9599 -0.4642 -0.0966
15269TIP3    H167222   0.747   2.550   1.871 -1.1631 -0.7511 -0.7566
15269TIP3    H267223   0.698   2.423   1.804  1.3629 -2.4061  0.4460
15270TIP3   OH267224   1.273   3.445   2.805 -0.2806 -0.7049 -0.5384
15270TIP3    H167225   1.180   3.462   2.817  0.3334  1.3058  1.9282
15270TIP3    H267226   1.314   3.532   2.802  1.7705 -1.5497  1.0705
15271TIP3   OH267227   0.013   2.354   1.899  0.5686 -0.3447  0.0242
15271TIP3    H167228   0.023   2.444   1.929 -0.9023  0.5737 -2.1678
15271TIP3    H267229   0.091   2.337   1.848  0.9322 -0.3942  0.5869
15272TIP3   OH267230   5.776   3.938   3.799 -0.6736 -0.1665 -0.8063
15272TIP3    H167231   5.740   4.026   3.815 -1.5684 -0.6063 -0.3269
15272TIP3    H267232   5.724   3.881   3.856  0.6188 -0.8725 -0.3122
15273TIP3   OH267233   0.039   2.680   2.251  0.2095  0.4330  0.0883
15273TIP3    H167234  -0.056   2.678   2.243  0.3175 -1.2260 -0.7654
15273TIP3    H267235   0.071   2.622   2.183  1.8399  0.7371  0.5655
15274TIP3   OH267236   1.252   2.600   3.540  0.6966  0.2197 -0.8890
15274TIP3    H167237   1.159   2.622   3.544  0.7031  0.1919 -0.5772
15274TIP3    H267238   1.294   2.677   3.502  0.5249  0.1669 -1.1919
15275TIP3   OH267239   3.906   5.869   2.261 -0.1553 -0.1920 -0.2491
15275TIP3    H167240   3.859   5.806   2.316  0.0508  2.2012  2.8812
15275TIP3    H267241   3.992   5.830   2.248 -0.8989 -1.7426 -0.6232
15276TIP3   OH267242   1.889   5.653   1.770 -0.3724  0.9900  0.0880
15276TIP3    H167243   1.956   5.585   1.761 -2.1091 -0.7636  0.0448
15276TIP3    H267244   1.914   5.700   1.849 -0.3020 -1.1000  1.3600
15277TIP3   OH267245   0.632   6.694   4.352  0.1249 -0.4078  0.4132
15277TIP3    H167246   0.572   6.768   4.357  0.7417  0.0252  1.5467
15277TIP3    H267247   0.633   6.671   4.259  0.5783  1.5405 -0.0871
15278TIP3   OH267248   6.470   4.098   3.278  0.3065 -0.0282 -0.1090
15278TIP3    H167249   6.392   4.045   3.295 -0.4252  0.7226 -1.0390
15278TIP3    H267250   6.441   4.162   3.212  1.7421  0.1891 -0.5390
15279TIP3   OH267251   1.114   5.333   2.990 -0.0228  0.1218 -0.2083
15279TIP3    H167252   1.201   5.318   3.027  0.6470 -1.3802 -2.2876
15279TIP3    H267253   1.066   5.252   3.008  0.0408 -0.2873 -1.7971
15280TIP3   OH267254   1.701   5.644   3.119  0.3300 -0.3020 -0.6749
15280TIP3    H167255   1.664   5.694   3.192  1.0455  1.7926 -1.6902
15280TIP3    H267256   1.764   5.585   3.159  0.4521  0.5791  0.4388
15281TIP3   OH267257   0.493   5.946   3.180 -0.1773  0.9493  0.0717
15281TIP3    H167258   0.421   5.979   3.234  0.8162  1.5411  1.0716
15281TIP3    H267259   0.518   5.863   3.221 -0.7714  0.3705 -0.7216
15282TIP3   OH267260   4.167   5.976   4.288  0.6934 -0.2234 -0.0239
15282TIP3    H167261   4.249   5.928   4.303  1.6703  1.8890  1.7169
15282TIP3    H267262   4.110   5.950   4.360 -0.1314 -1.5439 -1.1286
15283TIP3   OH267263   3.706   3.647   4.560 -0.4623  0.0735 -0.3947
15283TIP3    H167264   3.617   3.659   4.594 -0.3992  1.0444 -0.5506
15283TIP3    H267265   3.749   3.731   4.576  0.9262 -0.8923  1.1224
15284TIP3   OH267266   0.458   5.664   3.424  0.7101 -0.2058 -0.1938
15284TIP3    H167267   0.420   5.620   3.500  2.2785 -2.7084 -0.7899
15284TIP3    H267268   0.500   5.742   3.460 -1.2393  0.3038  1.0482
15285TIP3   OH267269   4.140   5.178   3.206  0.4731 -0.0312  0.3893
15285TIP3    H167270   4.188   5.167   3.124  1.0161  1.9113  0.4295
15285TIP3    H267271   4.048   5.170   3.180  0.6954 -0.9852 -0.1438
15286TIP3   OH267272   3.092   5.280   4.609 -0.3707  0.0518 -1.2018
15286TIP3    H167273   2.999   5.295   4.596 -0.7428 -0.7676  0.3611
15286TIP3    H267274   3.097   5.221   4.684  1.3406 -1.3676 -2.3823
15287TIP3   OH267275   4.867   5.469   1.926 -0.8746 -0.2952 -0.8344
15287TIP3    H167276   4.778   5.504   1.924 -0.9794 -0.3089  1.9062
15287TIP3    H267277   4.910   5.516   1.998  0.8963 -1.3403 -1.1771
15288TIP3   OH267278   3.369   5.534   3.045  0.6697  0.9414  0.1611
15288TIP3    H167279   3.274   5.523   3.058  0.9357 -2.1328 -0.0713
15288TIP3    H267280   3.376   5.583   2.964 -0.7274  1.8048  0.5387
15289TIP3   OH267281   2.728   5.621   5.046  0.1657 -0.5426  0.3010
15289TIP3    H167282   2.663   5.552   5.039 -0.2108  0.0932 -3.6998
15289TIP3    H267283   2.698   5.675   5.119 -1.8608 -2.2023  0.7302
15290TIP3   OH267284   0.726   5.146   4.156 -0.1736 -0.0340  0.1386
15290TIP3    H167285   0.690   5.064   4.190  1.3834 -0.3151  1.1718
15290TIP3    H267286   0.716   5.207   4.229 -0.1083  0.3402 -0.1675
15291TIP3   OH267287   4.038   3.017   5.226 -0.7298 -0.1403 -0.8146
15291TIP3    H167288   3.976   3.089   5.212  1.1768  1.5970 -0.4562
15291TIP3    H267289   4.043   3.008   5.322  0.1103  0.2077 -0.8225
15292TIP3   OH267290   4.151   5.016   1.999 -0.0213 -0.0206 -0.8516
15292TIP3    H167291   4.150   5.081   2.069  1.2918 -0.5458 -0.3352
15292TIP3    H267292   4.065   4.975   2.003 -0.0293  0.1054  0.3120
15293TIP3   OH267293   4.577   4.036   2.266 -0.1556 -1.1244  0.1099
15293TIP3    H167294   4.668   4.009   2.283  0.1532  0.2500  0.6800
15293TIP3    H267295   4.545   4.064   2.351 -0.1086  1.3771 -0.6615
15294TIP3   OH267296   1.583   2.028   2.357 -0.0182  0.5212 -0.4991
15294TIP3    H167297   1.546   2.103   2.403  0.6983  1.7071 -1.8100
15294TIP3    H267298   1.641   1.986   2.421  0.1887  1.5512 -0.0057
15295TIP3   OH267299   1.927   5.278   5.490 -0.2269 -0.0553  0.4797
15295TIP3    H167300   2.013   5.247   5.519 -0.3702  1.1301  2.2110
15295TIP3    H267301   1.945   5.320   5.405  1.5054  3.1465  2.3444
15296TIP3   OH267302   4.837   5.289   2.277  0.2685  0.3425 -0.1965
15296TIP3    H167303   4.897   5.284   2.352 -0.1042  0.7515  0.1286
15296TIP3    H267304   4.888   5.254   2.204  0.4342 -0.6185  0.3661
15297TIP3   OH267305   7.084   4.101   4.442 -0.0052 -0.2343 -0.4932
15297TIP3    H167306   7.143   4.051   4.386 -1.8359 -1.7068 -1.1404
15297TIP3    H267307   7.078   4.051   4.523 -1.1654 -0.6451 -0.8187
15298TIP3   OH267308   1.051   3.417   3.039 -0.5860  0.3264 -0.4388
15298TIP3    H167309   1.018   3.328   3.028 -0.4128  0.3289 -0.9863
15298TIP3    H267310   1.140   3.414   3.007  0.0948  0.2361  1.3872
15299TIP3   OH267311   2.263   7.097   2.982 -0.4073  0.0213 -0.0903
15299TIP3    H167312   2.334   7.052   3.028  0.5980  2.3731  0.7275
15299TIP3    H267313   2.183   7.061   3.020  0.3651 -1.1395  0.4648
15300TIP3   OH267314   4.537   5.121   2.644  0.7850 -0.9567  0.5456
15300TIP3    H167315   4.632   5.107   2.643  1.2007  1.6273  1.4506
15300TIP3    H267316   4.526   5.215   2.637 -1.6525 -0.9993  2.9774
15301TIP3   OH267317   3.877   6.522   4.051  0.3417  0.2598 -0.2884
15301TIP3    H167318   3.895   6.616   4.053  2.9665 -0.1418 -2.5459
15301TIP3    H267319   3.894   6.496   3.961  1.0354 -2.6467  0.6227
15302TIP3   OH267320   3.791   5.012   5.022 -0.2970 -0.0093  0.2034
15302TIP3    H167321   3.810   5.106   5.013 -0.0992  0.0609  1.2920
15302TIP3    H267322   3.871   4.975   5.059 -0.1158 -0.7375 -0.8988
15303TIP3   OH267323   3.824   5.216   4.754 -0.8933 -0.1173  0.2971
15303TIP3    H167324   3.815   5.121   4.760 -0.0188 -0.3804 -2.0669
15303TIP3    H267325   3.915   5.233   4.781  0.2721 -0.4208 -3.2014
15304TIP3   OH267326   4.147   4.166   2.330  0.2088  0.3525 -0.2057
15304TIP3    H167327   4.230   4.206   2.305 -0.0600  1.4833  0.6476
15304TIP3    H267328   4.090   4.241   2.351 -0.0192 -0.4653  2.2823
15305TIP3   OH267329   3.757   4.287   2.985  0.1583 -0.2413 -0.5773
15305TIP3    H167330   3.670   4.299   3.023 -0.4352 -0.2578 -1.8995
15305TIP3    H267331   3.816   4.334   3.044 -0.7161 -0.4105  0.4472
15306TIP3   OH267332   3.353   2.780   3.311  0.3763 -0.0708  0.3557
15306TIP3    H167333   3.327   2.851   3.253  1.8652  0.4150  0.2771
15306TIP3    H267334   3.344   2.816   3.399  0.6532  0.0488  0.3344
15307TIP3   OH267335   3.187   3.900   3.725  0.0610  0.3356  0.2893
15307TIP3    H167336   3.095   3.886   3.704  0.0291 -1.4442  1.4370
15307TIP3    H267337   3.218   3.813   3.752  1.2879  1.5163  2.8455
15308TIP3   OH267338   3.425   4.380   1.675  0.1654 -0.5669 -0.5037
15308TIP3    H167339   3.506   4.339   1.643  0.9490  0.1185  0.5744
15308TIP3    H267340   3.451   4.428   1.754 -1.5290 -1.3101  0.5364
15309TIP3   OH267341   3.350   6.899  15.679  0.1574 -0.4696 -0.2101
15309TIP3    H167342   3.270   6.940  15.710  1.1021  0.5280  0.9282
15309TIP3    H267343   3.364   6.936  15.592  0.3381  0.6873  0.3091
15310TIP3   OH267344   4.380   5.391   2.557 -0.0799  0.1737 -0.5415
15310TIP3    H167345   4.291   5.423   2.545  0.4832  1.4074 -1.5469
15310TIP3    H267346   4.420   5.454   2.617  0.3091 -0.0360 -0.5769
15311TIP3   OH267347   2.114   4.022   1.101  0.2643  0.1707  0.0655
15311TIP3    H167348   2.021   4.020   1.126  0.3371  2.0881  0.5516
15311TIP3    H267349   2.152   4.090   1.156  1.5246  0.8471 -1.6327
15312TIP3   OH267350   2.002   3.085   2.433 -0.2178 -0.0809 -0.2899
15312TIP3    H167351   1.969   3.164   2.391 -1.8762  0.2831  1.6708
15312TIP3    H267352   1.952   3.014   2.392 -0.0302  0.0341 -0.7290
15313TIP3   OH267353   3.596   4.708   3.551 -0.5444  0.5102  0.0218
15313TIP3    H167354   3.592   4.778   3.616 -0.6560 -0.4569  1.0697
15313TIP3    H267355   3.512   4.662   3.560 -0.1867 -0.1853 -0.1782
15314TIP3   OH267356   3.360   3.617   2.326  1.1207  0.0407 -0.1330
15314TIP3    H167357   3.421   3.599   2.397  2.6463 -0.8551 -1.6216
15314TIP3    H267358   3.415   3.623   2.248 -0.1573  3.8755 -0.8635
15315TIP3   OH267359   4.019   5.710   4.148 -0.5824  0.2944  0.5634
15315TIP3    H167360   4.005   5.705   4.242 -1.3717 -1.3626  0.3844
15315TIP3    H267361   4.063   5.628   4.126  0.5194  1.1149 -0.3641
15316TIP3   OH267362   3.796   4.695  15.183 -0.2345  0.0679  0.0048
15316TIP3    H167363   3.771   4.768  15.240 -1.6556 -0.0159 -0.4835
15316TIP3    H267364   3.873   4.657  15.225 -0.2404  1.0663  0.9472
15317TIP3   OH267365   1.102   0.140   4.715  0.0287 -0.2393 -0.0536
15317TIP3    H167366   1.007   0.141   4.703 -0.4792 -0.7578  3.3411
15317TIP3    H267367   1.120   0.218   4.768  1.3517 -0.6573  0.1213
15318TIP3   OH267368   2.405   5.934   2.784  0.3314 -0.2802  0.0122
15318TIP3    H167369   2.477   5.986   2.820 -0.9493  0.4494  1.5851
15318TIP3    H267370   2.423   5.845   2.814  0.5248 -0.0807  0.4961
15319TIP3   OH267371   0.345   5.598   2.552  0.2992  0.1602  0.3031
15319TIP3    H167372   0.320   5.561   2.637  2.0837 -0.6557  0.5088
15319TIP3    H267373   0.403   5.671   2.574  0.3002  0.3160 -0.2020
15320TIP3   OH267374   3.904   4.803   3.602  0.0922  0.4742 -0.7962
15320TIP3    H167375   3.918   4.850   3.520  0.8681 -0.5456 -1.2441
15320TIP3    H267376   3.857   4.723   3.577 -0.4977  0.6017 -0.1313
15321TIP3   OH267377   2.955   4.995   2.558 -0.2453 -0.6934  0.8289
15321TIP3    H167378   3.049   4.977   2.566 -0.5590 -3.0822 -0.4828
15321TIP3    H267379   2.950   5.065   2.493  0.5812 -1.3419  0.0440
15322TIP3   OH267380   0.545   5.304   4.022 -0.9545  0.5797 -0.0730
15322TIP3    H167381   0.537   5.355   4.102 -0.1531 -0.0720  0.4231
15322TIP3    H267382   0.567   5.215   4.051 -2.8343 -0.1916 -0.8972
15323TIP3   OH267383   3.362   4.449   1.281 -0.0703 -0.1267 -0.6209
15323TIP3    H167384   3.366   4.500   1.200 -1.6945 -1.0769 -1.3250
15323TIP3    H267385   3.403   4.366   1.259  0.9668  0.2061  0.0178
15324TIP3   OH267386   3.970   5.195   4.015 -0.5206 -0.4714  0.3168
15324TIP3    H167387   4.018   5.174   3.935 -0.9790 -0.3204 -0.0038
15324TIP3    H267388   3.975   5.115   4.067 -0.6206 -0.7327 -0.0679
15325TIP3   OH267389   4.776   4.950   2.876  0.2703  0.2741 -0.7441
15325TIP3    H167390   4.739   4.949   2.964  0.6599  0.3292 -0.5836
15325TIP3    H267391   4.775   4.858   2.849 -0.1099  0.2896 -0.7937
15326TIP3   OH267392   3.161   5.845   5.144 -0.2054 -0.4321  0.3225
15326TIP3    H167393   3.254   5.842   5.121  0.2350  0.5301  1.8672
15326TIP3    H267394   3.127   5.920   5.095 -0.0008 -0.3645  0.2822
15327TIP3   OH267395   3.868   4.085  15.812  0.1079  0.0205 -0.1027
15327TIP3    H167396   3.868   3.997  15.773  0.1463  1.2506 -2.9777
15327TIP3    H267397   3.779   4.096  15.847 -0.8445 -0.0039 -2.4688
15328TIP3   OH267398   2.770   5.700   3.056  0.4246 -0.1774  0.3020
15328TIP3    H167399   2.851   5.709   3.108  0.4447  2.1781 -0.0974
15328TIP3    H267400   2.705   5.749   3.105  0.4379  2.0827 -1.8857
15329TIP3   OH267401   2.498   4.297   2.796 -0.3026  0.0538 -0.2818
15329TIP3    H167402   2.551   4.261   2.725  0.0440  1.5430 -0.7987
15329TIP3    H267403   2.438   4.226   2.820 -0.9725 -0.2015 -2.6156
15330TIP3   OH267404   6.080   4.494   4.034  0.3486 -0.0241 -0.2942
15330TIP3    H167405   6.172   4.469   4.045  0.2538 -0.7998 -1.1085
15330TIP3    H267406   6.066   4.490   3.939 -0.1209  1.6000 -0.3008
15331TIP3   OH267407   2.638   4.649   3.028  0.2637 -0.0524  0.0921
15331TIP3    H167408   2.582   4.634   2.952  0.6596 -0.9977 -0.0205
15331TIP3    H267409   2.629   4.569   3.081 -0.9105  1.0751  1.6216
15332TIP3   OH267410   1.922   6.579   2.913 -0.2398 -0.1111  0.5173
15332TIP3    H167411   1.910   6.495   2.958 -1.9681  0.5548  1.3396
15332TIP3    H267412   1.894   6.644   2.977 -1.1823  0.9466 -0.9612
15333TIP3   OH267413   2.368   4.860   2.477 -0.0687 -0.2486  0.0990
15333TIP3    H167414   2.348   4.899   2.392  1.3040  2.8650  1.1528
15333TIP3    H267415   2.284   4.853   2.521 -0.2321  2.4691  0.2635
15334TIP3   OH267416   5.793   5.534  15.913  0.1390  0.0280 -0.3582
15334TIP3    H167417   5.752   5.599  15.856  1.5816  0.5369 -0.8393
15334TIP3    H267418   5.845   5.585  15.975  0.7889 -0.6280 -0.3514
15335TIP3   OH267419   4.772   3.893   3.043 -0.0999 -0.4030 -0.4602
15335TIP3    H167420   4.819   3.976   3.032 -1.5167  0.3575 -0.8892
15335TIP3    H267421   4.794   3.865   3.132  1.0797 -0.0162 -0.6130
15336TIP3   OH267422   5.684   4.274   2.577  0.2261 -0.2791  0.2657
15336TIP3    H167423   5.775   4.263   2.548 -0.4662 -2.2205 -1.2418
15336TIP3    H267424   5.667   4.368   2.566  2.3931  0.3168  1.6468
15337TIP3   OH267425   3.974   5.941   0.801  0.1432  0.4342 -0.1896
15337TIP3    H167426   3.936   5.926   0.714  2.1361 -2.0365 -0.6975
15337TIP3    H267427   3.969   5.855   0.844  1.4124  1.0645  1.2499
15338TIP3   OH267428   2.658   2.555   2.538 -0.2290  0.2294 -0.0158
15338TIP3    H167429   2.650   2.633   2.483 -0.5842 -1.4458 -2.3856
15338TIP3    H267430   2.571   2.518   2.539 -0.3570  0.5137  2.1700
15339TIP3   OH267431   2.778   3.930   3.433  0.3910 -0.1931  0.4717
15339TIP3    H167432   2.845   3.926   3.364 -0.2510  0.1162 -0.1712
15339TIP3    H267433   2.701   3.964   3.389 -0.3910 -1.1881  1.0558
15340TIP3   OH267434   2.605   3.281   5.306  0.0401 -0.3695  0.2401
15340TIP3    H167435   2.677   3.227   5.272 -0.9549 -1.3844 -0.2812
15340TIP3    H267436   2.613   3.275   5.401  1.7187  0.9745  0.2070
15341TIP3   OH267437   3.950   5.932   2.762 -0.6202 -0.2302 -0.0956
15341TIP3    H167438   3.893   5.912   2.836  0.2768 -0.5689  0.5156
15341TIP3    H267439   4.030   5.883   2.779 -0.1053  0.3121 -0.8972
15342TIP3   OH267440   1.868   2.353   2.858 -0.0644 -0.7843  0.1445
15342TIP3    H167441   1.853   2.445   2.877  0.6166 -1.3598  3.8789
15342TIP3    H267442   1.932   2.354   2.787 -0.5082  1.6007 -0.2686
15343TIP3   OH267443   2.491   4.426   3.575  0.0265 -0.5169  0.4805
15343TIP3    H167444   2.539   4.398   3.653  0.6009 -0.2773  0.2155
15343TIP3    H267445   2.548   4.492   3.535  0.5151 -1.8343 -1.0513
15344TIP3   OH267446   1.707   0.243  15.808  0.1640  0.1275  0.2076
15344TIP3    H167447   1.724   0.225  15.716 -0.1833 -1.2397  0.4023
15344TIP3    H267448   1.744   0.168  15.855 -0.1935  0.5163  1.1398
15345TIP3   OH267449   2.905   4.441  15.031 -0.7300  0.0274  0.4852
15345TIP3    H167450   2.928   4.349  15.044 -0.8757  0.0387  0.8072
15345TIP3    H267451   2.811   4.446  15.049 -0.3077  0.6669  2.7200
15346TIP3   OH267452   4.118   7.135   2.847  1.0704 -0.8903  0.4891
15346TIP3    H167453   4.083   7.180   2.924  0.9404  1.4024 -0.8680
15346TIP3    H267454   4.040   7.103   2.801  1.0530 -0.8164  0.4661
15347TIP3   OH267455   3.948   3.787   3.167  0.3524  0.1955  0.4867
15347TIP3    H167456   3.920   3.869   3.126 -1.2839  0.3230  1.7897
15347TIP3    H267457   3.954   3.807   3.260  2.1343 -0.5962  0.5555
15348TIP3   OH267458   3.013   3.537   3.236  0.3310 -0.5249  0.4849
15348TIP3    H167459   3.035   3.612   3.291  1.1734  0.5102 -1.2019
15348TIP3    H267460   2.923   3.516   3.258 -0.1634  1.4771  0.4600
15349TIP3   OH267461   3.314   4.150   4.332 -0.1042  1.2012 -0.5422
15349TIP3    H167462   3.253   4.201   4.384 -0.7238  0.3100 -0.3782
15349TIP3    H267463   3.262   4.077   4.297  1.1001 -0.2150  0.5473
15350TIP3   OH267464   2.594   2.243   3.043  0.0160 -0.4116 -0.1867
15350TIP3    H167465   2.605   2.337   3.058 -0.8868 -0.0260 -1.8109
15350TIP3    H267466   2.663   2.202   3.096  0.3652  1.1503  0.6006
15351TIP3   OH267467   0.467   5.992   4.073  0.1349 -0.2650 -0.0258
15351TIP3    H167468   0.498   5.945   3.996 -0.4798  0.0168 -0.4474
15351TIP3    H267469   0.412   6.062   4.038 -0.0664 -0.0731  0.6658
15352TIP3   OH267470   2.307   3.605   4.381 -0.1816  0.1543  0.1137
15352TIP3    H167471   2.356   3.567   4.454 -0.0728  0.3015  0.1167
15352TIP3    H267472   2.222   3.561   4.383  1.3203 -3.1011 -2.3398
15353TIP3   OH267473   3.476   3.786   4.428 -1.0242 -0.1981 -0.0710
15353TIP3    H167474   3.398   3.731   4.437 -1.3343  0.2925  0.2671
15353TIP3    H267475   3.454   3.867   4.474 -0.5258  0.1667 -0.4653
15354TIP3   OH267476   2.844   5.012   3.291  0.5160  0.6928 -0.1118
15354TIP3    H167477   2.903   5.033   3.219 -0.5953 -0.7317 -1.4605
15354TIP3    H267478   2.767   4.973   3.249  0.1694 -0.8446  1.8750
15355TIP3   OH267479   4.470   4.565   2.285 -0.4544 -0.2739  0.0487
15355TIP3    H167480   4.522   4.646   2.291  0.0686 -0.6412  0.4877
15355TIP3    H267481   4.392   4.591   2.235 -1.5436  1.1609  2.3388
15356TIP3   OH267482   2.791   3.781   4.252  0.1764 -0.0027  0.0934
15356TIP3    H167483   2.702   3.794   4.285 -0.2570 -0.3524 -0.9067
15356TIP3    H267484   2.835   3.865   4.265  0.0747 -0.1882  1.7061
15357TIP3   OH267485   3.662   5.625  15.453  0.3555 -0.4044  1.0001
15357TIP3    H167486   3.726   5.563  15.417  0.8076  1.1353 -0.9848
15357TIP3    H267487   3.577   5.586  15.434  0.6620 -1.2483  1.3372
15358TIP3   OH267488   4.412   5.523   3.409  0.0829  0.0820 -0.1957
15358TIP3    H167489   4.425   5.567   3.325  4.4737  0.7502  0.7054
15358TIP3    H267490   4.420   5.430   3.389 -1.4195  0.0918 -0.8867
15359TIP3   OH267491   2.591   3.378   4.859 -0.1672 -0.2882 -0.1274
15359TIP3    H167492   2.655   3.446   4.838 -1.2753  0.4503 -1.1415
15359TIP3    H267493   2.513   3.426   4.885 -1.6093 -1.1487 -2.7698
15360TIP3   OH267494   2.994   6.090   5.092  0.3884  0.2041  0.7501
15360TIP3    H167495   2.944   6.124   5.018 -0.8501 -2.8450  0.1250
15360TIP3    H267496   2.935   6.097   5.167 -0.1487 -1.1442  0.4776
15361TIP3   OH267497   1.924   3.885   1.579 -0.0809  0.4056  0.2052
15361TIP3    H167498   1.937   3.811   1.519 -0.7524 -0.0590  0.6331
15361TIP3    H267499   1.829   3.892   1.588 -0.1243  2.6942 -1.5223
15362TIP3   OH267500   3.778   4.118   1.863  0.0905 -0.3275 -0.5753
15362TIP3    H167501   3.853   4.159   1.905  0.7879 -0.3678 -1.7536
15362TIP3    H267502   3.800   4.025   1.859 -1.0331 -0.6941  1.1411
15363TIP3   OH267503   1.640   5.246  15.866 -0.0328  0.0265 -0.4742
15363TIP3    H167504   1.573   5.208  15.923 -2.9367  0.4935 -3.4149
15363TIP3    H267505   1.717   5.191  15.880 -1.1364 -0.8206  2.6604
15364TIP3   OH267506   2.430   4.473   1.491 -0.3745 -0.0687 -0.2403
15364TIP3    H167507   2.366   4.531   1.448 -0.0888 -0.2672 -0.9485
15364TIP3    H267508   2.504   4.531   1.512 -0.3732 -0.0355 -0.3316
15365TIP3   OH267509   1.638   2.513   1.499 -0.2569  0.0362  0.0851
15365TIP3    H167510   1.563   2.454   1.510 -0.1354 -0.2698 -0.6729
15365TIP3    H267511   1.706   2.458   1.461 -0.6962  1.0488 -2.2513
15366TIP3   OH267512   3.592   6.121   4.305  0.9841 -0.8220  0.6721
15366TIP3    H167513   3.516   6.069   4.330 -0.6816  0.1432 -2.1059
15366TIP3    H267514   3.614   6.171   4.384 -1.4708 -0.8993  1.4623
15367TIP3   OH267515   4.941   6.480   1.903  0.3774 -0.1696  0.4933
15367TIP3    H167516   5.013   6.421   1.925  1.7297  0.5425 -1.8571
15367TIP3    H267517   4.880   6.425   1.852  1.1639  0.2040 -0.8611
15368TIP3   OH267518   3.743   5.880   4.282 -0.1164 -0.4950  0.3630
15368TIP3    H167519   3.708   5.969   4.291 -1.6719 -0.9996 -0.6332
15368TIP3    H267520   3.799   5.884   4.205 -1.1613 -0.6635 -0.4205
15369TIP3   OH267521   2.739   5.976   2.324  1.0239  0.1419 -0.5508
15369TIP3    H167522   2.705   6.061   2.297  1.6384  0.0410 -1.6828
15369TIP3    H267523   2.700   5.960   2.410  0.2811  1.2003 -0.6875
15370TIP3   OH267524   2.552   5.921   3.467  0.3057  0.0335 -0.3037
15370TIP3    H167525   2.623   5.975   3.501  0.1976  0.4082 -0.6766
15370TIP3    H267526   2.502   5.895   3.545 -0.0542  1.0542 -0.1985
15371TIP3   OH267527   1.831   5.881   4.310 -0.4308  0.0409 -0.0201
15371TIP3    H167528   1.805   5.924   4.229 -1.4925 -2.2726 -0.9510
15371TIP3    H267529   1.771   5.916   4.376 -1.1906  0.1001 -0.7335
15372TIP3   OH267530   4.334   6.467   3.429  0.6365  0.5452  0.4981
15372TIP3    H167531   4.366   6.398   3.370  1.8592  0.4084  1.3076
15372TIP3    H267532   4.240   6.470   3.412  0.8799  0.1061 -1.0469
15373TIP3   OH267533   1.806   3.170   1.352 -0.4323  0.2539  0.0221
15373TIP3    H167534   1.887   3.219   1.336 -1.9991  2.7191 -0.6795
15373TIP3    H267535   1.805   3.156   1.446  0.8153  0.2075  0.0405
15374TIP3   OH267536   1.734   3.952   2.150 -0.6111 -0.5736  0.1431
15374TIP3    H167537   1.654   3.999   2.174 -0.1914  0.0906  0.2605
15374TIP3    H267538   1.777   3.933   2.233  0.2804  0.7268 -0.0115
15375TIP3   OH267539   4.662   6.055   0.865  0.1988 -0.2526 -0.1372
15375TIP3    H167540   4.637   5.965   0.885 -1.1790  0.0730 -0.3178
15375TIP3    H267541   4.580   6.104   0.870  0.8789  0.9268 -0.3857
15376TIP3   OH267542   1.170   5.344   4.214 -0.4567 -0.2001 -0.5108
15376TIP3    H167543   1.250   5.386   4.179 -0.1159 -0.0671  0.4275
15376TIP3    H267544   1.103   5.362   4.147  0.0131  0.7036 -0.7487
15377TIP3   OH267545   4.456   6.056   1.598  0.5706  0.3570 -0.0799
15377TIP3    H167546   4.532   6.091   1.645 -0.1109  0.8191  0.7134
15377TIP3    H267547   4.439   5.972   1.639  0.8893  0.0812 -0.5158
15378TIP3   OH267548   2.756   6.126   2.865 -0.6191 -0.1540 -0.8450
15378TIP3    H167549   2.767   6.042   2.818  0.7605  1.1516 -2.9436
15378TIP3    H267550   2.844   6.162   2.870 -1.3548  1.6907 -0.9598
15379TIP3   OH267551   0.645   6.888   1.585  0.3554  0.1446 -0.0495
15379TIP3    H167552   0.727   6.850   1.552  0.7892  0.0836  1.0509
15379TIP3    H267553   0.659   6.895   1.680 -0.9522  0.0417  0.1604
15380TIP3   OH267554   0.503   3.702   4.546  0.6954  0.1295  0.4022
15380TIP3    H167555   0.578   3.657   4.506 -0.3658 -2.1954  0.9097
15380TIP3    H267556   0.540   3.746   4.622  1.5035 -1.4737  0.9777
15381TIP3   OH267557   5.319   6.930   1.674  0.0711 -0.0715 -0.5037
15381TIP3    H167558   5.260   6.993   1.716  0.6082  0.7131 -0.9202
15381TIP3    H267559   5.360   6.883   1.746  0.2905  0.6289 -0.1711
15382TIP3   OH267560   4.302   4.951   4.109 -0.4044 -0.0871 -0.2214
15382TIP3    H167561   4.336   4.899   4.037  0.5642  0.3695 -0.1120
15382TIP3    H267562   4.321   5.041   4.084  1.1040  0.0095  1.1602
15383TIP3   OH267563   1.331   6.618   3.330  0.4367  0.1741 -0.4628
15383TIP3    H167564   1.239   6.594   3.338  0.7897 -1.1964 -0.4000
15383TIP3    H267565   1.346   6.681   3.400 -0.0194 -0.9211  0.6324
15384TIP3   OH267566   3.612   4.498   3.227  0.1446 -0.2819 -0.1159
15384TIP3    H167567   3.565   4.427   3.271  0.7412 -0.4303  0.2752
15384TIP3    H267568   3.703   4.469   3.225  0.2529  0.0992 -0.7058
15385TIP3   OH267569   4.264   3.968   2.001  0.6500  0.7197  0.4908
15385TIP3    H167570   4.174   3.978   1.970  0.6940 -0.1431  0.0511
15385TIP3    H267571   4.316   3.955   1.921  1.2180  1.5511  0.7153
15386TIP3   OH267572   2.525   3.423   5.600 -0.2588  0.5655  0.0317
15386TIP3    H167573   2.487   3.497   5.553 -2.4643 -0.2124  0.5245
15386TIP3    H267574   2.499   3.435   5.691 -1.4859 -1.2931 -0.0308
15387TIP3   OH267575   3.538   5.015   1.823 -0.5765 -0.3327 -0.2962
15387TIP3    H167576   3.494   5.093   1.855  0.5205  1.1708 -2.3367
15387TIP3    H267577   3.486   4.942   1.857 -1.8346  1.2789  1.3066
15388TIP3   OH267578   0.061   6.025   1.329 -0.1617  0.3764 -0.1125
15388TIP3    H167579   0.065   6.087   1.256 -0.2312 -0.4566 -0.8362
15388TIP3    H267580   0.071   6.078   1.407  0.5953  1.1955 -0.7690
15389TIP3   OH267581   2.336   5.579   3.455 -0.5077 -0.1276  0.3158
15389TIP3    H167582   2.334   5.486   3.432 -0.4026 -0.6057  2.1358
15389TIP3    H267583   2.272   5.587   3.525  1.2614  0.6813  1.8808
15390TIP3   OH267584   2.029   4.134   2.938 -0.3899 -0.3085 -0.3783
15390TIP3    H167585   1.957   4.071   2.936 -1.0511  0.4351 -0.2441
15390TIP3    H267586   1.987   4.219   2.928  0.4592  0.1497 -0.1365
15391TIP3   OH267587   1.440   2.084   3.640  0.0622  0.0511  0.1194
15391TIP3    H167588   1.527   2.086   3.599  0.1162 -1.0186  0.1670
15391TIP3    H267589   1.458   2.090   3.734  0.0659  0.1691  0.1111
15392TIP3   OH267590   2.304   5.370   3.775  0.3666  0.3632 -0.2441
15392TIP3    H167591   2.246   5.295   3.790  0.5367  0.6696  2.2428
15392TIP3    H267592   2.391   5.331   3.765  0.1252  0.0806 -1.2707
15393TIP3   OH267593   4.599   6.007   4.476  0.1919 -0.3139 -0.1608
15393TIP3    H167594   4.664   6.075   4.458  0.7594 -0.9834 -0.5968
15393TIP3    H267595   4.532   6.053   4.527  1.3040  0.2264  0.8463
15394TIP3   OH267596   4.552   6.881   2.383 -0.7040 -0.1737 -0.2534
15394TIP3    H167597   4.526   6.971   2.365 -0.7535 -0.6346 -2.7348
15394TIP3    H267598   4.631   6.867   2.330 -0.3036 -1.3634  0.6305
15395TIP3   OH267599   1.472   3.834  15.958  0.0429  0.4844 -0.0048
15395TIP3    H167600   1.504   3.860  16.045 -0.8160 -0.2703  0.5456
15395TIP3    H267601   1.399   3.894  15.941  0.3646  0.7902 -0.3149
15396TIP3   OH267602   3.044   2.651   4.054  0.4117 -0.2653 -0.8302
15396TIP3    H167603   3.008   2.738   4.072  1.1174 -0.2130  0.4437
15396TIP3    H267604   3.031   2.603   4.136 -0.2304 -1.4552 -1.6241
15397TIP3   OH267605   3.255   3.075   4.151 -0.4333  0.6861  0.1649
15397TIP3    H167606   3.350   3.078   4.158 -0.4021  0.0786 -0.0122
15397TIP3    H267607   3.224   3.106   4.236 -0.0749  0.2970  0.4413
15398TIP3   OH267608   4.279   4.087   2.863  0.4474  0.1845  0.7219
15398TIP3    H167609   4.257   4.064   2.773  0.0983 -1.4489  1.2197
15398TIP3    H267610   4.212   4.151   2.888  0.8007  0.9739 -0.3036
15399TIP3   OH267611   4.007   4.919   3.357 -0.8338  0.0814 -0.3477
15399TIP3    H167612   4.047   4.965   3.283 -2.8346 -0.0752 -1.5451
15399TIP3    H267613   3.920   4.895   3.327 -1.2817 -0.9747  1.6827
15400TIP3   OH267614   4.956   1.975   4.222  0.1010 -0.2100  0.0680
15400TIP3    H167615   4.906   1.968   4.141 -1.5910  1.1807  0.9580
15400TIP3    H267616   4.952   1.888   4.260  0.4866 -0.7451 -1.0997
15401TIP3   OH267617   1.970   4.316   1.461  0.1405 -0.4390  0.1391
15401TIP3    H167618   1.892   4.368   1.445  0.3442 -0.9268 -2.6101
15401TIP3    H267619   1.950   4.267   1.541 -1.6403  0.7804  0.4624
15402TIP3   OH267620   1.763   6.236   1.313  0.0493 -0.7717 -0.3724
15402TIP3    H167621   1.776   6.304   1.247 -0.5670  0.0933  0.3865
15402TIP3    H267622   1.714   6.279   1.383  1.0772 -1.5524  0.8581
15403TIP3   OH267623   6.575   2.616   2.459  0.6474  0.4544  0.0375
15403TIP3    H167624   6.601   2.701   2.423  0.1618  1.1583  1.3260
15403TIP3    H267625   6.480   2.613   2.446  0.8187 -0.4409 -1.1333
15404TIP3   OH267626   3.938   3.757   2.770  0.1491  0.1242 -0.7312
15404TIP3    H167627   3.851   3.789   2.795  0.5510  0.1192  0.7278
15404TIP3    H267628   3.980   3.832   2.729  0.3631  0.9131  0.8613
15405TIP3   OH267629   2.432   4.309   4.260  0.3540 -0.0775 -0.1357
15405TIP3    H167630   2.493   4.245   4.223  0.5185 -0.2152  0.3730
15405TIP3    H267631   2.470   4.333   4.344 -0.1503  0.0510  0.0589
15406TIP3   OH267632   1.092   0.846   1.707 -0.5545 -0.2474 -0.4375
15406TIP3    H167633   1.111   0.785   1.778 -0.3858  2.6065  2.0347
15406TIP3    H267634   1.174   0.894   1.693 -1.1035  0.4785 -1.3135
15407TIP3   OH267635   0.328   4.556   5.677 -0.2782  0.0726  0.0063
15407TIP3    H167636   0.298   4.466   5.689  0.0357 -0.0730 -0.2762
15407TIP3    H267637   0.353   4.585   5.765 -2.5739  0.6902  0.4953
15408TIP3   OH267638   1.732   2.787   5.374 -0.2289 -0.1599 -0.4245
15408TIP3    H167639   1.769   2.791   5.462 -1.5561 -1.0593  0.1889
15408TIP3    H267640   1.740   2.876   5.341 -0.0941  0.2813  0.7611
15409TIP3   OH267641   2.399   6.166  13.575 -0.5613  0.5471  0.2614
15409TIP3    H167642   2.440   6.253  13.576  2.4267 -0.7886  1.4070
15409TIP3    H267643   2.360   6.159  13.488 -0.5154  2.8797  0.0230
15410TIP3   OH267644   3.644   4.364   4.581 -0.1798 -0.3022 -0.0132
15410TIP3    H167645   3.585   4.400   4.514  0.8330  1.0825 -0.1938
15410TIP3    H267646   3.608   4.278   4.601 -1.0126 -0.3714 -1.7034
15411TIP3   OH267647   4.123   6.223  15.304 -0.1006  0.2678  0.6899
15411TIP3    H167648   4.162   6.302  15.268  0.8576 -0.0331  1.0396
15411TIP3    H267649   4.047   6.253  15.353  0.5552  1.0205  1.2466
15412TIP3   OH267650   2.864   4.342   4.409  0.0415 -0.0458  0.2643
15412TIP3    H167651   2.780   4.301   4.427 -0.5616  0.0985 -2.0841
15412TIP3    H267652   2.842   4.429   4.375  1.0887 -0.4697 -1.5497
15413TIP3   OH267653   4.180   6.183  14.998 -0.2378  0.0348 -0.1640
15413TIP3    H167654   4.098   6.212  14.958  0.5853  1.1108 -1.1225
15413TIP3    H267655   4.206   6.255  15.055 -1.4048 -1.4930  2.3741
15414TIP3   OH267656   3.506   4.217   5.539  0.5042 -0.5950 -0.5246
15414TIP3    H167657   3.424   4.169   5.553  0.6923 -1.4523 -2.2579
15414TIP3    H267658   3.478   4.303   5.507  0.2248 -0.0750  1.0624
15415TIP3   OH267659   4.185   6.429   0.941 -0.2836  0.2704  0.0332
15415TIP3    H167660   4.196   6.372   1.016 -2.1197  1.1803  1.0311
15415TIP3    H267661   4.115   6.389   0.890  1.4401 -0.7338 -1.5954
15416TIP3   OH267662   5.838   2.936   4.725 -0.3594 -1.4771 -0.3595
15416TIP3    H167663   5.866   2.879   4.796 -1.1838 -1.1676  0.2105
15416TIP3    H267664   5.744   2.945   4.736 -0.2650 -0.1181 -0.5281
15417TIP3   OH267665   6.333   2.410   4.746 -0.2172  0.0861  0.0785
15417TIP3    H167666   6.419   2.402   4.704  0.2518 -2.6497  1.4412
15417TIP3    H267667   6.333   2.498   4.784  2.2529 -0.0911  0.5642
15418TIP3   OH267668   5.157   1.495   2.911  0.1412 -0.1478 -0.0032
15418TIP3    H167669   5.137   1.405   2.885  0.4729 -0.5122  0.9715
15418TIP3    H267670   5.252   1.499   2.912  0.2240  1.6603 -4.8588
15419TIP3   OH267671   3.276   5.218   1.015 -0.3435  0.0010 -0.8223
15419TIP3    H167672   3.275   5.128   1.049  0.3065  0.7782  1.3506
15419TIP3    H267673   3.369   5.238   1.006 -0.4994  0.2324 -1.9632
15420TIP3   OH267674   1.610   4.199   2.834  0.4836 -0.2957  0.2071
15420TIP3    H167675   1.689   4.151   2.812  0.9601  0.8112 -0.5766
15420TIP3    H267676   1.580   4.161   2.917  1.6607 -0.9197  0.3497
15421TIP3   OH267677   6.761   5.041   2.121 -0.3711 -0.0248 -0.0096
15421TIP3    H167678   6.806   4.985   2.058 -0.4208  1.4632 -1.4006
15421TIP3    H267679   6.692   4.986   2.157  0.8979 -1.5048  0.2183
15422TIP3   OH267680   3.196   4.505   1.020  0.5439 -0.0841  0.1076
15422TIP3    H167681   3.110   4.539   0.996  0.6485  0.6912  0.7998
15422TIP3    H267682   3.252   4.526   0.946  0.1575 -0.5300 -0.3175
15423TIP3   OH267683   5.038   4.199   5.045 -0.1751  0.3303 -0.4195
15423TIP3    H167684   5.068   4.225   5.132  1.9380  0.1808 -1.0942
15423TIP3    H267685   4.943   4.194   5.054 -0.3193  3.9673  0.8884
15424TIP3   OH267686   2.237   3.208   2.463 -0.4961  0.1031 -0.8063
15424TIP3    H167687   2.198   3.295   2.463  1.7570  1.1496 -0.3618
15424TIP3    H267688   2.170   3.152   2.424 -3.8913  1.1105  3.1730
15425TIP3   OH267689   2.690   6.695   2.327 -0.4439  0.3232 -0.4581
15425TIP3    H167690   2.686   6.600   2.341  1.1242  0.3538  0.3152
15425TIP3    H267691   2.774   6.709   2.283 -0.3794  1.4093  0.0032
15426TIP3   OH267692   5.680   5.083   5.438  0.4133 -0.4763 -0.0630
15426TIP3    H167693   5.755   5.125   5.396  0.2257  0.7102  0.7653
15426TIP3    H267694   5.609   5.147   5.430 -0.8761 -2.0754 -1.9287
15427TIP3   OH267695   1.806   4.058   3.686  0.0626  0.2627  0.1373
15427TIP3    H167696   1.809   4.099   3.772  1.5143  1.0412 -0.2665
15427TIP3    H267697   1.782   4.129   3.627 -0.7560 -0.2304 -0.1281
15428TIP3   OH267698   1.840   5.469   4.449 -0.2853 -0.5093  0.3864
15428TIP3    H167699   1.924   5.448   4.408  0.0617  1.2697  0.1252
15428TIP3    H267700   1.781   5.400   4.421  0.5786 -0.6663 -1.0995
15429TIP3   OH267701   1.992   4.848   4.787  0.0039 -0.1309 -0.5945
15429TIP3    H167702   2.031   4.816   4.868 -0.4128 -0.1652 -0.4091
15429TIP3    H267703   2.007   4.777   4.724 -1.3998 -0.9360 -0.0460
15430TIP3   OH267704   2.413   4.722   3.370 -0.2581  0.8399 -0.3219
15430TIP3    H167705   2.386   4.813   3.355 -0.4533  0.7062 -0.7721
15430TIP3    H267706   2.508   4.725   3.367 -0.2140  1.2795  1.0903
15431TIP3   OH267707   2.695   3.751   3.826  0.5544  0.3234 -0.3948
15431TIP3    H167708   2.602   3.773   3.833  1.0784  2.2682  0.7851
15431TIP3    H267709   2.699   3.684   3.758 -1.4922  1.5565 -1.7563
15432TIP3   OH267710   4.282   1.617   4.015 -0.1155  0.3516  0.2779
15432TIP3    H167711   4.273   1.586   3.925  1.8634 -0.4323  0.3450
15432TIP3    H267712   4.371   1.593   4.041 -1.6554 -2.2757  3.5243
15433TIP3   OH267713   2.473   2.824   3.717 -0.3335 -0.3618  0.3634
15433TIP3    H167714   2.527   2.847   3.641 -0.1410  0.5351  0.7622
15433TIP3    H267715   2.521   2.860   3.792  0.0987 -2.2967  1.0359
15434TIP3   OH267716   3.757   3.891   2.405  0.8090  0.5045  0.2449
15434TIP3    H167717   3.842   3.850   2.423  0.8182  0.1041 -0.6730
15434TIP3    H267718   3.756   3.969   2.459  1.0696 -0.3589  1.5302
15435TIP3   OH267719   2.366   1.459   3.377  0.0019 -0.0057  0.6850
15435TIP3    H167720   2.450   1.423   3.405 -0.3295 -1.3676 -0.0539
15435TIP3    H267721   2.365   1.446   3.282 -1.8374 -1.7001  0.9147
15436TIP3   OH267722   3.218   6.085   0.115  0.2390 -0.3026  0.4325
15436TIP3    H167723   3.193   5.993   0.126 -0.3331 -0.0776  1.0158
15436TIP3    H267724   3.153   6.121   0.055 -0.9070  0.3108  2.0373
15437TIP3   OH267725   3.125   4.633   2.822  0.4466  0.2453 -0.4630
15437TIP3    H167726   3.051   4.682   2.858 -0.8138 -0.3694 -2.1203
15437TIP3    H267727   3.090   4.594   2.742  2.1758 -1.1993 -0.5400
15438TIP3   OH267728   2.549   6.457   1.980 -0.0667  0.7804  0.4868
15438TIP3    H167729   2.571   6.482   1.890 -0.3350  0.3039  0.2863
15438TIP3    H267730   2.513   6.369   1.972 -0.9673  1.1014  0.9546
15439TIP3   OH267731   0.445   4.928   3.538  0.0029  0.0905  0.3068
15439TIP3    H167732   0.463   5.018   3.511 -0.0067  0.5488  1.7549
15439TIP3    H267733   0.372   4.900   3.483 -0.7770  1.3852  0.6642
15440TIP3   OH267734   3.195   5.326   3.973 -0.2133  0.0506 -0.4872
15440TIP3    H167735   3.285   5.357   3.986 -1.0572  2.8888 -0.9176
15440TIP3    H267736   3.201   5.231   3.975  2.8452  0.1941 -0.8582
15441TIP3   OH267737   6.012   4.889   2.600  0.4002 -0.4319 -0.2677
15441TIP3    H167738   5.972   4.830   2.664 -1.5782  3.2961  2.1098
15441TIP3    H267739   6.101   4.904   2.634  0.0158 -0.0071  0.5634
15442TIP3   OH267740   6.443   4.574   2.944 -0.7421  0.0424 -0.1775
15442TIP3    H167741   6.453   4.526   3.026 -0.8286  0.3842  0.0319
15442TIP3    H267742   6.355   4.610   2.948 -0.1559  1.4617  0.3267
15443TIP3   OH267743   2.959   4.077   4.539 -0.0205 -0.2346 -0.3631
15443TIP3    H167744   3.028   4.137   4.511  0.0274 -0.9315 -1.7694
15443TIP3    H267745   2.906   4.062   4.461 -1.1509 -0.5243  0.4506
15444TIP3   OH267746   3.884   6.054   2.501  0.1215  0.5909  0.1974
15444TIP3    H167747   3.917   5.991   2.565  1.5096 -0.0400 -1.1075
15444TIP3    H267748   3.920   6.138   2.529  1.6861  0.1283 -0.4167
15445TIP3   OH267749   4.236   5.834   5.726 -0.0133 -0.4538 -0.1291
15445TIP3    H167750   4.241   5.804   5.816  0.4348 -1.2535 -0.4168
15445TIP3    H267751   4.252   5.928   5.731 -0.4147 -0.4240  0.6651
15446TIP3   OH267752   4.600   1.250   0.707 -0.0790  0.0530 -0.3366
15446TIP3    H167753   4.573   1.179   0.648 -1.9098 -1.0862  1.7856
15446TIP3    H267754   4.690   1.230   0.730 -0.3855 -1.2646 -0.2642
15447TIP3   OH267755   6.188   3.459   2.948  0.0184 -0.2090  0.4836
15447TIP3    H167756   6.215   3.551   2.950 -0.7232 -0.0043  1.8456
15447TIP3    H267757   6.207   3.430   2.859 -0.9470  1.6117 -0.3338
15448TIP3   OH267758   3.915   0.511   0.349  0.0932  0.0497 -0.2787
15448TIP3    H167759   3.856   0.587   0.350 -0.2894 -0.2391 -1.2755
15448TIP3    H267760   3.896   0.466   0.431 -0.9709  0.0424 -0.5191
15449TIP3   OH267761   0.641   6.071   5.072 -0.0813  0.1845 -0.5616
15449TIP3    H167762   0.599   6.140   5.124  0.0227 -0.5548  0.5160
15449TIP3    H267763   0.620   5.990   5.118  1.3828 -0.3244 -0.7714
15450TIP3   OH267764   2.950   3.431   3.638  0.0088 -0.0333  0.0499
15450TIP3    H167765   2.990   3.444   3.724 -0.8846  1.0609  0.3163
15450TIP3    H267766   2.970   3.340   3.616  0.0603 -0.4001  1.5257
15451TIP3   OH267767   1.745   4.162   5.065 -0.0871  0.1218 -0.3388
15451TIP3    H167768   1.682   4.092   5.048 -1.7843  1.8292 -1.2132
15451TIP3    H267769   1.695   4.228   5.112  0.7879  1.9332 -1.9171
15452TIP3   OH267770   3.528   0.668   4.364  0.2344  0.4204  0.2360
15452TIP3    H167771   3.579   0.699   4.289 -1.3504  0.9698 -0.6484
15452TIP3    H267772   3.511   0.747   4.415  3.7216 -0.3641  2.7357
15453TIP3   OH267773   3.744   5.063   1.644 -0.0695  0.7268 -0.2147
15453TIP3    H167774   3.676   5.016   1.692  1.1772  0.2907  1.1744
15453TIP3    H267775   3.811   4.997   1.627  0.6874  1.4932 -0.2282
15454TIP3   OH267776   2.754   5.262   2.545  0.4082  0.2398 -0.2417
15454TIP3    H167777   2.679   5.203   2.542 -0.9748  1.9940 -1.9077
15454TIP3    H267778   2.776   5.269   2.638 -1.9546  0.2404  0.3435
15455TIP3   OH267779   5.307   5.279   4.598  0.0732  0.6331 -0.0329
15455TIP3    H167780   5.372   5.223   4.640 -2.4966 -2.0629  0.4881
15455TIP3    H267781   5.287   5.346   4.664 -1.2055 -1.3973  1.6959
15456TIP3   OH267782   4.553   2.466   4.743  0.7408 -0.0997  0.2325
15456TIP3    H167783   4.502   2.547   4.741  1.2790  0.2283 -0.4624
15456TIP3    H267784   4.521   2.420   4.821  0.9320  1.1131  1.0594
15457TIP3   OH267785   1.605   3.755   2.944 -0.1696  0.0135  0.1002
15457TIP3    H167786   1.637   3.682   2.996  2.3755  0.7431 -0.3602
15457TIP3    H267787   1.536   3.718   2.889 -0.0647 -1.6545  1.0782
15458TIP3   OH267788   6.720   5.317   3.294  0.0427  0.3758  0.1380
15458TIP3    H167789   6.692   5.355   3.377  0.2258  0.4660  0.1587
15458TIP3    H267790   6.688   5.379   3.228 -0.0858  0.3139  0.1411
15459TIP3   OH267791   4.127   5.492   2.046  0.0350 -1.0066 -0.1730
15459TIP3    H167792   4.099   5.578   2.076 -0.2907 -1.7321  1.6980
15459TIP3    H267793   4.086   5.482   1.960 -2.0374 -0.3246  0.7084
15460TIP3   OH267794   2.586   2.626   1.217  0.4401  0.2783  0.1897
15460TIP3    H167795   2.654   2.676   1.171  0.4212 -0.0521 -0.2015
15460TIP3    H267796   2.563   2.556   1.156  2.1147 -1.6156  1.6509
15461TIP3   OH267797   0.061   4.315   4.026  0.1320 -0.0038  0.7485
15461TIP3    H167798   0.067   4.407   4.054 -1.0597  0.8764 -1.7091
15461TIP3    H267799   0.141   4.274   4.060  0.9205  2.0558  1.4672
15462TIP3   OH267800   3.051   3.289   4.052  0.2568 -0.0302  0.8945
15462TIP3    H167801   3.066   3.254   4.140 -1.7315 -0.2782  1.1491
15462TIP3    H267802   2.991   3.226   4.011  1.3887 -0.0839 -0.7664
15463TIP3   OH267803   2.310   5.304   3.378 -0.1618 -0.0005 -0.4113
15463TIP3    H167804   2.219   5.276   3.374 -0.1179 -0.1475 -0.3870
15463TIP3    H267805   2.360   5.224   3.394  0.1004 -0.1330 -1.8263
15464TIP3   OH267806   0.729   2.559   2.740 -0.5351 -0.1600  0.2973
15464TIP3    H167807   0.754   2.650   2.724  1.2821 -0.8958 -1.1375
15464TIP3    H267808   0.723   2.520   2.653 -2.6303 -1.0887  0.8263
15465TIP3   OH267809   3.892   4.388   3.213 -0.4857  0.8696 -0.2907
15465TIP3    H167810   3.930   4.335   3.284  0.0626 -0.8542 -1.8313
15465TIP3    H267811   3.951   4.463   3.205 -0.5177  1.0483  1.0162
15466TIP3   OH267812   6.366   2.953   5.073 -0.1627 -0.6305 -0.0995
15466TIP3    H167813   6.448   2.917   5.109 -1.4195 -2.8857  0.6435
15466TIP3    H267814   6.299   2.929   5.137 -1.5250  0.5856 -1.0342
15467TIP3   OH267815   3.212   5.616   4.083 -0.3633  0.0697 -0.5280
15467TIP3    H167816   3.197   5.541   4.025  1.9544 -1.1773  0.4130
15467TIP3    H267817   3.231   5.577   4.168 -1.5773  1.8264  0.5647
15468TIP3   OH267818   2.126   3.148   4.196  0.2285  0.8075 -0.3220
15468TIP3    H167819   2.045   3.108   4.165  1.0640 -1.3307  0.1463
15468TIP3    H267820   2.192   3.124   4.131  0.8863  0.8200  0.3238
15469TIP3   OH267821   2.275   5.868   4.091  0.0282  0.0347 -0.2141
15469TIP3    H167822   2.232   5.850   4.008  0.2774 -0.0392 -0.3292
15469TIP3    H267823   2.332   5.943   4.073 -2.4901  2.2467  0.7674
15470TIP3   OH267824   2.973   5.692   4.250 -0.2902 -0.4910  0.4900
15470TIP3    H167825   3.029   5.671   4.175  0.4195  0.8702  0.6201
15470TIP3    H267826   3.003   5.632   4.319  0.2068 -0.5947  0.1927
15471TIP3   OH267827   3.635   4.118   5.311  0.2191 -0.1600 -0.4032
15471TIP3    H167828   3.603   4.048   5.254  0.0497  1.3742 -2.2787
15471TIP3    H267829   3.562   4.136   5.370  0.6342 -2.2399  0.7840
15472TIP3   OH267830   1.811   5.997   4.056  0.0689 -0.2493  0.5935
15472TIP3    H167831   1.803   6.001   3.961 -1.0782 -1.1164  0.6336
15472TIP3    H267832   1.897   6.034   4.075 -0.6094  2.0913 -0.6081
15473TIP3   OH267833   3.569   6.363   2.430 -0.6508 -0.2912  0.0813
15473TIP3    H167834   3.608   6.448   2.449  2.4259 -1.9743  1.6098
15473TIP3    H267835   3.494   6.357   2.490 -1.8090  1.9414 -1.1097
15474TIP3   OH267836   2.188   6.527   3.544 -0.2256  0.7604 -0.0430
15474TIP3    H167837   2.222   6.585   3.613 -0.2827 -0.0385  0.6549
15474TIP3    H267838   2.149   6.587   3.480  0.1239  1.5259  0.4563
15475TIP3   OH267839   3.084   6.224   4.694  0.7115  0.0678 -0.6507
15475TIP3    H167840   3.028   6.171   4.751 -0.2562 -0.1621 -1.8004
15475TIP3    H267841   3.078   6.313   4.730  1.9700 -0.4825  0.9992
15476TIP3   OH267842   2.985   6.304   3.946 -0.3368 -0.3587  0.3396
15476TIP3    H167843   2.985   6.268   3.858  0.6397  1.0277 -0.2397
15476TIP3    H267844   3.076   6.298   3.975 -0.4249  0.3023  0.7750
15477TIP3   OH267845   2.246   5.676   1.853 -0.1618 -0.2809 -0.2503
15477TIP3    H167846   2.181   5.710   1.915 -0.1887 -0.7633 -0.0162
15477TIP3    H267847   2.293   5.754   1.823 -2.7743  0.4444 -2.6255
15478TIP3   OH267848   1.488   6.609   5.181  0.4911  0.4008  1.0468
15478TIP3    H167849   1.525   6.698   5.182  0.3978  0.4741 -0.3322
15478TIP3    H267850   1.527   6.565   5.256  1.4338  1.2562  1.0619
15479TIP3   OH267851   2.482   5.073   3.401 -0.4169  0.3721 -0.0384
15479TIP3    H167852   2.552   5.136   3.384  1.3602 -1.3846  0.6027
15479TIP3    H267853   2.495   5.047   3.492 -1.3791 -0.5943 -0.1683
15480TIP3   OH267854   3.697   3.369   4.569 -0.1386 -0.0555 -0.3342
15480TIP3    H167855   3.707   3.462   4.548  1.0037  0.4224  2.1304
15480TIP3    H267856   3.646   3.369   4.650 -0.7044 -1.6396 -0.6713
15481TIP3   OH267857   2.264   3.945   3.628  0.3937  0.0503  0.0522
15481TIP3    H167858   2.327   3.902   3.569  0.0806 -0.9629  0.4520
15481TIP3    H267859   2.293   3.921   3.716 -0.2859 -0.0409  0.2538
15482TIP3   OH267860   7.217   3.168   2.667  0.5626 -0.0509  0.3485
15482TIP3    H167861   7.155   3.134   2.732  2.5301 -3.7840  0.4538
15482TIP3    H267862   7.300   3.171   2.714  1.2468  0.9801 -0.9289
15483TIP3   OH267863   2.959   5.677   1.513  0.3587 -0.4653  0.1274
15483TIP3    H167864   2.944   5.653   1.604  1.3173 -1.6392 -0.0037
15483TIP3    H267865   2.991   5.767   1.516 -1.8393  0.3414  0.7537
15484TIP3   OH267866   2.784   2.608   0.706  0.2903  0.2364 -0.2418
15484TIP3    H167867   2.822   2.681   0.754 -1.0976  0.6384  0.2704
15484TIP3    H267868   2.693   2.634   0.690  0.3844 -0.4481 -1.9714
15485TIP3   OH267869   1.523   1.907   2.104  0.2000 -0.4699 -0.5393
15485TIP3    H167870   1.522   1.927   2.197  0.0459 -3.2667  0.1055
15485TIP3    H267871   1.502   1.990   2.061 -0.4891  0.6730  1.9341
15486TIP3   OH267872   4.700   6.049   2.767 -0.3048  0.7167  0.1334
15486TIP3    H167873   4.672   6.034   2.676 -0.2617  0.5182  0.1526
15486TIP3    H267874   4.787   6.090   2.759  0.9780 -1.9199  0.1153
15487TIP3   OH267875   3.313   0.513   3.515  0.0796  0.3362 -0.3699
15487TIP3    H167876   3.274   0.550   3.594 -0.3837  1.2340 -1.0077
15487TIP3    H267877   3.403   0.490   3.540 -0.9514 -2.1779  1.2444
15488TIP3   OH267878   3.892   4.995   2.345 -0.3986  0.0615  0.1599
15488TIP3    H167879   3.955   4.992   2.418 -1.7663 -0.4017  1.3423
15488TIP3    H267880   3.825   4.931   2.370 -0.4658 -0.6929 -1.9097
15489TIP3   OH267881   4.119   2.836   1.987 -0.3221  0.2251 -0.4382
15489TIP3    H167882   4.203   2.861   2.025 -0.0428  1.4212 -1.7853
15489TIP3    H267883   4.056   2.896   2.025 -0.6803 -1.0008  0.9634
15490TIP3   OH267884   4.063   4.248   2.955 -0.3602  0.6377  0.5854
15490TIP3    H167885   4.023   4.190   3.020 -2.3816  2.9390  1.4186
15490TIP3    H267886   3.991   4.298   2.918  1.1076  1.2594 -1.5697
15491TIP3   OH267887   3.580   5.004  15.794 -0.0992  0.2993  0.0446
15491TIP3    H167888   3.616   5.033  15.710  0.7393  0.8279  0.5851
15491TIP3    H267889   3.638   5.042  15.860 -0.5431 -0.4071  0.8543
15492TIP3   OH267890   3.043   4.991   3.071  0.0012  0.2596 -0.1563
15492TIP3    H167891   3.011   4.903   3.053  0.5365  0.5001 -2.4235
15492TIP3    H267892   3.138   4.982   3.074  0.1326  0.9591 -1.6848
15493TIP3   OH267893   2.289   2.654   4.812  0.0688  0.0680 -0.0180
15493TIP3    H167894   2.267   2.589   4.879 -0.3780  2.1362  1.8555
15493TIP3    H267895   2.287   2.738   4.857 -2.6918  1.7929 -3.1356
15494TIP3   OH267896   2.920   2.405   5.002 -0.1738  0.5323 -0.1030
15494TIP3    H167897   2.991   2.468   5.014  1.8670 -1.8117  0.4735
15494TIP3    H267898   2.842   2.459   4.989  1.4895  3.1605  0.4926
15495TIP3   OH267899   1.377   3.009   3.215  0.0143  0.3358 -0.2069
15495TIP3    H167900   1.464   2.995   3.253  0.3448  0.2072 -1.0190
15495TIP3    H267901   1.393   3.032   3.124 -0.7546  1.3790 -0.0881
15496TIP3   OH267902   1.723   3.630   4.059 -0.9794 -0.6289  0.1463
15496TIP3    H167903   1.789   3.576   4.103 -0.9058 -0.4610  0.2440
15496TIP3    H267904   1.640   3.587   4.078 -0.7628 -1.6284 -1.1626
15497TIP3   OH267905   3.314   4.831   0.798 -0.1776 -0.9745 -0.0762
15497TIP3    H167906   3.407   4.855   0.804  0.5592 -3.9600  1.4081
15497TIP3    H267907   3.284   4.827   0.889 -2.2520  1.5052 -0.5814
15498TIP3   OH267908   3.299   4.134   1.725 -0.0674 -0.1846  0.5967
15498TIP3    H167909   3.309   4.229   1.726  0.1764 -0.1973 -0.2334
15498TIP3    H267910   3.368   4.102   1.783 -1.0352  0.2117  1.9934
15499TIP3   OH267911   4.570   5.296  15.504  0.6895  0.4230 -0.2105
15499TIP3    H167912   4.579   5.345  15.585 -0.7472 -0.7258  0.6810
15499TIP3    H267913   4.629   5.221  15.514 -0.6916 -0.5982  0.4962
15500TIP3   OH267914   5.459   5.898   3.152 -0.0035 -0.0457  0.2780
15500TIP3    H167915   5.508   5.939   3.224 -0.7152  1.1829  0.0751
15500TIP3    H267916   5.521   5.895   3.079  0.8926 -1.7753  1.0681
15501TIP3   OH267917   5.505   5.604   2.743 -0.2074  0.2277 -0.1120
15501TIP3    H167918   5.457   5.528   2.710  0.7580  0.6022 -2.5051
15501TIP3    H267919   5.588   5.569   2.775 -0.9663 -0.0803  1.5618
15502TIP3   OH267920   2.709   5.934   2.045  0.1529 -0.2856  0.5943
15502TIP3    H167921   2.716   5.983   2.127 -0.7908 -0.9321  1.0659
15502TIP3    H267922   2.621   5.953   2.013  0.2867 -0.5583  0.0620
15503TIP3   OH267923   3.533   3.382   2.046  0.1526  0.2535 -0.5550
15503TIP3    H167924   3.443   3.400   2.073  0.2448  0.9830 -0.7034
15503TIP3    H267925   3.565   3.317   2.108 -0.7785 -0.6926 -1.0588
15504TIP3   OH267926   4.591   4.183   1.825 -0.0774  0.4072 -0.5112
15504TIP3    H167927   4.630   4.095   1.831 -0.2434  0.1677 -2.6789
15504TIP3    H267928   4.573   4.207   1.916  0.8955 -1.3898  0.1817
15505TIP3   OH267929   4.550   0.318   2.136 -0.0465 -0.1916 -0.5154
15505TIP3    H167930   4.642   0.293   2.133  0.3509  0.8931  1.8998
15505TIP3    H267931   4.550   0.407   2.171 -1.9113  0.5675 -2.2910
15506TIP3   OH267932   4.200   4.449   3.756  0.2189 -0.4254  0.0467
15506TIP3    H167933   4.195   4.504   3.678 -1.3428  0.2503  0.6103
15506TIP3    H267934   4.185   4.360   3.723 -1.1348 -0.0643 -0.3438
15507TIP3   OH267935   4.839   0.247   1.860 -0.6025 -0.6161 -0.1637
15507TIP3    H167936   4.911   0.269   1.801 -0.7031  2.8929  0.8572
15507TIP3    H267937   4.761   0.250   1.805 -0.3535 -0.5658 -0.5167
15508TIP3   OH267938   7.015   6.291   3.475  0.3651 -0.4915  0.3191
15508TIP3    H167939   7.076   6.311   3.546  0.1828  0.2337  0.2756
15508TIP3    H267940   7.052   6.214   3.433  1.1429 -0.1773  0.4246
15509TIP3   OH267941   5.691   4.105   2.236  0.2642 -0.2177  0.1629
15509TIP3    H167942   5.760   4.072   2.294 -0.5577 -0.9775  0.7028
15509TIP3    H267943   5.625   4.140   2.295  0.8367  1.8808 -0.3750
15510TIP3   OH267944   3.371   4.767   2.183  0.6483 -0.0787  0.0110
15510TIP3    H167945   3.390   4.676   2.207 -1.0263  0.4491  3.5732
15510TIP3    H267946   3.276   4.770   2.171  0.7206  1.1495 -0.3185
15511TIP3   OH267947   3.703   3.327   3.726 -0.1619 -0.0216 -0.4709
15511TIP3    H167948   3.754   3.295   3.651 -0.1393 -0.4010 -0.2927
15511TIP3    H267949   3.766   3.331   3.798 -0.5392 -1.1356 -0.0792
15512TIP3   OH267950   4.841   3.944   2.388 -0.3195  0.0489 -0.1150
15512TIP3    H167951   4.790   3.938   2.469  0.2005 -0.5469  0.1710
15512TIP3    H267952   4.924   3.901   2.408  0.3581  1.1211 -0.5456
15513TIP3   OH267953   7.061   5.281   2.969 -0.3243 -0.6576 -0.2591
15513TIP3    H167954   7.155   5.295   2.955 -0.2848 -0.9864 -0.3294
15513TIP3    H267955   7.024   5.369   2.975  0.0840 -0.5360  0.4240
15514TIP3   OH267956   5.433   4.471   3.499  0.1956  0.3950 -0.4515
15514TIP3    H167957   5.439   4.381   3.531 -0.7330  0.3866 -0.2752
15514TIP3    H267958   5.478   4.469   3.415  0.1052 -0.2618 -0.4939
15515TIP3   OH267959   4.981   5.514   1.444 -0.6174 -0.6811  0.1661
15515TIP3    H167960   5.006   5.597   1.485 -1.1577 -0.1328 -0.6027
15515TIP3    H267961   4.953   5.459   1.517 -0.8936  0.0426  0.6188
15516TIP3   OH267962   4.935   6.361   3.448  0.6679  0.4955 -0.5516
15516TIP3    H167963   5.022   6.402   3.439  1.3437 -1.2211 -2.0290
15516TIP3    H267964   4.950   6.269   3.427 -1.6476  0.2983 -1.3866
15517TIP3   OH267965   7.093   5.245   3.745 -0.5660 -0.1119 -0.6634
15517TIP3    H167966   7.163   5.302   3.778 -1.0776  0.8506 -1.2459
15517TIP3    H267967   7.085   5.177   3.812  0.0583  0.4841  0.0278
15518TIP3   OH267968   6.795   4.575   2.938  0.2371  0.4569 -0.7035
15518TIP3    H167969   6.722   4.515   2.956  0.2423  0.3719 -0.9575
15518TIP3    H267970   6.872   4.519   2.933  0.2861  0.5194 -0.6559
15519TIP3   OH267971   5.941   2.889   2.639 -0.0368 -0.2284  0.1547
15519TIP3    H167972   5.989   2.862   2.561  0.3197  0.8730 -0.0050
15519TIP3    H267973   5.974   2.832   2.709 -0.6232 -1.4636 -0.5708
15520TIP3   OH267974   2.701   6.261   3.917 -0.1350  0.5731  0.2220
15520TIP3    H167975   2.689   6.233   4.007  0.6254 -1.3341 -0.2403
15520TIP3    H267976   2.793   6.288   3.912  0.3058 -0.9936 -0.3953
15521TIP3   OH267977   5.718   5.971   2.985 -0.0970  0.3521  0.1484
15521TIP3    H167978   5.787   5.934   2.931 -0.1608 -0.6004  0.7048
15521TIP3    H267979   5.725   6.066   2.972  1.0830  0.2416 -0.0625
15522TIP3   OH267980   3.698   4.841   2.773  0.4054  0.4532 -0.4276
15522TIP3    H167981   3.738   4.754   2.761 -0.1710 -0.0456  1.1329
15522TIP3    H267982   3.742   4.897   2.709 -0.2326 -1.3128 -2.4883
15523TIP3   OH267983   4.631   7.294   3.424  0.0096 -0.5544  0.2689
15523TIP3    H167984   4.669   7.222   3.473 -1.0909 -1.5834 -0.3661
15523TIP3    H267985   4.644   7.270   3.332  2.5455  1.6059 -0.0144
15524TIP3   OH267986   5.571   5.123   2.068  0.5962  0.5958 -0.0596
15524TIP3    H167987   5.484   5.085   2.067  0.7948  0.1550 -1.3937
15524TIP3    H267988   5.581   5.163   1.982  1.6606  0.7621  0.1272
15525TIP3   OH267989   6.703   5.289   4.694  1.0361  0.1788 -0.7276
15525TIP3    H167990   6.667   5.218   4.746 -1.3154  2.0652  0.3570
15525TIP3    H267991   6.678   5.268   4.604  0.6610 -0.5476 -0.4594
15526TIP3   OH267992   6.699   5.356   2.821  0.0572 -0.5721 -0.0734
15526TIP3    H167993   6.612   5.395   2.816 -0.4533 -1.5762  0.8434
15526TIP3    H267994   6.683   5.264   2.842  1.3792 -0.5190  1.2243
15527TIP3   OH267995   1.586   3.711   0.367  0.0595  0.0861 -0.4035
15527TIP3    H167996   1.570   3.775   0.437  1.1949  1.1384 -1.0885
15527TIP3    H267997   1.630   3.638   0.411 -2.4918 -0.8702  0.6478
15528TIP3   OH267998   4.633   4.345   2.696 -0.7320  0.0519 -0.3506
15528TIP3    H167999   4.606   4.401   2.623 -3.2796 -2.0675 -1.1025
15528TIP3    H268000   4.580   4.375   2.770 -1.4693 -0.7586 -0.5394
15529TIP3   OH268001   5.173   5.324   5.000  0.5516  0.2838  0.4589
15529TIP3    H168002   5.219   5.374   4.933  1.7038 -1.1358  0.1724
15529TIP3    H268003   5.096   5.378   5.021  0.5153  1.0609 -1.5182
15530TIP3   OH268004   1.135   5.290   2.080  0.6388 -0.0966  0.7578
15530TIP3    H168005   1.051   5.245   2.070  1.4999 -1.6953  0.6797
15530TIP3    H268006   1.151   5.330   1.995  0.1090 -0.0377  0.6815
15531TIP3   OH268007   5.769   3.572   3.580  0.0625 -0.5662 -0.0697
15531TIP3    H168008   5.862   3.583   3.561  0.6205  0.1389  2.8866
15531TIP3    H268009   5.733   3.661   3.575 -0.5586 -0.8892 -1.6119
15532TIP3   OH268010   3.775   2.814   5.244  0.0256 -0.0796 -0.0772
15532TIP3    H168011   3.685   2.790   5.223  0.5713 -2.6980  0.4017
15532TIP3    H268012   3.817   2.828   5.159 -0.3397 -0.8251 -0.3882
15533TIP3   OH268013   3.848   2.931   2.087  0.1029  0.1459 -0.1023
15533TIP3    H168014   3.845   2.992   2.160 -0.0700  1.2632 -1.0365
15533TIP3    H268015   3.778   2.868   2.105 -0.3435  0.7728  0.3765
15534TIP3   OH268016   2.890   5.050   1.736  0.0860  0.8454  0.2959
15534TIP3    H168017   2.895   5.126   1.794  0.0292 -0.6172  2.2222
15534TIP3    H268018   2.980   5.039   1.704  0.5040  0.5111  1.5755
15535TIP3   OH268019   7.129   5.101   3.480 -0.0106  0.0233 -0.2266
15535TIP3    H168020   7.059   5.039   3.457  0.3348 -0.3579 -0.2477
15535TIP3    H268021   7.084   5.172   3.526 -0.3139 -0.5569  0.3693
15536TIP3   OH268022   4.387   6.139   4.600  0.4520 -0.0683  0.0572
15536TIP3    H168023   4.299   6.123   4.635  0.0396 -0.5493 -1.1566
15536TIP3    H268024   4.377   6.215   4.543  0.1965 -1.7205 -2.2115
15537TIP3   OH268025   5.218   2.026   2.538  0.3212  0.0298 -0.2273
15537TIP3    H168026   5.136   1.996   2.578  1.9188 -2.2651  1.3703
15537TIP3    H268027   5.248   2.096   2.596  0.6356 -0.6271  0.3948
15538TIP3   OH268028   5.121   6.620   2.543  0.1190  0.8817 -0.3554
15538TIP3    H168029   5.170   6.543   2.570 -1.3085  0.0146 -0.1780
15538TIP3    H268030   5.096   6.662   2.625  0.3667  1.1883 -0.4379
15539TIP3   OH268031   4.308   5.558   3.653 -0.2539  0.3212 -0.1096
15539TIP3    H168032   4.345   5.535   3.568  0.3305 -0.0021  0.2269
15539TIP3    H268033   4.267   5.477   3.685 -0.2254  0.3665  0.0430
15540TIP3   OH268034   4.962   5.551   4.704 -0.1931  0.4411  0.1422
15540TIP3    H168035   4.878   5.590   4.730 -0.2720  1.4816 -1.6089
15540TIP3    H268036   4.969   5.473   4.759 -2.0913  0.5820  0.6458
15541TIP3   OH268037   5.333   4.143   1.116  0.2203  0.0499 -0.4113
15541TIP3    H168038   5.317   4.121   1.207  0.0144 -1.9222 -0.8834
15541TIP3    H268039   5.367   4.232   1.117 -2.6648  1.1578  1.3081
15542TIP3   OH268040   6.288   2.507   2.707  0.6294 -0.0215  0.1398
15542TIP3    H168041   6.276   2.429   2.761 -1.2734 -0.0803 -0.3159
15542TIP3    H268042   6.381   2.526   2.711  0.9772 -1.8518  0.9044
15543TIP3   OH268043   6.124   0.379   3.615 -0.1104  0.1386 -0.1582
15543TIP3    H168044   6.120   0.350   3.524 -0.0551 -2.7267  0.7019
15543TIP3    H268045   6.061   0.451   3.620  0.2848  0.6837 -2.5799
15544TIP3   OH268046   6.829   5.519   2.387 -1.0372  0.5390  0.0147
15544TIP3    H168047   6.835   5.472   2.470 -0.3522  0.7436  0.0824
15544TIP3    H268048   6.827   5.450   2.321 -0.9914  0.3926  0.1663
15545TIP3   OH268049   4.246   3.445   5.421 -0.1664 -0.2643 -0.3895
15545TIP3    H168050   4.166   3.429   5.470  0.8059 -1.1830  0.9503
15545TIP3    H268051   4.279   3.528   5.456  0.9682 -1.3340  1.1839
15546TIP3   OH268052   7.221   0.214   2.923 -0.4003  0.4131  0.0546
15546TIP3    H168053   7.162   0.260   2.983 -0.4537 -0.6796  0.8553
15546TIP3    H268054   7.290   0.178   2.979  0.2804  0.5166 -0.7039
15547TIP3   OH268055   3.983   5.068   4.423  0.2808  0.5116  0.4270
15547TIP3    H168056   3.904   5.121   4.435  1.1657  1.4674  2.2259
15547TIP3    H268057   3.975   5.033   4.334 -3.2695 -1.3032  1.3800
15548TIP3   OH268058   0.002   2.950   1.732 -0.1327 -0.2178  0.4740
15548TIP3    H168059   0.016   3.008   1.807 -1.3452  0.4140  0.2379
15548TIP3    H268060  -0.015   3.010   1.659 -2.7875 -0.8366  0.5114
15549TIP3   OH268061   4.176   2.553   3.082  0.2970  0.3222 -0.6162
15549TIP3    H168062   4.097   2.603   3.103  1.1704  0.8346  1.4941
15549TIP3    H268063   4.172   2.477   3.139  0.9951 -0.0144 -1.0053
15550TIP3   OH268064   6.055   6.816   0.623 -0.0829  0.5068  0.8249
15550TIP3    H168065   5.975   6.791   0.669  0.1489 -0.0154  0.9558
15550TIP3    H268066   6.117   6.746   0.644 -0.7635 -1.1677 -2.4560
15551TIP3   OH268067   5.674   3.221   0.556  0.3781 -0.1350 -0.1591
15551TIP3    H168068   5.641   3.150   0.501  0.4868  0.1852 -0.6395
15551TIP3    H268069   5.752   3.253   0.510  1.0868 -0.5631  0.7131
15552TIP3   OH268070   5.097   5.864   3.535  0.2981 -0.0739 -0.5544
15552TIP3    H168071   5.109   5.879   3.629 -1.1156 -0.9771 -0.2137
15552TIP3    H268072   5.179   5.825   3.506  0.4281 -0.5679  0.4719
15553TIP3   OH268073   4.068   6.327   4.186  0.0866 -0.1033 -0.5051
15553TIP3    H168074   4.019   6.385   4.128 -2.9250 -1.8130  0.2376
15553TIP3    H268075   4.053   6.361   4.274  1.8486  0.4750 -0.3976
15554TIP3   OH268076   7.181   5.588   2.145 -0.3695 -0.1047  0.2928
15554TIP3    H168077   7.238   5.516   2.115  0.6217  0.5283  0.6248
15554TIP3    H268078   7.206   5.662   2.090 -0.7060  0.2381  0.6029
15555TIP3   OH268079   5.543   6.418   3.940  0.7892 -0.2019  0.0192
15555TIP3    H168080   5.598   6.354   3.984  0.5316 -0.2063  0.3349
15555TIP3    H268081   5.578   6.503   3.968  2.1992 -0.1698 -1.7030
15556TIP3   OH268082   5.769   4.419   3.834  0.2775  0.4857  0.2147
15556TIP3    H168083   5.789   4.432   3.927 -0.2415  1.6892  0.1687
15556TIP3    H268084   5.703   4.349   3.833 -1.8316  2.4208  0.9688
15557TIP3   OH268085   5.528   5.305   0.432  0.4348  0.2132 -0.2801
15557TIP3    H168086   5.557   5.239   0.494 -0.5811  1.1895  1.2745
15557TIP3    H268087   5.605   5.322   0.377  0.5232 -2.6628 -1.1134
15558TIP3   OH268088   3.860   4.515   3.899  0.3008  0.3926  0.8210
15558TIP3    H168089   3.938   4.474   3.936 -1.0394 -2.6745  0.4423
15558TIP3    H268090   3.847   4.469   3.816 -1.6035  1.2678  0.6145
15559TIP3   OH268091   6.261   4.079   2.465 -0.3674  0.5482  0.0388
15559TIP3    H168092   6.231   4.034   2.544 -0.7569  1.9659  0.7020
15559TIP3    H268093   6.234   4.021   2.393 -2.0481  0.3649  0.7978
15560TIP3   OH268094   5.291   3.540   0.816 -0.0318  0.1283 -0.4371
15560TIP3    H168095   5.220   3.485   0.783 -0.9108  0.7675  0.3462
15560TIP3    H268096   5.369   3.485   0.809 -0.5156 -0.4079 -1.7823
15561TIP3   OH268097   4.362   3.856   2.999 -0.1416 -0.4255  0.1245
15561TIP3    H168098   4.314   3.933   2.969 -0.7849 -1.0129 -0.3650
15561TIP3    H268099   4.396   3.815   2.919 -1.0940 -1.4903  0.2467
15562TIP3   OH268100   5.919   3.589   3.869  0.0236  0.3515 -0.2424
15562TIP3    H168101   5.829   3.620   3.881 -1.2727 -3.0753 -0.7974
15562TIP3    H268102   5.937   3.537   3.948  1.4794  0.8643 -0.2174
15563TIP3   OH268103   5.862   3.546   3.268  0.3338 -0.0384  0.6657
15563TIP3    H168104   5.905   3.546   3.353  3.6737  0.4807 -0.9413
15563TIP3    H268105   5.875   3.635   3.234 -0.1271 -0.5012 -0.7609
15564TIP3   OH268106   4.893   4.626   1.530 -0.1323 -0.0101 -0.1749
15564TIP3    H168107   4.871   4.696   1.593  1.9530 -0.9725  1.6608
15564TIP3    H268108   4.838   4.646   1.454 -1.8591  1.8699  1.4692
15565TIP3   OH268109   3.100   4.176  15.743 -0.3830 -0.0976  0.3194
15565TIP3    H168110   3.116   4.168  15.648 -0.9011 -2.5061  0.3870
15565TIP3    H268111   3.018   4.129  15.757  0.3925 -0.9408  2.1548
15566TIP3   OH268112   5.209   1.413   4.114  0.1078 -0.4850 -0.4855
15566TIP3    H168113   5.298   1.435   4.089  0.4319 -0.4766  0.6389
15566TIP3    H268114   5.218   1.370   4.200 -0.9151 -0.9345 -0.5886
15567TIP3   OH268115   2.971   5.604   2.230 -0.1695 -0.8140 -0.4304
15567TIP3    H168116   3.005   5.527   2.275 -0.8872  0.1537  1.8235
15567TIP3    H268117   3.041   5.629   2.169  0.1023 -3.1578 -1.1325
15568TIP3   OH268118   3.489   4.074   1.911 -0.1473  0.5840 -0.4494
15568TIP3    H168119   3.567   4.129   1.922 -0.3277  0.6534  0.5802
15568TIP3    H268120   3.522   3.984   1.909 -0.2457  0.3915  3.0158
15569TIP3   OH268121   5.044   4.646   0.282 -0.2512  0.3579  0.2169
15569TIP3    H168122   5.014   4.732   0.311  0.7454  1.2524 -1.3687
15569TIP3    H268123   4.996   4.630   0.201 -0.4640 -0.6017  0.5295
15570TIP3   OH268124   4.012   3.010   3.987 -0.2162  0.2901  0.0413
15570TIP3    H168125   4.009   3.018   3.891  1.0400  0.5122  0.0091
15570TIP3    H268126   4.103   2.988   4.006 -0.6352 -0.4903  1.1404
15571TIP3   OH268127   7.025   5.357   1.592 -0.3427 -0.9772  0.0486
15571TIP3    H168128   7.058   5.421   1.655  2.6347 -0.6653 -1.7351
15571TIP3    H268129   6.957   5.404   1.543  0.1794  0.0514  0.3099
15572TIP3   OH268130   4.083   3.633   1.720  0.2142  0.0613  0.3557
15572TIP3    H168131   4.118   3.710   1.674 -0.5421 -1.0743 -2.1577
15572TIP3    H268132   4.156   3.571   1.722 -0.1746 -0.4212 -0.5277
15573TIP3   OH268133   0.438   2.843   1.083 -0.0948 -0.2713  0.2056
15573TIP3    H168134   0.444   2.795   1.165 -0.4630 -1.1442 -0.2629
15573TIP3    H268135   0.365   2.802   1.037  0.8820 -0.6068 -1.0806
15574TIP3   OH268136   6.876   4.201   2.724 -0.0745  0.3318  0.2976
15574TIP3    H168137   6.854   4.196   2.630  0.0357 -0.8499  0.3239
15574TIP3    H268138   6.887   4.110   2.750  2.4145  0.7719  0.8849
15575TIP3   OH268139   3.838   5.673   1.766 -0.3349 -0.7288 -0.5833
15575TIP3    H168140   3.771   5.613   1.797  1.0457 -0.9532  2.0340
15575TIP3    H268141   3.793   5.757   1.756 -1.0872 -0.9571  0.8618
15576TIP3   OH268142   4.035   3.349  15.946 -0.2761 -0.1428  0.2078
15576TIP3    H168143   4.129   3.334  15.938 -0.3515 -0.8820  0.7069
15576TIP3    H268144   4.026   3.444  15.940  0.3108 -0.1728 -1.7709
15577TIP3   OH268145   6.511   5.135   1.557  0.3413 -0.1962  0.0426
15577TIP3    H168146   6.488   5.121   1.649 -0.6263  0.9148 -0.0089
15577TIP3    H268147   6.427   5.156   1.515  0.8979  0.1196 -0.9245
15578TIP3   OH268148   4.779   6.363   4.899 -0.0419  0.0046 -0.3331
15578TIP3    H168149   4.737   6.332   4.979 -1.0445 -0.0202 -0.8580
15578TIP3    H268150   4.709   6.362   4.833  1.0274 -0.9775 -1.4659
15579TIP3   OH268151   3.271   3.919   1.270  0.0330 -0.4458 -0.4948
15579TIP3    H168152   3.285   3.825   1.275 -0.6720 -0.4777  1.1402
15579TIP3    H268153   3.214   3.939   1.344 -1.0094  1.0603 -1.6654
15580TIP3   OH268154   4.320   6.086   2.248 -0.2444 -0.2196  0.1717
15580TIP3    H168155   4.348   6.171   2.214  1.2263 -1.0326 -0.7112
15580TIP3    H268156   4.225   6.085   2.234 -0.4198  1.6293  1.0505
15581TIP3   OH268157   5.394   2.587   1.889 -0.1182 -0.4017  0.2250
15581TIP3    H168158   5.361   2.526   1.822  1.8053 -1.3577  0.1210
15581TIP3    H268159   5.394   2.536   1.970 -1.3225  0.3994  0.7518
15582TIP3   OH268160   0.016   4.943   0.024  0.4295 -0.3774 -0.2501
15582TIP3    H168161   0.089   4.929  -0.036  1.6044 -1.7006  1.4420
15582TIP3    H268162   0.041   4.896   0.104 -1.9118 -0.1702  0.6440
15583TIP3   OH268163   3.089   4.991   5.466  0.4921 -0.0053 -0.2222
15583TIP3    H168164   3.004   4.966   5.503  0.7265 -0.7930 -0.2059
15583TIP3    H268165   3.140   5.021   5.541  0.6062 -0.5945 -0.0607
15584TIP3   OH268166   3.576   6.100   2.584  0.3377 -0.0632  0.1035
15584TIP3    H168167   3.575   6.121   2.678 -2.4186 -0.0723  0.1111
15584TIP3    H268168   3.635   6.164   2.546  0.2073  0.9954  1.6202
15585TIP3   OH268169   4.357   5.845  15.296 -0.3718  0.4171 -0.2517
15585TIP3    H168170   4.385   5.882  15.212  0.8582  1.1059  0.4432
15585TIP3    H268171   4.320   5.919  15.344  0.7750  0.4699  0.5795
15586TIP3   OH268172   4.304   5.131   2.475 -0.1320 -0.1515  0.4233
15586TIP3    H168173   4.340   5.214   2.506 -1.4433  0.7376 -0.3885
15586TIP3    H268174   4.305   5.138   2.380 -1.6153 -0.4499  0.3641
15587TIP3   OH268175   6.461   2.910   2.632  0.2728  0.4670  0.1926
15587TIP3    H168176   6.383   2.910   2.576 -0.2377 -2.6699  0.8232
15587TIP3    H268177   6.500   2.997   2.618 -0.4220  0.2161 -4.2188
15588TIP3   OH268178   6.729   6.001   1.902 -0.3301 -0.1527  0.1343
15588TIP3    H168179   6.752   5.947   1.826 -1.2513  1.2079 -1.1477
15588TIP3    H268180   6.805   6.058   1.914 -0.3257 -0.1287 -0.0002
15589TIP3   OH268181   5.259   5.792   2.320 -0.2765  0.5213 -0.5007
15589TIP3    H168182   5.184   5.732   2.321 -1.3165  1.7937 -0.8712
15589TIP3    H268183   5.271   5.816   2.412  0.7228 -0.9282 -0.2243
15590TIP3   OH268184   0.966   5.613   3.240 -0.9359 -0.6364 -0.5080
15590TIP3    H168185   0.871   5.614   3.222 -0.9971 -0.8121 -0.1938
15590TIP3    H268186   0.984   5.700   3.275 -1.2546 -1.0898  0.8251
15591TIP3   OH268187   5.586   5.669   4.243  0.2749  0.3970  0.2915
15591TIP3    H168188   5.552   5.605   4.306  1.4188 -0.1111  0.4039
15591TIP3    H268189   5.573   5.754   4.286 -0.2230  0.1581  0.6178
15592TIP3   OH268190   6.652   3.770   3.127 -0.5334 -0.0081  0.1351
15592TIP3    H168191   6.651   3.852   3.078  1.1417  1.1708  2.0055
15592TIP3    H268192   6.699   3.791   3.208 -0.8400 -2.5957  1.0229
15593TIP3   OH268193   4.577   7.280   3.998 -0.3670 -0.4112 -0.0338
15593TIP3    H168194   4.585   7.273   4.093  1.2408 -1.7320 -0.2439
15593TIP3    H268195   4.617   7.200   3.965 -1.6033 -0.3141 -1.8114
15594TIP3   OH268196   1.402   5.827   1.759 -0.7187  0.0894  0.0157
15594TIP3    H168197   1.353   5.890   1.706 -1.2804 -0.0975  0.3155
15594TIP3    H268198   1.398   5.746   1.708  0.7595  0.5125 -0.8037
15595TIP3   OH268199   5.195   5.442   2.847 -1.3043 -0.5167  0.6307
15595TIP3    H168200   5.207   5.370   2.910 -0.7049 -0.0866  1.0199
15595TIP3    H268201   5.224   5.520   2.894 -0.2819 -0.2723 -0.3780
15596TIP3   OH268202   4.753   5.668   3.857  0.2784  0.0005 -0.1578
15596TIP3    H168203   4.721   5.757   3.839 -0.0194 -0.0781 -0.0100
15596TIP3    H268204   4.675   5.619   3.880  0.8173  0.4177  2.6413
15597TIP3   OH268205   6.263   6.155   2.024  0.2476  0.3652  0.2790
15597TIP3    H168206   6.320   6.200   1.962 -0.4254 -0.6346 -1.1068
15597TIP3    H268207   6.196   6.221   2.047 -1.2248 -0.1198 -2.3907
15598TIP3   OH268208   4.793   5.701   2.511  0.3996 -0.3850  0.2147
15598TIP3    H168209   4.763   5.658   2.431  0.1250  0.0452  0.0829
15598TIP3    H268210   4.732   5.672   2.578  1.0660 -1.3282  0.4283
15599TIP3   OH268211   4.358   4.321   2.280  0.3011  0.3858  0.3026
15599TIP3    H168212   4.377   4.413   2.298  0.4190  0.0415  1.9781
15599TIP3    H268213   4.406   4.302   2.199  0.0878  1.8488 -0.1876
15600TIP3   OH268214   5.585   6.687   3.987  0.6207  0.0334  0.1118
15600TIP3    H168215   5.668   6.662   3.947  0.3430 -0.8120  0.0544
15600TIP3    H268216   5.542   6.742   3.922  0.9124  0.0566 -0.0634
15601TIP3   OH268217   5.088   5.272   0.625 -0.4823 -0.1775  0.0600
15601TIP3    H168218   5.145   5.312   0.559 -0.6321  1.5878  0.9497
15601TIP3    H268219   5.149   5.231   0.687 -0.2522  0.0322 -0.0266
15602TIP3   OH268220   6.866   3.361   2.776  0.1663 -0.5117 -0.3925
15602TIP3    H168221   6.802   3.344   2.845  0.8751 -1.7880 -0.0214
15602TIP3    H268222   6.835   3.308   2.702  1.0849 -1.5810 -0.0260
15603TIP3   OH268223   4.379   5.699   1.362  0.5039 -0.4985 -0.4166
15603TIP3    H168224   4.443   5.753   1.315  2.8580 -1.7108  1.2430
15603TIP3    H268225   4.356   5.752   1.439  0.5118 -0.6135 -0.3359
15604TIP3   OH268226   3.802   6.747   2.371 -0.3709 -0.2416 -0.0977
15604TIP3    H168227   3.745   6.686   2.417 -2.0284  0.5150 -1.1027
15604TIP3    H268228   3.780   6.833   2.407  0.3825  0.0173 -0.2421
15605TIP3   OH268229   4.903   2.917   3.337  0.4616 -0.7877 -0.5224
15605TIP3    H168230   4.836   2.854   3.311 -1.2440  0.3195  1.0074
15605TIP3    H268231   4.881   2.996   3.287  2.3096 -1.2385 -2.0903
15606TIP3   OH268232   4.151   4.621   2.974  0.4954 -0.2708  0.0561
15606TIP3    H168233   4.096   4.603   2.898  0.2603 -1.3877  0.4755
15606TIP3    H268234   4.143   4.715   2.988  0.4314 -0.0876 -1.2130
15607TIP3   OH268235   4.942   5.256   4.127 -0.5693  0.4664  0.0629
15607TIP3    H168236   4.962   5.330   4.184 -0.0926  2.3211 -2.4103
15607TIP3    H268237   4.889   5.294   4.056  0.7356 -1.2779 -1.9085
15608TIP3   OH268238   6.070   4.011   1.502  0.4077 -0.0926 -0.3647
15608TIP3    H168239   6.158   4.034   1.531  0.7806 -1.9553  0.0841
15608TIP3    H268240   6.031   3.966   1.577 -1.6069  2.2970  0.0846
15609TIP3   OH268241   7.196   3.480   4.998 -0.8516  0.2474 -0.3384
15609TIP3    H168242   7.143   3.456   5.074  0.5557  3.3303  1.7384
15609TIP3    H268243   7.287   3.472   5.028 -0.2194 -0.4207 -2.3435
15610TIP3   OH268244   4.071   3.908   2.214  0.5625  0.3848 -0.2324
15610TIP3    H168245   4.071   3.846   2.287 -0.8217  1.7182  0.9202
15610TIP3    H268246   4.111   3.987   2.250 -1.2140  1.4531 -0.5703
15611TIP3   OH268247   2.277   5.648   4.252  0.4119  0.3724 -0.7434
15611TIP3    H168248   2.302   5.594   4.177  0.4241  0.2814 -0.6743
15611TIP3    H268249   2.257   5.734   4.214  1.5213  0.6545 -0.7181
15612TIP3   OH268250   4.866   6.862   5.088 -0.0391 -0.2442  0.0329
15612TIP3    H168251   4.782   6.822   5.113 -0.1415  0.6368  1.1178
15612TIP3    H268252   4.923   6.847   5.164  0.1742  0.9164  0.1121
15613TIP3   OH268253   5.662   3.457   2.709 -0.0061  0.0496 -0.1755
15613TIP3    H168254   5.610   3.538   2.705 -2.1424 -1.4311 -3.5005
15613TIP3    H268255   5.693   3.444   2.620  3.3098 -0.9838  1.0565
15614TIP3   OH268256   3.770   0.576   4.487  0.1208 -0.0834  0.1521
15614TIP3    H168257   3.676   0.582   4.472 -0.0897 -1.4717  0.9234
15614TIP3    H268258   3.798   0.668   4.497 -1.0882  0.3480 -0.3308
15615TIP3   OH268259   4.536   3.820   4.284  0.4298  0.1943 -0.0021
15615TIP3    H168260   4.575   3.897   4.325  0.5413  1.3250 -2.1528
15615TIP3    H268261   4.441   3.832   4.296  0.5105 -0.1540  1.0518
15616TIP3   OH268262   6.615   2.884   2.394  0.1076  0.2922  0.1336
15616TIP3    H168263   6.549   2.875   2.325  0.6380 -1.5008 -0.1623
15616TIP3    H268264   6.569   2.928   2.466 -0.7031  1.3390 -1.0152
15617TIP3   OH268265   5.645   3.439   2.447 -0.0620 -0.5838 -0.7631
15617TIP3    H168266   5.721   3.381   2.445 -0.0733 -0.5858 -1.0635
15617TIP3    H268267   5.609   3.435   2.359 -0.6600 -0.9108 -0.5066
15618TIP3   OH268268   5.541   4.031   2.509  0.0044  0.2634 -0.4521
15618TIP3    H168269   5.538   3.965   2.579 -0.5702 -1.3139 -1.9265
15618TIP3    H268270   5.592   4.103   2.546 -1.6278  0.1464  2.1571
15619TIP3   OH268271   4.451   5.121   1.693  0.0357 -0.2153 -0.5696
15619TIP3    H168272   4.473   5.207   1.658 -2.3894  1.3486  1.6215
15619TIP3    H268273   4.387   5.085   1.631  0.6878 -0.2407 -1.2285
15620TIP3   OH268274   6.942   6.097   2.735  0.3515 -0.0440  0.1408
15620TIP3    H168275   6.946   6.001   2.733  0.6203 -0.0332  0.1289
15620TIP3    H268276   6.860   6.119   2.690  0.4624 -0.2549 -0.1640
15621TIP3   OH268277   3.825   4.722   1.665 -0.1052  0.3163  0.1430
15621TIP3    H168278   3.820   4.750   1.756  0.2167  1.2601 -0.1219
15621TIP3    H268279   3.919   4.712   1.649 -0.1250  0.7980 -0.2749
15622TIP3   OH268280   5.491   5.491   3.383 -0.0225 -1.0013 -0.7536
15622TIP3    H168281   5.397   5.479   3.373 -0.0150 -1.3180 -0.4749
15622TIP3    H268282   5.524   5.504   3.294 -0.5399  0.7210 -0.7031
15623TIP3   OH268283   3.953   0.782   4.667 -0.5086  0.7409 -0.6117
15623TIP3    H168284   3.858   0.789   4.664 -0.5735 -0.2441 -0.9189
15623TIP3    H268285   3.982   0.799   4.578 -0.4469  0.2727 -0.6805
15624TIP3   OH268286   4.254   6.757   2.724  0.7483  0.2242 -0.1224
15624TIP3    H168287   4.276   6.811   2.800 -0.2326 -0.9911  1.0534
15624TIP3    H268288   4.228   6.820   2.656  1.2492  1.3010  0.6663
15625TIP3   OH268289   5.189   7.065   2.247  1.0779  0.9681 -0.5781
15625TIP3    H168290   5.149   7.086   2.331  1.3155  1.4071 -0.5722
15625TIP3    H268291   5.199   6.970   2.248 -0.7220  0.7549 -0.9233
15626TIP3   OH268292   4.730   4.338   4.483 -0.3697 -0.0231  1.0837
15626TIP3    H168293   4.770   4.255   4.458 -0.7766  0.1435 -0.1475
15626TIP3    H268294   4.796   4.381   4.537  0.3057 -0.6489  0.7669
15627TIP3   OH268295   4.689   4.107   3.223  0.0399  0.2913  0.4424
15627TIP3    H168296   4.636   4.028   3.210  0.1764  0.0840  1.1009
15627TIP3    H268297   4.725   4.127   3.137 -0.6568  0.1067  0.1107
15628TIP3   OH268298   4.457   4.167   2.061 -0.0212 -0.2365 -0.4671
15628TIP3    H168299   4.495   4.139   2.145 -1.9557  1.5426  1.0821
15628TIP3    H268300   4.385   4.106   2.047 -0.2997  0.0641 -0.3387
15629TIP3   OH268301   4.067   2.861   1.558 -0.1384 -1.2238 -0.6017
15629TIP3    H168302   4.124   2.923   1.511 -1.3975 -0.0089 -0.5532
15629TIP3    H268303   3.978   2.889   1.537 -0.7298 -1.0013  2.0304
15630TIP3   OH268304   6.944   3.635   3.051  1.2182  0.8965  0.0898
15630TIP3    H168305   6.853   3.607   3.038  0.5726  1.2851  3.3137
15630TIP3    H268306   6.996   3.574   2.999 -0.8194  0.2398 -1.2430
15631TIP3   OH268307   1.102   4.647   1.822  0.8792  0.7719 -0.2306
15631TIP3    H168308   1.037   4.715   1.841  1.4369  1.2644 -0.0755
15631TIP3    H268309   1.051   4.576   1.783 -0.0963  0.2404  1.9326
15632TIP3   OH268310   5.196   5.448   3.337 -0.3118  0.0146 -0.0049
15632TIP3    H168311   5.154   5.534   3.338 -0.5561 -0.0727 -1.3119
15632TIP3    H268312   5.196   5.423   3.245  1.9994 -0.2743  0.0314
15633TIP3   OH268313   3.698   6.097   3.232  0.7199  0.5054  0.1977
15633TIP3    H168314   3.719   6.150   3.309  2.0777  0.9843 -0.4838
15633TIP3    H268315   3.648   6.023   3.266  1.3218  0.7120  1.5418
15634TIP3   OH268316   6.646   3.405   2.374 -0.0491 -0.4122 -0.1160
15634TIP3    H168317   6.604   3.335   2.324  1.6894 -1.0836 -0.6999
15634TIP3    H268318   6.681   3.464   2.308 -3.6011  2.3930  0.3609
15635TIP3   OH268319   5.128   4.644   2.962  0.1306 -0.0288  0.3028
15635TIP3    H168320   5.079   4.690   3.029  0.4991 -0.5693  0.9529
15635TIP3    H268321   5.063   4.623   2.895 -0.0947  1.1472  0.1474
15636TIP3   OH268322   5.824   3.310   3.807  0.0575 -0.2963 -0.6492
15636TIP3    H168323   5.807   3.401   3.829  1.9470  0.0326 -0.4057
15636TIP3    H268324   5.791   3.261   3.882  1.4935  0.4069  0.4608
15637TIP3   OH268325   6.166   3.893   3.178 -0.2195  0.0610  0.2213
15637TIP3    H168326   6.207   3.978   3.161  1.1682 -0.5368  0.4612
15637TIP3    H268327   6.239   3.836   3.202 -1.2102 -1.0463  0.6624
15638TIP3   OH268328   1.217   3.160   0.180 -0.2391  0.1450 -0.0899
15638TIP3    H168329   1.306   3.195   0.172 -0.1031 -0.3458 -0.7758
15638TIP3    H268330   1.179   3.173   0.093 -0.5575 -0.4243 -0.0336
15639TIP3   OH268331   4.251   4.561   4.001  0.5246 -0.1482 -0.6888
15639TIP3    H168332   4.205   4.544   3.919 -1.2020  0.7617  0.0766
15639TIP3    H268333   4.182   4.582   4.064  1.9705  1.0634  0.5290
15640TIP3   OH268334   6.074   3.748   1.269  0.9986 -0.3367 -0.1628
15640TIP3    H168335   6.091   3.761   1.363 -0.1912  2.2039 -0.2796
15640TIP3    H268336   6.076   3.836   1.232 -2.3060 -0.9353 -1.8946
15641TIP3   OH268337   0.778   3.054   4.303 -0.1997  0.8326  0.1240
15641TIP3    H168338   0.763   3.007   4.385  3.8782 -2.0496 -0.6425
15641TIP3    H268339   0.865   3.093   4.313  0.9290 -0.6431 -3.2310
15642TIP3   OH268340   5.382   4.402   4.357  0.5723  0.5043  0.3891
15642TIP3    H168341   5.297   4.437   4.382  1.3927  2.4483  0.5062
15642TIP3    H268342   5.436   4.479   4.338  2.2965 -0.6926  0.2883
15643TIP3   OH268343   4.164   4.765   2.689  0.0132  0.0038 -0.2612
15643TIP3    H168344   4.252   4.787   2.660  0.3107  0.9224  1.2408
15643TIP3    H268345   4.117   4.849   2.687 -0.8555 -0.4989 -1.1526
15644TIP3   OH268346   3.363   4.405   4.118  0.2098  0.3573  0.6000
15644TIP3    H168347   3.456   4.427   4.108  0.5532 -1.1555  0.4293
15644TIP3    H268348   3.349   4.332   4.059 -0.9386  0.1316  1.1456
15645TIP3   OH268349   4.793   4.270   4.826  0.7212  0.3932 -0.1828
15645TIP3    H168350   4.827   4.309   4.906 -0.3761  0.7893  0.1013
15645TIP3    H268351   4.836   4.318   4.756 -0.8462  2.3683  0.1623
15646TIP3   OH268352   5.301   2.570   4.621  0.0354 -0.0140 -0.1595
15646TIP3    H168353   5.298   2.657   4.661 -0.5503  0.2018 -0.6786
15646TIP3    H268354   5.354   2.518   4.682 -0.5132  0.4210  0.6969
15647TIP3   OH268355   4.884   4.146   3.039 -0.8348  0.0359  0.2317
15647TIP3    H168356   4.959   4.198   3.067 -1.4052  0.0599  1.7917
15647TIP3    H268357   4.876   4.163   2.945  0.3710  0.9558  0.2813
15648TIP3   OH268358   5.249   3.816   3.952  0.1082  0.2588  0.0368
15648TIP3    H168359   5.238   3.797   4.045  1.5975 -0.0733  0.1599
15648TIP3    H268360   5.171   3.779   3.911 -0.3537  0.0225  1.0962
15649TIP3   OH268361   5.792   3.370   2.124 -0.3269 -0.4846 -0.1246
15649TIP3    H168362   5.717   3.386   2.181 -0.5019  0.7655 -0.6984
15649TIP3    H268363   5.771   3.288   2.079 -1.0159 -0.5201  0.2548
15650TIP3   OH268364   3.636   3.078   5.084  0.3323  0.2185 -0.1894
15650TIP3    H168365   3.707   3.130   5.121  0.3385 -0.4495  0.7510
15650TIP3    H268366   3.680   3.017   5.025  0.3019  1.4236 -1.4827
15651TIP3   OH268367   5.586   4.534   3.274  0.0810  0.7063  0.0963
15651TIP3    H168368   5.557   4.477   3.202  0.8745 -0.1112  0.4201
15651TIP3    H268369   5.675   4.558   3.250 -0.2826  1.8865 -0.0768
15652TIP3   OH268370   6.218   4.521   1.881 -0.6845  0.0607 -0.0730
15652TIP3    H168371   6.301   4.566   1.867 -0.0579 -1.1210 -0.2227
15652TIP3    H268372   6.181   4.562   1.958  1.8779 -1.9876  2.3615
15653TIP3   OH268373   4.609   5.442   2.237  0.1733 -0.4216 -0.1177
15653TIP3    H168374   4.544   5.410   2.300 -2.1100 -0.2914 -2.3372
15653TIP3    H268375   4.684   5.384   2.248 -1.0807 -1.8664  1.0767
15654TIP3   OH268376   5.214   3.761   2.913  0.2131  0.2452  0.2594
15654TIP3    H168377   5.190   3.781   3.003  1.8865 -0.8721  0.9839
15654TIP3    H268378   5.214   3.665   2.909 -0.2199  0.2884 -1.0250
15655TIP3   OH268379   1.012   5.740   1.973  1.0179 -0.2578 -0.3048
15655TIP3    H168380   0.980   5.748   2.063 -2.4876 -1.2856 -1.3798
15655TIP3    H268381   1.048   5.651   1.969 -2.2288 -1.5847 -0.8879
15656TIP3   OH268382   5.930   0.366   4.202 -0.7824 -0.4604  0.1128
15656TIP3    H168383   5.881   0.360   4.119 -1.6217 -0.8039  0.6297
15656TIP3    H268384   6.012   0.320   4.183 -1.6662 -2.0437 -0.0386
15657TIP3   OH268385   0.937   3.515   3.260  0.2591 -0.2234  0.4897
15657TIP3    H168386   0.936   3.609   3.239  2.0513  0.0007  1.3673
15657TIP3    H268387   0.975   3.474   3.182 -2.6951 -0.5319 -0.8953
15658TIP3   OH268388   5.602   3.968   5.002 -0.5825 -0.2921 -0.2352
15658TIP3    H168389   5.526   3.911   4.988 -0.3023 -0.6521 -0.3064
15658TIP3    H268390   5.565   4.048   5.040 -0.7578 -1.2983  1.7619
15659TIP3   OH268391   3.097   3.503   2.176  0.7559 -0.0036 -0.0678
15659TIP3    H168392   3.139   3.546   2.251  0.2184  0.9269 -0.3015
15659TIP3    H268393   3.056   3.574   2.127  0.4847 -0.6966 -0.8567
15660TIP3   OH268394   0.432   4.783   4.320  0.7927  0.9392 -0.1755
15660TIP3    H168395   0.400   4.763   4.408  1.6382  1.9728  0.3844
15660TIP3    H268396   0.432   4.699   4.274 -1.3649  0.6908  0.2362
15661TIP3   OH268397   5.732   6.473   3.104 -0.2058  0.2012  0.3558
15661TIP3    H168398   5.646   6.498   3.140  0.7014  1.5222  1.6811
15661TIP3    H268399   5.795   6.523   3.157  1.3085  0.3135 -1.5048
15662TIP3   OH268400   4.098   0.091   1.161 -0.3821 -0.2207 -0.1432
15662TIP3    H168401   4.005   0.109   1.173 -0.0618  0.3117  1.7469
15662TIP3    H268402   4.107  -0.003   1.179 -0.4948 -0.1949  0.0461
15663TIP3   OH268403   3.128   3.889   4.658 -0.1188 -0.3777 -0.4969
15663TIP3    H168404   3.061   3.924   4.717  0.3016 -0.3601 -0.0312
15663TIP3    H268405   3.081   3.872   4.576 -0.9188 -1.3180  0.1369
15664TIP3   OH268406   4.889   3.336   2.210 -0.2692  0.2308 -0.2110
15664TIP3    H168407   4.915   3.344   2.119  1.5927 -0.2032  0.2608
15664TIP3    H268408   4.890   3.242   2.228  2.0954  0.4277  0.9740
15665TIP3   OH268409   6.012   5.000   2.939 -0.7063 -0.5264 -0.4686
15665TIP3    H168410   5.987   5.057   3.012 -2.6200  2.0481 -3.0043
15665TIP3    H268411   5.929   4.968   2.904  0.2736 -3.3354 -0.3208
15666TIP3   OH268412   4.641   6.319   3.454 -0.6645  0.1265 -0.5012
15666TIP3    H168413   4.736   6.312   3.450 -0.5095  0.4862  1.8457
15666TIP3    H268414   4.625   6.411   3.475 -1.4380 -0.3786  1.1800
15667TIP3   OH268415   6.640   4.931   4.475  0.5259  0.0353  0.8536
15667TIP3    H168416   6.731   4.944   4.451  0.3238 -2.0405 -1.2421
15667TIP3    H268417   6.643   4.870   4.548  0.9005  1.8919  2.4139
15668TIP3   OH268418   5.772   6.104   4.594  0.1354 -0.0348  0.0664
15668TIP3    H168419   5.792   6.188   4.636  0.4896  0.2415 -0.6508
15668TIP3    H268420   5.676   6.100   4.595  0.0962  0.6707 -0.4648
15669TIP3   OH268421   5.140   5.162   2.235 -0.2829  0.3473  0.5348
15669TIP3    H168422   5.094   5.214   2.170 -0.2645  2.3824  2.0882
15669TIP3    H268423   5.085   5.085   2.248 -0.1468 -0.2090 -2.0283
15670TIP3   OH268424   4.385   3.172   3.233  0.1299  0.1648  0.2796
15670TIP3    H168425   4.337   3.156   3.152  1.5887  0.0158 -0.5566
15670TIP3    H268426   4.355   3.259   3.262  0.7010  0.8664 -1.1948
15671TIP3   OH268427   6.218   3.480   4.998 -0.6411  0.4662 -0.1314
15671TIP3    H168428   6.169   3.561   4.981 -0.4562  0.5839 -0.1109
15671TIP3    H268429   6.153   3.420   5.036 -0.6824  0.7493  0.2500
15672TIP3   OH268430   4.745   4.612   3.461 -1.0765 -0.5442  0.4953
15672TIP3    H168431   4.663   4.566   3.442 -1.8318  0.7007  0.6866
15672TIP3    H268432   4.791   4.556   3.523 -1.5074 -1.5353 -0.0740
15673TIP3   OH268433   2.143   3.355   4.403 -0.5126  0.2419  0.4424
15673TIP3    H168434   2.150   3.296   4.328  2.3673  1.9246 -0.7276
15673TIP3    H268435   2.181   3.306   4.475 -1.7451 -0.7667  0.4131
15674TIP3   OH268436   5.745   3.315   3.547 -0.7998 -0.6499 -0.4199
15674TIP3    H168437   5.726   3.408   3.547  1.4924 -0.1447 -0.4367
15674TIP3    H268438   5.772   3.296   3.637 -0.0792 -1.0277 -0.7083
15675TIP3   OH268439   6.781   4.204   2.480  0.3060 -0.1825  0.2361
15675TIP3    H168440   6.687   4.188   2.475  0.1948  0.2741  0.7213
15675TIP3    H268441   6.795   4.282   2.426  0.3766 -0.1410  0.3133
15676TIP3   OH268442   2.165   4.393   4.421 -0.6622  0.1685  0.2481
15676TIP3    H168443   2.168   4.299   4.440 -1.9933  0.1798  0.5629
15676TIP3    H268444   2.248   4.411   4.377  0.6331 -0.7130  2.2209
15677TIP3   OH268445   2.881   3.097   2.370 -0.3827 -0.1407  0.0486
15677TIP3    H168446   2.908   3.142   2.291 -0.9374 -0.9488 -0.6142
15677TIP3    H268447   2.925   3.143   2.441 -1.0015  1.4838 -0.6004
15678TIP3   OH268448   6.236   4.879   3.552  0.0426  0.0727 -0.1004
15678TIP3    H168449   6.251   4.854   3.461 -2.1057 -1.8942  0.0463
15678TIP3    H268450   6.322   4.908   3.583  1.1316 -0.6603 -2.3007
15679TIP3   OH268451   4.014   4.159   2.042 -0.8219  0.3106  0.7069
15679TIP3    H168452   4.032   4.226   2.108 -3.4469  1.3836  0.4086
15679TIP3    H268453   3.999   4.079   2.092  0.4202  0.3691  1.1908
15680TIP3   OH268454   4.876   3.092   4.810  0.0036 -0.8356  0.0629
15680TIP3    H168455   4.806   3.094   4.875  1.7134 -0.1928  1.9824
15680TIP3    H268456   4.846   3.031   4.743 -3.1090  0.7495 -0.0694
15681TIP3   OH268457   4.068   7.057   1.746  0.3715 -0.1239 -1.0874
15681TIP3    H168458   4.026   7.142   1.761  2.2903  0.7272 -0.3100
15681TIP3    H268459   4.022   6.997   1.804  1.1145  1.0768  0.7962
15682TIP3   OH268460   4.287   3.884   4.320 -0.2966  0.2337  0.7872
15682TIP3    H168461   4.194   3.876   4.299  0.2450 -1.1638 -1.2626
15682TIP3    H268462   4.291   3.948   4.392 -2.8623 -0.1286  1.2785
15683TIP3   OH268463   4.208   4.376   4.523  0.4656 -0.5768  0.1673
15683TIP3    H168464   4.180   4.444   4.585 -1.4523  0.2249 -1.5015
15683TIP3    H268465   4.303   4.372   4.532  0.3864  0.7474  1.8859
15684TIP3   OH268466   5.088   7.112   2.504 -0.0478  0.4650 -0.5382
15684TIP3    H168467   5.119   7.060   2.578  0.4674  1.7121  0.1330
15684TIP3    H268468   4.997   7.084   2.493  1.2174 -3.1382 -2.4716
15685TIP3   OH268469   5.680   4.536   2.125  0.6825 -0.1417  0.2925
15685TIP3    H168470   5.666   4.544   2.030  1.0944 -0.0580  0.2403
15685TIP3    H268471   5.651   4.620   2.160 -1.4523 -0.9087  0.4705
15686TIP3   OH268472   7.157   6.114   3.291  1.0314  0.1161 -0.0753
15686TIP3    H168473   7.107   6.120   3.209  1.3738  3.0135 -0.1274
15686TIP3    H268474   7.248   6.119   3.264  1.1745  0.1350  0.4138
15687TIP3   OH268475   4.708   2.980   2.981  0.0635 -0.6337  0.0951
15687TIP3    H168476   4.688   3.004   3.072 -0.2322  0.3808 -0.2353
15687TIP3    H268477   4.783   3.034   2.958  0.1101 -0.8560 -0.2802
15688TIP3   OH268478   4.028   3.528   4.369  0.4043  0.4401 -0.2709
15688TIP3    H168479   3.944   3.536   4.324  0.1013  1.1328  0.4078
15688TIP3    H268480   4.081   3.475   4.310 -0.9201 -1.0942 -0.1127
15689TIP3   OH268481   5.094   5.647   1.822 -1.2150 -0.5359 -0.3881
15689TIP3    H168482   5.080   5.596   1.902  1.5422 -1.7185 -0.5950
15689TIP3    H268483   5.056   5.593   1.753  0.2364 -1.5597 -0.3990
15690TIP3   OH268484   5.304   4.554   2.191 -0.1056  0.0820 -0.0129
15690TIP3    H168485   5.316   4.546   2.096  3.3210 -0.1699  0.3737
15690TIP3    H268486   5.294   4.648   2.206 -1.3767  0.0619 -0.6832
15691TIP3   OH268487   5.748   5.870   5.235  0.5575 -0.0162  0.3751
15691TIP3    H168488   5.723   5.860   5.143  0.4484 -0.1419  0.4178
15691TIP3    H268489   5.842   5.887   5.233  0.7039 -0.8132  0.2866
15692TIP3   OH268490   5.335   6.957   3.151  0.0452  0.1803  0.8248
15692TIP3    H168491   5.263   7.019   3.151  1.2480  1.6687 -1.6030
15692TIP3    H268492   5.302   6.880   3.105 -0.0151  0.8539 -0.2678
15693TIP3   OH268493   3.424   1.015   2.478  0.3166 -0.9771  0.8905
15693TIP3    H168494   3.406   1.017   2.572  0.7250  2.1111  0.9425
15693TIP3    H268495   3.404   0.925   2.452 -0.0130 -1.8243  3.8776
15694TIP3   OH268496   2.441   5.701   1.609 -0.0505  0.0813 -0.2771
15694TIP3    H168497   2.404   5.635   1.668  2.3667  0.0822  1.2798
15694TIP3    H268498   2.450   5.780   1.664  1.0386  0.4457 -0.9669
15695TIP3   OH268499   5.190   2.655   1.255 -0.3786 -0.5682  0.4681
15695TIP3    H168500   5.190   2.744   1.290 -1.9320  0.1666 -1.3669
15695TIP3    H268501   5.248   2.658   1.179 -0.6033 -1.0709  0.2685
15696TIP3   OH268502   4.314   4.778   4.309 -0.6019  0.1257 -0.2699
15696TIP3    H168503   4.257   4.705   4.283  1.3379 -1.6620  0.4280
15696TIP3    H268504   4.302   4.843   4.240 -1.6825 -1.2124 -1.3702
15697TIP3   OH268505   5.136   1.681   3.117  0.3581  0.7088 -0.2607
15697TIP3    H168506   5.227   1.697   3.094  1.5852 -2.0756  2.3225
15697TIP3    H268507   5.107   1.613   3.056  1.3201 -1.3447  1.5179
15698TIP3   OH268508   7.195   4.413   2.718  0.1837  0.1790  0.8865
15698TIP3    H168509   7.167   4.444   2.804  1.0153  2.2561  0.4253
15698TIP3    H268510   7.273   4.464   2.698  0.8193 -1.2816 -0.5028
15699TIP3   OH268511   4.183   2.461   3.380  0.3443  0.5891  0.4458
15699TIP3    H168512   4.155   2.423   3.463  0.3012  0.6271  0.4493
15699TIP3    H268513   4.194   2.555   3.399  1.9269  0.3373  0.8218
15700TIP3   OH268514   4.421   3.837   0.892 -0.5240  0.4642 -0.1715
15700TIP3    H168515   4.458   3.914   0.935 -1.7390  1.3426 -0.6734
15700TIP3    H268516   4.377   3.789   0.962 -2.9386  2.1540 -0.4705
15701TIP3   OH268517   4.953   3.536   2.947 -0.1822  0.9169  0.0830
15701TIP3    H168518   5.011   3.512   3.020  1.4474  1.8902 -0.8689
15701TIP3    H268519   4.999   3.507   2.869 -1.1166  1.4588 -0.6763
15702TIP3   OH268520   3.805   6.906   3.460 -0.1409  0.0784  0.1850
15702TIP3    H168521   3.816   6.945   3.547 -1.0980  0.5834  0.0874
15702TIP3    H268522   3.798   6.812   3.477 -0.4304  0.1807  0.6655
15703TIP3   OH268523   0.549   5.416   1.504  0.0438 -0.2142 -0.1319
15703TIP3    H168524   0.640   5.437   1.484  0.3299 -2.2358 -1.0566
15703TIP3    H268525   0.504   5.421   1.420 -0.3660 -0.8923  0.0437
15704TIP3   OH268526   4.018   6.269   3.112  0.7694 -0.4128  0.1924
15704TIP3    H168527   3.972   6.194   3.074  0.1283  0.5238 -0.9136
15704TIP3    H268528   4.007   6.258   3.207 -0.5008 -0.9970 -0.0060
15705TIP3   OH268529   3.916   6.912   0.566 -0.6016  0.6817 -0.2756
15705TIP3    H168530   3.823   6.892   0.570 -0.4027 -0.2287  0.0369
15705TIP3    H268531   3.927   6.958   0.483 -1.3196  0.7495 -0.3351
15706TIP3   OH268532   4.987   3.273   3.134  0.0793 -0.3021  0.2250
15706TIP3    H168533   4.920   3.325   3.179 -0.7818 -2.0983  1.0990
15706TIP3    H268534   5.040   3.236   3.204  1.3273  0.2255 -0.4293
15707TIP3   OH268535   5.546   6.005   1.511 -0.3258 -0.2542  0.0528
15707TIP3    H168536   5.490   6.052   1.573 -0.5611 -1.0385  0.4387
15707TIP3    H268537   5.626   6.057   1.507 -1.0530  0.8438 -0.4624
15708TIP3   OH268538   5.630   4.013   3.075 -0.4350  0.2572 -0.0732
15708TIP3    H168539   5.623   4.072   3.150 -0.5433 -0.3249  0.3769
15708TIP3    H268540   5.660   4.068   3.004  0.6604  0.6021  0.6521
15709TIP3   OH268541   5.331   1.972   4.151  0.4255 -0.1993  0.1790
15709TIP3    H168542   5.406   1.946   4.098  1.2240  1.2118  0.5817
15709TIP3    H268543   5.292   1.890   4.179  2.1839 -0.9655  0.4642
15710TIP3   OH268544   5.863   2.900   2.059 -0.3520  0.1462 -0.5597
15710TIP3    H168545   5.900   2.813   2.068  0.3146  0.5464  0.5669
15710TIP3    H268546   5.902   2.934   1.978  2.2123  0.7925  0.9216
15711TIP3   OH268547   2.220   3.895   4.349 -0.9539 -0.3191 -0.1287
15711TIP3    H168548   2.281   3.822   4.338 -1.4161 -0.5564 -1.2079
15711TIP3    H268549   2.260   3.950   4.416  0.6024 -0.3282 -1.0202
15712TIP3   OH268550   4.582   4.927   3.964  0.7786  0.1990 -0.1476
15712TIP3    H168551   4.589   4.839   4.002  0.0165  0.4395  0.5768
15712TIP3    H268552   4.671   4.962   3.967  1.0733 -0.5390 -0.3947
15713TIP3   OH268553   5.573   5.153   4.136 -0.0032 -0.1122  0.5085
15713TIP3    H168554   5.496   5.157   4.193 -0.0163 -1.0289  0.5728
15713TIP3    H268555   5.643   5.196   4.186 -0.0445 -0.8063  1.1709
15714TIP3   OH268556   6.292   2.877   2.413 -0.1387  0.3599 -0.9113
15714TIP3    H168557   6.256   2.961   2.385 -0.3028  0.6808  0.2602
15714TIP3    H268558   6.219   2.815   2.401 -0.7867  0.8265  0.5090
15715TIP3   OH268559   6.805   4.004   3.562  0.0644 -0.9073  0.0985
15715TIP3    H168560   6.788   4.004   3.656 -1.0655  1.8401 -0.0347
15715TIP3    H268561   6.899   4.018   3.555 -0.2283  1.7147  0.8545
15716TIP3   OH268562   0.693   4.336   3.719  0.2127  0.2178 -0.1509
15716TIP3    H168563   0.699   4.246   3.686 -1.1278 -0.1960  0.7191
15716TIP3    H268564   0.721   4.330   3.810 -1.1278  0.4445  0.2873
15717TIP3   OH268565   2.105   4.670   1.726  0.0941  0.0398  0.0092
15717TIP3    H168566   2.019   4.627   1.722 -0.6700  1.1015  3.4289
15717TIP3    H268567   2.100   4.738   1.658 -1.3006 -0.6713 -0.6272
15718TIP3   OH268568   5.366   4.120   4.783  0.0661  0.1818 -0.6808
15718TIP3    H168569   5.448   4.139   4.737  1.2460  0.4458  1.4534
15718TIP3    H268570   5.386   4.045   4.838 -0.7164  1.0989  0.8915
15719TIP3   OH268571   5.483   4.122   3.587  0.1271  0.4240 -0.1758
15719TIP3    H168572   5.473   4.041   3.638 -1.2360  0.2750 -0.6517
15719TIP3    H268573   5.523   4.184   3.648 -0.6956 -0.0154  0.8330
15720TIP3   OH268574   6.955   5.039   3.938 -0.6425 -0.0021  0.3401
15720TIP3    H168575   6.945   4.945   3.919 -0.8803  0.0180  0.3581
15720TIP3    H268576   6.865   5.070   3.950 -0.6066  0.3530 -0.2734
15721TIP3   OH268577   5.798   5.035   4.306  0.1280 -0.6053  0.7774
15721TIP3    H168578   5.762   4.992   4.384 -0.6491 -4.5789 -1.6711
15721TIP3    H268579   5.889   5.003   4.301  1.0986  1.9030  1.5891
15722TIP3   OH268580   7.117   5.320   3.288  0.2745  0.1546  0.3695
15722TIP3    H168581   7.173   5.254   3.331  1.6068  0.7475 -0.4264
15722TIP3    H268582   7.167   5.346   3.211 -2.0238 -0.7704 -1.4693
15723TIP3   OH268583   0.374   3.883   3.168  0.2590  0.2636 -0.3391
15723TIP3    H168584   0.389   3.884   3.074  0.7388 -2.6469 -0.3433
15723TIP3    H268585   0.409   3.798   3.197 -1.9247  0.1226  2.0907
15724TIP3   OH268586   5.852   3.269   2.510 -0.5970 -0.4138  0.7858
15724TIP3    H168587   5.845   3.193   2.453  0.0834 -0.6258  0.9814
15724TIP3    H268588   5.894   3.236   2.589 -0.7520  0.0609  1.0687
15725TIP3   OH268589   7.201   3.196   3.621 -1.0625 -0.1715 -0.5283
15725TIP3    H168590   7.163   3.121   3.576 -0.5909 -0.3947 -0.5500
15725TIP3    H268591   7.265   3.232   3.560  3.4498 -3.5824  1.8610
15726TIP3   OH268592   5.498   4.640   2.787  0.3677 -0.0287  0.3803
15726TIP3    H168593   5.461   4.723   2.816 -2.7722 -0.0849 -3.0689
15726TIP3    H268594   5.447   4.573   2.833  0.8326 -0.0879  0.8181
15727TIP3   OH268595   0.616   3.213   2.681  0.0027 -0.6203  0.5097
15727TIP3    H168596   0.585   3.126   2.707 -1.1128 -0.0213  1.2210
15727TIP3    H268597   0.634   3.205   2.587 -0.7755 -1.4327  0.4246
15728TIP3   OH268598   5.273   3.839   2.639 -0.0107 -0.1668 -0.5585
15728TIP3    H168599   5.257   3.827   2.733 -2.3342 -2.3096 -1.1738
15728TIP3    H268600   5.358   3.796   2.624  0.5520  0.5101  0.6063
15729TIP3   OH268601   1.893   4.942   0.516  0.0597  0.6429  0.0819
15729TIP3    H168602   1.855   4.992   0.444 -0.8138  0.7017  0.5804
15729TIP3    H268603   1.862   4.986   0.595 -0.2036 -0.3075  0.5166
15730TIP3   OH268604   5.480   3.739   1.297 -0.2026  0.1515  0.3647
15730TIP3    H168605   5.446   3.666   1.349  2.4142 -1.4986 -0.1323
15730TIP3    H268606   5.410   3.758   1.235 -0.1424 -3.4736 -0.9742
15731TIP3   OH268607   6.779   2.192   0.383 -0.0029 -0.0474  0.0686
15731TIP3    H168608   6.744   2.214   0.296  0.2019 -0.9822 -0.2603
15731TIP3    H268609   6.861   2.241   0.388  0.9946 -1.5594 -1.1009
15732TIP3   OH268610   7.071   5.079   2.257 -0.1520 -0.0703  0.5335
15732TIP3    H168611   6.986   5.101   2.218 -0.1421 -0.9705  0.0066
15732TIP3    H268612   7.135   5.110   2.193 -0.1192 -0.8625  0.1833
15733TIP3   OH268613   6.687   5.737   3.008 -0.3099  0.1074  0.7318
15733TIP3    H168614   6.659   5.795   2.937  1.2436 -0.2294 -0.1875
15733TIP3    H268615   6.762   5.781   3.047  0.9421 -1.2731 -0.0316
15734TIP3   OH268616   5.186   2.630   5.302 -0.4305  0.4385  0.3344
15734TIP3    H168617   5.131   2.594   5.372 -0.0459  0.7537  0.7990
15734TIP3    H268618   5.177   2.725   5.311 -1.4979  0.4793 -0.9355
15735TIP3   OH268619   0.463   4.300   3.108 -0.0967 -0.5617 -0.8673
15735TIP3    H168620   0.399   4.370   3.114 -2.0190 -2.0695 -3.1236
15735TIP3    H268621   0.546   4.342   3.129 -1.5757  1.7657  0.5836
15736TIP3   OH268622   0.554   5.052   0.538 -0.2058  0.2224  0.7858
15736TIP3    H168623   0.533   4.976   0.593 -0.1438  0.7172  1.4910
15736TIP3    H268624   0.648   5.045   0.523 -0.2580 -0.0291  0.5653
15737TIP3   OH268625   6.211   3.510  15.988 -1.0309  0.5904  0.3369
15737TIP3    H168626   6.199   3.545  16.076  0.8507 -1.9561  1.6662
15737TIP3    H268627   6.299   3.539  15.962 -2.0167  2.3012 -1.2114
15738TIP3   OH268628   5.994   4.673   0.749 -0.2646 -0.1281 -0.1606
15738TIP3    H168629   6.084   4.653   0.724 -0.0784  1.1036 -0.5018
15738TIP3    H268630   6.000   4.757   0.796 -1.0499 -0.7483  1.0813
15739TIP3   OH268631   2.672   2.226   0.392 -0.2187 -0.0531  0.0520
15739TIP3    H168632   2.629   2.209   0.476 -1.1468  0.9562 -0.2048
15739TIP3    H268633   2.724   2.304   0.406  2.1033 -1.6391  0.5429
15740TIP3   OH268634   7.196   5.145   5.921  0.2876 -0.4812 -0.0451
15740TIP3    H168635   7.164   5.233   5.940 -0.8727 -0.7057 -0.8851
15740TIP3    H268636   7.282   5.160   5.881  0.8278  0.1779  1.3459
15741TIP3   OH268637   7.048   4.816   5.066 -0.7012 -0.0176  0.0129
15741TIP3    H168638   7.026   4.821   5.159  1.1919 -0.5469  0.5078
15741TIP3    H268639   7.085   4.728   5.055 -1.3709 -0.1406 -1.3451
15742TIP3   OH268640   0.999   5.212   2.632 -0.3715  0.2268  0.7352
15742TIP3    H168641   0.959   5.247   2.552 -0.7592  1.3677  1.4211
15742TIP3    H268642   0.957   5.260   2.703  3.1853  2.4326  1.4320
15743TIP3   OH268643   0.681   2.387   1.473 -0.2189 -0.3296 -0.8827
15743TIP3    H168644   0.639   2.331   1.538  0.0279 -0.4251 -0.8031
15743TIP3    H268645   0.671   2.475   1.508 -0.3732 -0.3498 -0.8754
15744TIP3   OH268646   0.961   5.045   4.515 -0.2090  0.4962 -0.3108
15744TIP3    H168647   0.896   5.114   4.526  0.1863  0.8071  0.1060
15744TIP3    H268648   0.949   4.987   4.590  0.3364  0.8341  0.0340
15745TIP3   OH268649   0.314   6.374   2.337 -0.3187 -0.7182  0.2994
15745TIP3    H168650   0.396   6.327   2.320  0.1641 -0.3736  1.6343
15745TIP3    H268651   0.252   6.305   2.359 -0.0488 -0.8710  0.5887
15746TIP3   OH268652   0.265   5.789   1.384  0.2455 -0.3137 -0.1700
15746TIP3    H168653   0.209   5.865   1.401  1.0973 -0.0032  1.2950
15746TIP3    H268654   0.323   5.818   1.313  0.3262  0.2949  0.1372
15747TIP3   OH268655   6.808   3.952   4.687 -0.1163 -0.3004  0.2519
15747TIP3    H168656   6.849   4.004   4.756 -0.7676  0.0215  0.3990
15747TIP3    H268657   6.745   4.011   4.646  3.2395  0.9101 -3.4648
15748TIP3   OH268658   0.278   3.101   3.664  0.5248  0.2466  0.1851
15748TIP3    H168659   0.295   3.192   3.637  0.1438  0.9230  2.1202
15748TIP3    H268660   0.366   3.065   3.680  0.6984  0.1459 -0.9890
15749TIP3   OH268661   6.754   3.677   4.129 -0.2154  0.1796 -0.8596
15749TIP3    H168662   6.757   3.644   4.219 -0.2586  0.1266 -0.8773
15749TIP3    H268663   6.663   3.704   4.117 -0.7109 -1.7211 -1.5642
15750TIP3   OH268664   0.776   6.350   1.102 -0.6022 -0.0785 -0.3369
15750TIP3    H168665   0.714   6.418   1.130 -0.5606 -0.1693 -0.0163
15750TIP3    H268666   0.759   6.339   1.009 -0.9545  0.0177 -0.2877
15751TIP3   OH268667   5.612   3.720   3.260 -0.4749 -0.4598 -0.2333
15751TIP3    H168668   5.635   3.803   3.220 -2.7185 -0.0915 -0.8332
15751TIP3    H268669   5.662   3.717   3.341  1.4578  0.3568 -1.3719
15752TIP3   OH268670   6.016   5.306   1.508  0.2104 -0.0176  0.7786
15752TIP3    H168671   5.984   5.365   1.576  0.3402 -1.0518  1.7669
15752TIP3    H268672   5.958   5.321   1.433  0.1873  1.2739  1.0398
15753TIP3   OH268673   6.687   2.724   3.041 -0.1210 -0.1271  0.3809
15753TIP3    H168674   6.748   2.752   2.973  0.1812  0.0195  0.7108
15753TIP3    H268675   6.729   2.749   3.123 -0.6446  0.0163  0.6075
15754TIP3   OH268676   4.788   5.189   0.993 -0.3205 -0.7068 -0.2247
15754TIP3    H168677   4.780   5.249   1.067 -0.9752  0.0650 -0.9124
15754TIP3    H268678   4.704   5.144   0.989 -0.8546  0.3682 -1.4392
15755TIP3   OH268679   0.663   2.800   3.326  0.4770 -0.6446  0.0527
15755TIP3    H168680   0.608   2.723   3.312 -0.3477  0.0347 -0.4871
15755TIP3    H268681   0.665   2.845   3.242 -0.1034  0.6032  0.6864
15756TIP3   OH268682   7.112   5.236   1.226  0.2853  0.2780 -0.5040
15756TIP3    H168683   7.122   5.331   1.236 -0.8157  0.4818 -1.1948
15756TIP3    H268684   7.188   5.209   1.176  1.2908  0.5873  0.8337
15757TIP3   OH268685   0.352   6.538   4.052  0.1717 -0.3879  0.3097
15757TIP3    H168686   0.261   6.542   4.022  0.6178 -1.4826 -1.2430
15757TIP3    H268687   0.375   6.629   4.071 -0.7418  0.1125 -0.9083
15758TIP3   OH268688   1.002   3.542   2.733  0.0921 -0.1753 -0.4433
15758TIP3    H168689   0.927   3.496   2.695  0.3695 -0.5685 -0.5258
15758TIP3    H268690   1.014   3.619   2.677  0.6365 -0.8669 -1.2987
15759TIP3   OH268691   6.622   6.474   3.524 -0.5109  0.0825 -0.0115
15759TIP3    H168692   6.563   6.525   3.579  0.5925  1.5317 -0.1478
15759TIP3    H268693   6.709   6.489   3.561  0.0787 -0.0387 -1.3021
15760TIP3   OH268694   5.085   5.530   2.099  0.1007  0.3744 -0.5587
15760TIP3    H168695   5.091   5.559   2.190  0.0656  0.0722 -0.4594
15760TIP3    H268696   5.149   5.458   2.092 -0.0799  0.2268 -0.7066
15761TIP3   OH268697   5.659   0.180   2.705  0.1704  0.3020  0.2215
15761TIP3    H168698   5.585   0.188   2.644  1.2525  0.1994 -1.1198
15761TIP3    H268699   5.661   0.265   2.750  0.0207  0.7847 -0.6573
15762TIP3   OH268700   1.858   3.544   3.763 -0.0578 -0.1106 -0.1280
15762TIP3    H168701   1.846   3.469   3.821 -1.3236 -0.1304 -0.3954
15762TIP3    H268702   1.861   3.620   3.821  0.8706 -0.3341  0.1174
15763TIP3   OH268703   0.519   6.974   3.535 -0.1354 -0.1024  0.3172
15763TIP3    H168704   0.485   7.037   3.599  1.8306  0.0942  1.2310
15763TIP3    H268705   0.593   7.020   3.495 -1.8726  0.1047 -2.7757
15764TIP3   OH268706   6.170   3.118   2.426  0.2911 -0.2651  0.1650
15764TIP3    H168707   6.076   3.122   2.410  0.3193 -0.8104 -0.1439
15764TIP3    H268708   6.188   3.192   2.484 -0.7018 -1.4959  2.0887
15765TIP3   OH268709   6.057   5.469   3.986 -0.2743 -0.1978 -0.2635
15765TIP3    H168710   6.035   5.562   3.988  0.4210 -0.0291 -0.6477
15765TIP3    H268711   6.136   5.463   3.933 -1.4108 -1.2394 -1.8834
15766TIP3   OH268712   0.455   3.623   3.262  0.0139  0.0067 -0.5883
15766TIP3    H168713   0.531   3.626   3.319  0.3079  0.0864 -0.9856
15766TIP3    H268714   0.380   3.616   3.322  0.2882  0.5860 -0.1736
15767TIP3   OH268715   5.557   6.810   1.369  0.0321 -0.5739  0.4899
15767TIP3    H168716   5.614   6.798   1.293  1.2837  1.3228  1.0939
15767TIP3    H268717   5.502   6.886   1.346 -0.8859 -1.1595  0.7223
15768TIP3   OH268718   5.558   5.975   2.255  0.1151 -0.2081 -0.0921
15768TIP3    H168719   5.650   5.999   2.244  0.3785 -1.7706 -1.4275
15768TIP3    H268720   5.536   6.006   2.343  1.8213  0.4611  0.1214
15769TIP3   OH268721   0.488   2.593   2.914 -0.5031  0.4118 -0.7537
15769TIP3    H168722   0.553   2.564   2.850 -0.1626 -0.9869  0.2021
15769TIP3    H268723   0.538   2.629   2.986 -0.7552 -0.8033  0.0512
15770TIP3   OH268724   6.247   4.899   2.996  0.1354 -0.0849  0.1593
15770TIP3    H168725   6.286   4.983   3.019 -0.1086 -0.2878  1.4032
15770TIP3    H268726   6.157   4.920   2.972  0.4045  0.1408 -0.6510
15771TIP3   OH268727   6.711   5.316   1.100  0.5794  0.2756 -0.3572
15771TIP3    H168728   6.778   5.254   1.128 -1.4144 -2.2080 -0.8665
15771TIP3    H268729   6.652   5.324   1.176  0.3387  0.8831 -0.6002
15772TIP3   OH268730   5.905   3.337   4.964  0.8601 -0.0683 -0.2068
15772TIP3    H168731   5.822   3.341   4.917  1.5923 -0.4389 -1.5724
15772TIP3    H268732   5.896   3.261   5.022  0.5619 -0.6487 -0.9969
15773TIP3   OH268733   0.258   4.772   2.868 -0.5222  0.4512 -0.1956
15773TIP3    H168734   0.203   4.699   2.896 -1.1902  0.4959 -1.3643
15773TIP3    H268735   0.208   4.814   2.798  0.6159  1.0133 -0.6837
15774TIP3   OH268736   2.524   4.974   2.048  0.6252 -0.2132 -0.2387
15774TIP3    H168737   2.526   5.028   1.969  0.0715  1.2735  0.7380
15774TIP3    H268738   2.597   5.005   2.101 -1.1377  1.2889  1.3949
15775TIP3   OH268739   6.776   5.023   1.570 -0.0135 -0.3038  0.0859
15775TIP3    H168740   6.693   5.070   1.563  1.3239  2.2467  0.8685
15775TIP3    H268741   6.751   4.936   1.600 -2.4112  0.4387  0.4038
15776TIP3   OH268742   0.686   2.090   2.653  0.1410  0.0665 -0.1017
15776TIP3    H168743   0.648   2.064   2.737 -0.4668  0.8394 -0.1340
15776TIP3    H268744   0.612   2.123   2.602  0.8076  1.3574 -0.2536
15777TIP3   OH268745   6.047   4.170   2.813 -0.1213  0.2419 -0.3861
15777TIP3    H168746   6.092   4.218   2.744  1.3600 -0.0961  0.3192
15777TIP3    H268747   6.096   4.087   2.820 -1.0550 -0.2676  0.1676
15778TIP3   OH268748   1.209   1.280   2.725 -0.0798  0.1260 -0.2519
15778TIP3    H168749   1.122   1.301   2.692  0.2155 -0.0773 -1.1727
15778TIP3    H268750   1.268   1.331   2.671  0.2238  3.2458  2.8106
15779TIP3   OH268751   0.067   4.051   3.541 -0.6202 -0.5082 -0.0273
15779TIP3    H168752   0.140   3.998   3.509  0.7012  0.5095  1.2254
15779TIP3    H268753   0.044   4.108   3.468  0.7094  0.0581 -0.0126
15780TIP3   OH268754   6.945   5.101   2.750 -0.0145  0.7163 -0.2546
15780TIP3    H168755   6.891   5.072   2.676  0.9515 -0.1394 -0.6473
15780TIP3    H268756   7.028   5.128   2.710  0.3729  0.6259  0.4749
15781TIP3   OH268757   0.571   6.279   2.817 -0.0121 -0.5730  0.4867
15781TIP3    H168758   0.634   6.316   2.879 -1.4489 -0.0471  1.6627
15781TIP3    H268759   0.510   6.229   2.871  0.1387 -2.1636 -0.7807
15782TIP3   OH268760   7.112   3.431   2.926 -0.1777 -0.3279 -0.3908
15782TIP3    H168761   7.166   3.358   2.956  0.0676  0.5527  1.3759
15782TIP3    H268762   7.026   3.393   2.911 -0.1262 -0.9418  0.7880
15783TIP3   OH268763   6.269   5.762   1.971 -0.2926  0.2012 -0.4836
15783TIP3    H168764   6.298   5.851   1.953 -0.9094  0.3902 -0.5388
15783TIP3    H268765   6.241   5.728   1.886 -1.1392  0.3444 -0.2593
15784TIP3   OH268766   1.987   3.939   4.439  0.3741 -0.0706 -0.1237
15784TIP3    H168767   1.966   3.873   4.505  0.7359  0.5597  0.6242
15784TIP3    H268768   2.063   3.903   4.393  0.0635 -0.5536 -0.2683
15785TIP3   OH268769   0.034   5.478   2.662 -0.7568 -0.4232  0.1064
15785TIP3    H168770   0.041   5.562   2.617  0.3704  0.0194  1.0714
15785TIP3    H268771   0.094   5.486   2.736 -2.1358 -1.3492  1.3524
15786TIP3   OH268772   1.084   4.998   1.948 -0.5522  0.1185 -0.3567
15786TIP3    H168773   1.156   4.971   2.005 -0.8603 -0.1481 -0.0920
15786TIP3    H268774   1.024   5.047   2.004 -2.6510 -3.1697  0.4347
15787TIP3   OH268775   5.371   5.392  15.074  0.2378  0.1271 -0.0043
15787TIP3    H168776   5.339   5.477  15.103  0.5523 -0.2134  1.3983
15787TIP3    H268777   5.339   5.331  15.140 -0.1513 -0.8786 -1.1043
15788TIP3   OH268778   0.498   1.923   2.453  0.2995 -0.2145 -0.2629
15788TIP3    H168779   0.407   1.928   2.484  0.2895  0.3118 -0.3682
15788TIP3    H268780   0.527   1.836   2.480 -0.7743 -1.0496 -1.7538
15789TIP3   OH268781   2.210   4.499   2.815 -0.2388 -0.0126 -0.5509
15789TIP3    H168782   2.197   4.482   2.909  1.1508  3.5561  0.3670
15789TIP3    H268783   2.257   4.422   2.783 -0.7389 -1.2926  1.6708
15790TIP3   OH268784   1.306   3.624   2.539 -0.7982  0.1822 -0.0020
15790TIP3    H168785   1.236   3.632   2.474  0.5884  1.6290 -1.3813
15790TIP3    H268786   1.369   3.564   2.500 -0.2010  0.6545  0.2158
15791TIP3   OH268787   5.308   2.675  15.043 -0.0394  0.3145 -0.8973
15791TIP3    H168788   5.330   2.620  14.969  1.8941 -0.1109 -0.0371
15791TIP3    H268789   5.377   2.657  15.108 -0.8297  1.8031  0.3923
15792TIP3   OH268790   0.324   5.458   3.275  0.4072  0.3578  0.0180
15792TIP3    H168791   0.252   5.520   3.289 -0.5152 -0.7064 -0.0277
15792TIP3    H268792   0.402   5.505   3.308 -0.5446  0.8758  1.5676
15793TIP3   OH268793   0.422   3.049   1.867  0.4339  0.0310 -0.3627
15793TIP3    H168794   0.507   3.093   1.864  0.5563 -0.1697  0.1519
15793TIP3    H268795   0.360   3.119   1.890  0.3662  0.3071 -1.3592
15794TIP3   OH268796   6.579   2.876   1.901  0.1278  0.6056  0.4520
15794TIP3    H168797   6.664   2.892   1.940 -0.2014 -1.5783  2.1264
15794TIP3    H268798   6.598   2.842   1.814  0.9254  1.4289  0.2979
15795TIP3   OH268799   5.930   3.913   2.082  0.2767 -0.1811 -0.0829
15795TIP3    H168800   5.952   3.996   2.123 -0.9471  0.4057 -0.5890
15795TIP3    H268801   5.946   3.848   2.151  0.2519  0.5750  0.6494
15796TIP3   OH268802   7.069   6.085   3.017  0.1616  0.6574 -0.5730
15796TIP3    H168803   7.084   5.997   2.985  2.3564  1.0672 -0.7127
15796TIP3    H268804   7.095   6.142   2.945  0.2106  1.4634  0.0763
15797TIP3   OH268805   5.974   3.050   5.512 -0.3410  0.5189 -0.6460
15797TIP3    H168806   5.905   3.111   5.539 -0.0665  0.4746  0.1686
15797TIP3    H268807   6.054   3.103   5.512 -0.1539  0.2365 -0.2418
15798TIP3   OH268808   1.759   7.212   3.739 -0.3252 -0.7537  1.1425
15798TIP3    H168809   1.709   7.234   3.818  0.3956 -0.4423  1.5191
15798TIP3    H268810   1.813   7.138   3.765 -0.2552 -0.7978  0.8725
15799TIP3   OH268811   0.068   4.985   3.531  0.0153 -0.6922 -0.4947
15799TIP3    H168812  -0.024   4.996   3.506 -1.0092 -3.5132  1.7676
15799TIP3    H268813   0.076   5.034   3.613  0.2806 -1.1849 -0.2262
15800TIP3   OH268814   5.141   4.096   2.001  0.2259  0.1760  0.0207
15800TIP3    H168815   5.161   4.188   2.018 -0.1824  0.5600 -1.4859
15800TIP3    H268816   5.173   4.081   1.912  0.5511 -1.2263  0.3532
15801TIP3   OH268817   1.269   5.166   2.611  0.2896  0.2980  0.0700
15801TIP3    H168818   1.180   5.191   2.635 -0.8423 -0.1368 -3.4426
15801TIP3    H268819   1.322   5.243   2.632 -0.8554  0.5239  2.2674
15802TIP3   OH268820   6.526   6.353   2.740  0.1551  0.0659  0.1988
15802TIP3    H168821   6.552   6.381   2.652  1.5535 -0.3714  0.4657
15802TIP3    H268822   6.526   6.433   2.792  2.8101 -0.1651  0.6333
15803TIP3   OH268823   0.214   5.050   1.520  0.1226  0.4148  0.0508
15803TIP3    H168824   0.129   5.093   1.511 -0.2088 -0.5133 -1.5983
15803TIP3    H268825   0.198   4.977   1.580  0.1950  1.3615  1.2121
15804TIP3   OH268826   4.598   6.160   1.818 -0.0361 -0.2401 -0.1759
15804TIP3    H168827   4.628   6.251   1.820 -0.5175 -0.0826  0.0865
15804TIP3    H268828   4.666   6.111   1.865  0.1343  0.0116 -0.1593
15805TIP3   OH268829   6.562   3.210   4.567  0.2391  0.0140 -0.2078
15805TIP3    H168830   6.541   3.179   4.655 -0.1519  0.7140 -0.0520
15805TIP3    H268831   6.478   3.217   4.522  0.3371  0.7124 -0.2869
15806TIP3   OH268832   0.071   5.184   2.265 -0.0053 -0.4334 -0.5017
15806TIP3    H168833   0.161   5.216   2.267  0.7769 -2.4943 -1.5090
15806TIP3    H268834   0.042   5.188   2.356  1.0818  0.2945 -0.1793
15807TIP3   OH268835   0.030   3.667   1.373 -0.2175 -0.1697  0.1979
15807TIP3    H168836   0.026   3.605   1.446  1.3542 -1.6165 -0.9069
15807TIP3    H268837   0.067   3.616   1.300 -1.8805  1.1984 -1.6636
15808TIP3   OH268838   6.788   4.184   3.796  0.0869  0.7285 -0.0151
15808TIP3    H168839   6.723   4.147   3.856 -0.1953  0.7039 -0.3370
15808TIP3    H268840   6.866   4.197   3.851  0.7331 -1.8573 -0.2545
15809TIP3   OH268841   0.118   4.612   4.364 -0.7544  0.3111  0.7309
15809TIP3    H168842   0.043   4.671   4.374 -2.5187 -1.8818  0.9503
15809TIP3    H268843   0.128   4.602   4.270  0.9407  2.5884  0.6129
15810TIP3   OH268844   6.756   6.749   2.881  0.4305  0.1179 -0.2917
15810TIP3    H168845   6.763   6.809   2.806  0.7032 -0.0056 -0.3659
15810TIP3    H268846   6.672   6.704   2.867 -0.1593  1.0466  0.1901
15811TIP3   OH268847   0.734   5.790   1.502  0.0376 -0.3691 -0.5656
15811TIP3    H168848   0.680   5.719   1.535 -0.1485 -0.2193 -0.5484
15811TIP3    H268849   0.788   5.816   1.576 -0.0748 -0.3203 -0.5015
15812TIP3   OH268850   6.553   5.270   3.106 -0.3357  0.5052  1.1327
15812TIP3    H168851   6.533   5.363   3.094 -3.5858 -0.1135  1.2998
15812TIP3    H268852   6.576   5.262   3.199  0.0822  1.1686  1.0851
15813TIP3   OH268853   5.917   6.988   2.861 -0.2116 -0.5244 -0.1724
15813TIP3    H168854   5.828   6.957   2.840 -0.0948 -0.6383 -0.4970
15813TIP3    H268855   5.924   6.977   2.956 -0.6793 -0.1634 -0.0954
15814TIP3   OH268856   0.933   1.719   2.784 -0.3012 -0.5906  0.0811
15814TIP3    H168857   0.894   1.785   2.727  0.8121 -0.4096 -0.4810
15814TIP3    H268858   0.859   1.665   2.813 -1.0098 -0.0172 -0.6569
15815TIP3   OH268859   0.547   4.234   2.527 -0.1216  0.4311 -0.2025
15815TIP3    H168860   0.575   4.159   2.475 -0.8867 -1.9307  2.6940
15815TIP3    H268861   0.627   4.269   2.566 -0.1740 -1.0991  1.2986
15816TIP3   OH268862   0.356   3.811   2.554  0.2060  0.2113  0.1706
15816TIP3    H168863   0.441   3.852   2.568  0.0539  0.2647  0.9079
15816TIP3    H268864   0.342   3.818   2.459  1.5874 -0.8964 -0.1318
15817TIP3   OH268865   5.853   5.834   2.795 -0.6872  0.1321 -0.1182
15817TIP3    H168866   5.807   5.807   2.715  1.2812  1.0744 -1.6167
15817TIP3    H268867   5.926   5.887   2.763  0.0279  0.6669  2.3433
15818TIP3   OH268868   0.598   3.914   2.635  0.2453  0.0002  0.0753
15818TIP3    H168869   0.633   3.846   2.693 -2.1649 -0.4135  1.1051
15818TIP3    H268870   0.674   3.942   2.583  1.2153 -3.9274 -0.8438
15819TIP3   OH268871   5.906   3.492   2.853  0.1301  0.5452 -0.5982
15819TIP3    H168872   5.823   3.495   2.807  0.0800  0.4616 -0.5120
15819TIP3    H268873   5.956   3.424   2.808  1.0156  2.1438 -2.1087
15820TIP3   OH268874   6.284   5.206  15.955 -0.8496 -0.6597 -0.2620
15820TIP3    H168875   6.258   5.272  15.891  0.1162  1.5608  1.5632
15820TIP3    H268876   6.311   5.131  15.902 -1.4744  0.5789 -2.4054
15821TIP3   OH268877   3.231   3.321   1.764 -0.0196 -0.3924 -0.6703
15821TIP3    H168878   3.196   3.233   1.749 -1.1447 -0.3577  1.5509
15821TIP3    H268879   3.171   3.379   1.718  0.0347 -0.6987 -1.1291
15822TIP3   OH268880   1.034   4.046   3.861 -0.3648  0.2779  0.2081
15822TIP3    H168881   1.116   4.055   3.910 -1.0495  0.1132  1.4278
15822TIP3    H268882   1.002   4.136   3.851 -1.2665  0.1887  1.9485
15823TIP3   OH268883   2.972   3.696   3.567 -0.5274 -0.6149  0.0542
15823TIP3    H168884   2.891   3.744   3.551 -0.9006 -1.2736 -0.0206
15823TIP3    H268885   2.944   3.609   3.594  0.1398 -1.4805 -1.9015
15824TIP3   OH268886   4.985   5.557   0.810  0.3104 -0.3630 -0.2284
15824TIP3    H168887   5.020   5.494   0.871 -0.9781 -0.8710  0.0074
15824TIP3    H268888   5.054   5.570   0.745  1.4104 -0.3403  0.9394
15825TIP3   OH268889   7.295   2.618   3.399  0.2108 -0.5761 -0.0114
15825TIP3    H168890   7.321   2.548   3.338 -0.7394 -1.1945  0.2963
15825TIP3    H268891   7.211   2.589   3.435 -0.8425  1.3589 -0.8811
15826TIP3   OH268892   2.588   5.094   1.757  0.6434 -0.5203 -0.1755
15826TIP3    H168893   2.665   5.041   1.774  0.2044 -1.9156 -2.2913
15826TIP3    H268894   2.531   5.038   1.704 -2.5905 -0.1350  2.7235
15827TIP3   OH268895   6.183   4.517   5.352 -0.0268  0.1698 -0.4143
15827TIP3    H168896   6.155   4.464   5.277 -0.3058 -2.1387  1.2727
15827TIP3    H268897   6.105   4.524   5.406  0.9162 -0.7032  1.0885
15828TIP3   OH268898   6.873   4.015   1.847 -0.3030 -0.3798  0.0396
15828TIP3    H168899   6.924   3.989   1.924 -0.4274 -0.3864  0.1198
15828TIP3    H268900   6.784   4.025   1.880 -0.3153 -0.1621 -0.0576
15829TIP3   OH268901   6.911   3.893   2.816  0.5883  0.6780  0.0015
15829TIP3    H168902   6.953   3.874   2.732 -0.8366 -0.6383 -0.4321
15829TIP3    H268903   6.916   3.811   2.865 -0.9599  0.6498  0.1454
15830TIP3   OH268904   5.488   3.466   5.148  0.1810  0.5756 -0.1195
15830TIP3    H168905   5.408   3.516   5.136  1.3883  2.2587 -1.4386
15830TIP3    H268906   5.541   3.520   5.207 -0.5146 -1.5752  2.5720
15831TIP3   OH268907   2.150   1.239  15.741  0.3832  0.0807  0.0620
15831TIP3    H168908   2.109   1.180  15.804  0.5169 -0.0055  0.0664
15831TIP3    H268909   2.237   1.257  15.776  0.3443  0.2807  0.0610
15832TIP3   OH268910   7.228   4.899   1.969 -0.1028 -0.1724 -0.5073
15832TIP3    H168911   7.299   4.889   2.032 -0.8727  0.6376  0.5213
15832TIP3    H268912   7.243   4.985   1.930 -1.6920  0.9455  1.2605
15833TIP3   OH268913   7.022   4.546   4.060  0.0744  0.0272  0.1112
15833TIP3    H168914   7.072   4.565   4.139  1.0771  2.4489 -1.0179
15833TIP3    H268915   6.963   4.475   4.084  0.3393  0.7397  3.0143
15834TIP3   OH268916   0.681   3.808   5.286 -0.2532 -0.0426 -0.0135
15834TIP3    H168917   0.592   3.839   5.299 -0.1422  0.6512 -0.8322
15834TIP3    H268918   0.735   3.863   5.344 -0.4794 -1.2120  1.3187
15835TIP3   OH268919   0.113   5.782   2.895 -0.2813  0.1587 -0.3949
15835TIP3    H168920   0.150   5.779   2.983 -2.4187  0.5160  0.5580
15835TIP3    H268921   0.113   5.875   2.872 -1.6419  0.2862  0.0913
15836TIP3   OH268922   5.509   2.613   5.807 -0.4013  0.5931 -0.8526
15836TIP3    H168923   5.582   2.617   5.745 -2.3811  1.0037 -3.2755
15836TIP3    H268924   5.480   2.522   5.804  0.4801  0.2563  0.6854
15837TIP3   OH268925   6.351   4.672   2.257 -0.2476  0.2516 -0.2237
15837TIP3    H168926   6.385   4.602   2.312  1.0742 -0.0907 -1.4543
15837TIP3    H268927   6.427   4.702   2.207 -1.5573  0.1158 -2.3463
15838TIP3   OH268928   1.058   3.964   3.570 -0.7196  0.6465  0.6206
15838TIP3    H168929   0.972   3.934   3.596 -0.0085 -0.3854  1.8306
15838TIP3    H268930   1.119   3.914   3.624  0.6643  0.9421 -0.6191
15839TIP3   OH268931   4.981   4.120   4.042  0.5270  0.6030  0.0087
15839TIP3    H168932   4.998   4.041   3.991 -0.6804  1.4494 -1.7751
15839TIP3    H268933   4.885   4.128   4.041  0.5989  1.5965  0.9095
15840TIP3   OH268934   4.524   5.413   1.141  0.3667  0.1025  0.2437
15840TIP3    H168935   4.571   5.330   1.143 -0.6031 -0.4283  1.5932
15840TIP3    H268936   4.520   5.442   1.232 -1.5847  0.2970  0.1284
15841TIP3   OH268937   6.955   4.996   4.889  0.4966  0.2692 -0.2607
15841TIP3    H168938   6.972   4.941   4.966 -0.2048 -0.7757 -0.8386
15841TIP3    H268939   7.021   4.969   4.825 -0.8374 -1.0431 -1.1119
15842TIP3   OH268940   5.416   5.789   1.771  0.1602  0.4781 -0.1416
15842TIP3    H168941   5.431   5.757   1.682 -1.4752  0.3398 -0.3908
15842TIP3    H268942   5.432   5.713   1.827 -2.0105 -0.3444 -0.5924
15843TIP3   OH268943   0.227   5.274   3.607  0.1815 -0.2599  0.0919
15843TIP3    H168944   0.170   5.340   3.568  0.1658 -1.1003 -1.3378
15843TIP3    H268945   0.294   5.257   3.540  2.1841  0.8002  1.7908
15844TIP3   OH268946   0.889   5.567   5.035  0.1473  0.3947  0.5743
15844TIP3    H168947   0.825   5.526   5.093 -0.6751 -1.5781 -1.6642
15844TIP3    H268948   0.843   5.576   4.951  1.7626  1.9480 -0.1791
15845TIP3   OH268949   6.756   1.349   5.258 -0.0599  0.4676 -0.0845
15845TIP3    H168950   6.701   1.387   5.327 -0.5931 -0.0912 -0.1984
15845TIP3    H268951   6.696   1.330   5.187  0.6501  1.9434 -1.0895
15846TIP3   OH268952   5.285   4.090   4.071  0.1050 -0.1751  0.5969
15846TIP3    H168953   5.245   4.170   4.038  0.2970 -0.4136 -0.2344
15846TIP3    H268954   5.245   4.020   4.019  0.1714 -0.5883  1.0997
15847TIP3   OH268955   5.969   4.324   3.667  0.1984  0.1513 -0.5000
15847TIP3    H168956   5.909   4.364   3.729  0.7069  1.8214 -1.0817
15847TIP3    H268957   5.954   4.370   3.585  0.3802 -1.2353 -1.3276
15848TIP3   OH268958   2.477   1.204   4.691 -0.2349 -0.3960 -0.7316
15848TIP3    H168959   2.437   1.220   4.776 -1.3791  0.8990 -1.4962
15848TIP3    H268960   2.499   1.290   4.657  0.7804 -0.9381 -1.4914
15849TIP3   OH268961   6.852   5.494   3.018 -0.1510  0.2019  0.6510
15849TIP3    H168962   6.800   5.573   3.010 -0.2491  0.1571  0.8287
15849TIP3    H268963   6.809   5.430   2.961 -0.4456  0.0868  1.0038
15850TIP3   OH268964   5.610   3.588   4.862  0.2680 -0.2096 -0.6622
15850TIP3    H168965   5.611   3.494   4.883  1.6524 -0.2783 -0.9403
15850TIP3    H268966   5.545   3.597   4.792  0.7069 -1.1024 -1.1959
15851TIP3   OH268967   6.688   3.472   4.648  0.3604 -0.3155 -0.2437
15851TIP3    H168968   6.675   3.377   4.659 -0.4361 -0.2800 -0.8603
15851TIP3    H268969   6.641   3.511   4.722 -0.8793 -0.3156 -1.0211
15852TIP3   OH268970   7.191   4.727   3.410 -0.1299  0.1464 -0.3001
15852TIP3    H168971   7.233   4.643   3.427  0.1069  0.3763  0.2858
15852TIP3    H268972   7.152   4.752   3.495  1.9129  1.7930  0.2054
15853TIP3   OH268973   1.108   2.923   1.599 -0.5718  0.3329 -0.0760
15853TIP3    H168974   1.077   2.899   1.686 -0.4090  0.9700  0.1630
15853TIP3    H268975   1.037   2.896   1.540  0.0879 -1.7482  0.0497
15854TIP3   OH268976   5.293   5.112   3.310  0.3430  0.1925  0.1682
15854TIP3    H168977   5.309   5.172   3.383 -1.5052  1.2519 -0.2689
15854TIP3    H268978   5.224   5.053   3.341  1.4369 -1.0801  0.2263
15855TIP3   OH268979   5.601   3.759   3.926 -0.0430 -0.3138  0.2039
15855TIP3    H168980   5.629   3.802   4.007 -0.0432  0.2129 -0.0700
15855TIP3    H268981   5.623   3.667   3.938  2.4711  0.1692 -0.2684
15856TIP3   OH268982   6.699   2.247   2.629 -0.0746  0.1560  0.2422
15856TIP3    H168983   6.613   2.260   2.669 -0.1362 -1.5066  0.6721
15856TIP3    H268984   6.735   2.336   2.622 -1.8656  0.8899 -0.0854
15857TIP3   OH268985   0.253   5.569   2.797  0.2238  0.4647  0.2353
15857TIP3    H168986   0.312   5.524   2.858 -3.3683 -0.7057  3.0129
15857TIP3    H268987   0.217   5.641   2.848  0.3589  2.0790 -1.9028
15858TIP3   OH268988   5.130   4.171  15.508  0.5863  0.6131  0.1658
15858TIP3    H168989   5.045   4.131  15.493  1.3783 -0.1490 -2.5841
15858TIP3    H268990   5.174   4.112  15.569 -0.3025  0.2204  0.4353
15859TIP3   OH268991   0.944   6.236   4.908  0.6524  0.3793  0.4029
15859TIP3    H168992   0.933   6.251   5.001 -1.7010 -0.1252  0.2421
15859TIP3    H268993   0.872   6.282   4.867  1.7519  0.7303 -1.2005
15860TIP3   OH268994   0.389   3.868   2.900 -0.0799  0.3821  0.6767
15860TIP3    H168995   0.363   3.902   2.814  0.8538  1.6600  0.8832
15860TIP3    H268996   0.389   3.773   2.889  0.6617  0.5474 -0.9305
15861TIP3   OH268997   6.706   6.243   1.408  0.0928  0.4289  0.0185
15861TIP3    H168998   6.760   6.320   1.388 -0.8679  1.2613  0.5669
15861TIP3    H268999   6.617   6.272   1.391 -0.3182 -0.4210  0.7063
15862TIP3   OH269000   7.073   5.219   2.022  0.1182 -0.0543 -0.8610
15862TIP3    H169001   7.076   5.314   2.011  0.2533 -0.0069 -0.3938
15862TIP3    H269002   7.040   5.187   1.938 -0.2410  0.4274 -0.9077
15863TIP3   OH269003   4.816   0.825   3.710 -0.4097  0.0295 -0.6930
15863TIP3    H169004   4.790   0.906   3.753 -0.9893 -0.2055 -0.5973
15863TIP3    H269005   4.734   0.776   3.700  0.0834 -1.0337  0.2911
15864TIP3   OH269006   0.609   2.573   1.651  0.3064  0.1479  0.2445
15864TIP3    H169007   0.540   2.577   1.716  2.3379 -0.9137  2.5281
15864TIP3    H269008   0.645   2.662   1.649 -1.8044  0.9948 -1.7702
15865TIP3   OH269009   6.092   5.120   3.409 -0.3310  0.2516 -0.2367
15865TIP3    H169010   6.011   5.130   3.459 -1.1256  0.7542 -1.6242
15865TIP3    H269011   6.106   5.025   3.407 -1.7806  0.0421 -1.3927
15866TIP3   OH269012   7.060   5.683   3.140  0.3281  0.4319 -0.1715
15866TIP3    H169013   7.023   5.614   3.084 -0.0681 -0.5629  1.2734
15866TIP3    H269014   7.055   5.762   3.087  0.8089 -0.6526 -1.8869
15867TIP3   OH269015   1.507   4.903   5.483 -0.3179  0.0335 -0.4990
15867TIP3    H169016   1.460   4.963   5.542  0.2919  0.4285 -0.4059
15867TIP3    H269017   1.590   4.948   5.465 -0.3644 -0.2368 -1.3953
15868TIP3   OH269018   6.603   4.246   3.019 -1.0804  0.7084  0.0513
15868TIP3    H169019   6.601   4.156   2.986 -1.1394  0.3295  1.0874
15868TIP3    H269020   6.667   4.245   3.090  1.0965  2.1417 -1.8020
15869TIP3   OH269021   6.456   4.490   2.423 -0.1879 -0.4974  0.3269
15869TIP3    H169022   6.423   4.408   2.460  0.6299 -0.7763  0.4399
15869TIP3    H269023   6.539   4.505   2.468  0.6847 -0.6932 -1.2141
15870TIP3   OH269024   4.034   6.212   3.413  0.2423 -0.2143 -0.4124
15870TIP3    H169025   4.061   6.303   3.406  0.3724 -0.3422 -1.7214
15870TIP3    H269026   4.000   6.203   3.502  2.1313  0.5827  0.3961
15871TIP3   OH269027   5.547   3.140   2.317  0.4801  0.4448 -0.2232
15871TIP3    H169028   5.616   3.081   2.288 -0.1066 -0.5131  0.2817
15871TIP3    H269029   5.480   3.082   2.354  0.5410  1.5032  1.6446
15872TIP3   OH269030   0.385   4.222   2.818 -0.5101  1.0043  0.2989
15872TIP3    H169031   0.451   4.196   2.754 -2.8085  1.2946 -2.3182
15872TIP3    H269032   0.431   4.279   2.879  1.7034  0.9945 -1.3095
15873TIP3   OH269033   3.868   6.100   1.414 -0.3319  0.0402 -0.2369
15873TIP3    H169034   3.880   6.164   1.344  0.1319 -1.5520 -1.6566
15873TIP3    H269035   3.947   6.107   1.468 -0.4015  0.8315 -0.2419
15874TIP3   OH269036   1.003   3.307   4.724 -0.3743 -0.0641 -0.2779
15874TIP3    H169037   1.062   3.361   4.778 -2.3048  2.4714 -0.5896
15874TIP3    H269038   0.930   3.286   4.783 -1.2161  0.4658 -1.1282
15875TIP3   OH269039   6.742   3.568   3.841  0.2077 -0.1253 -0.1236
15875TIP3    H169040   6.646   3.571   3.836  0.1768  0.5984  0.9058
15875TIP3    H269041   6.763   3.596   3.930  1.3834 -0.2816 -0.3403
15876TIP3   OH269042   6.873   4.831   3.000  0.0953  0.1204 -0.1697
15876TIP3    H169043   6.823   4.845   3.080  0.9434  1.8750  0.0955
15876TIP3    H269044   6.869   4.737   2.985 -3.0332  0.1988 -0.0274
15877TIP3   OH269045   7.022   5.508   3.477  0.0343  0.2842 -0.5488
15877TIP3    H169046   6.929   5.525   3.495 -0.2060 -0.3258 -1.1843
15877TIP3    H269047   7.021   5.431   3.420  1.0419 -1.2604  1.4705
15878TIP3   OH269048   1.024   3.771   2.591  0.6580  0.0505  0.5595
15878TIP3    H169049   0.996   3.783   2.500 -1.8367 -0.4026  1.2227
15878TIP3    H269050   1.046   3.859   2.621 -2.1752  0.7900  0.6253
15879TIP3   OH269051   6.693   2.994   5.852  0.1339  0.4510 -0.4808
15879TIP3    H169052   6.606   3.017   5.820 -0.5031 -0.8712  0.2875
15879TIP3    H269053   6.734   3.079   5.872 -1.3061  1.0403  0.0288
15880TIP3   OH269054   2.496   5.676   2.953 -0.0194 -0.2242  0.3705
15880TIP3    H169055   2.454   5.670   3.039 -1.1392 -0.2458 -0.1775
15880TIP3    H269056   2.590   5.685   2.973 -0.4814  2.1030  1.6412
15881TIP3   OH269057   5.295   4.958   1.344  0.9371  0.0289 -0.3837
15881TIP3    H169058   5.290   4.863   1.356 -0.2922 -0.2212 -2.4818
15881TIP3    H269059   5.382   4.973   1.309  1.5306 -0.2010  0.9930
15882TIP3   OH269060   2.897   6.570   3.968 -0.2133  0.1053 -0.5107
15882TIP3    H169061   2.857   6.566   3.882  1.1681 -0.4186 -1.1316
15882TIP3    H269062   2.945   6.488   3.978 -2.1583 -0.8460  1.6755
15883TIP3   OH269063   0.450   4.217   3.898  0.8754  0.5187  0.4686
15883TIP3    H169064   0.384   4.220   3.828  1.0834 -0.4570  0.2301
15883TIP3    H269065   0.399   4.205   3.978  0.7098  0.6300  0.3819
15884TIP3   OH269066   0.283   5.870   4.335 -0.0956  0.4313 -0.4059
15884TIP3    H169067   0.328   5.905   4.258  0.2542  0.0375 -0.3842
15884TIP3    H269068   0.289   5.939   4.401  0.7824  0.2464 -0.2902
15885TIP3   OH269069   5.959   5.437   1.776  0.7040 -0.4329 -0.1873
15885TIP3    H169070   5.899   5.371   1.809 -0.4360  0.3249 -0.6927
15885TIP3    H269071   5.965   5.502   1.847 -0.9706  0.6953 -1.0385
15886TIP3   OH269072   1.242   4.999   2.172 -0.0765  0.3122 -0.1466
15886TIP3    H169073   1.281   4.935   2.231 -0.1227  0.4338  0.0167
15886TIP3    H269074   1.216   5.072   2.229  0.3737  0.6664 -0.3905
15887TIP3   OH269075   6.898   4.375   4.678  0.3881  0.6065  0.1609
15887TIP3    H169076   6.829   4.430   4.714  1.1037 -0.0379  2.5778
15887TIP3    H269077   6.934   4.328   4.753  0.8902 -1.9531 -1.6172
15888TIP3   OH269078   6.578   1.756   3.342 -0.3586 -0.1261  0.0289
15888TIP3    H169079   6.554   1.667   3.319  0.9148 -0.1033 -1.3915
15888TIP3    H269080   6.573   1.805   3.260  0.2586  0.8304  0.5483
15889TIP3   OH269081   0.823   2.834   2.741 -0.1569 -0.7553 -0.1222
15889TIP3    H169082   0.903   2.822   2.791 -0.4991 -0.4390  0.4997
15889TIP3    H269083   0.780   2.909   2.781 -0.2271 -0.2246 -1.1545
15890TIP3   OH269084   5.657   4.927   1.883  0.0958 -0.1752  0.0190
15890TIP3    H169085   5.628   4.979   1.957 -0.8378  0.8408 -1.0370
15890TIP3    H269086   5.752   4.942   1.878  0.0222  0.4527  0.4673
15891TIP3   OH269087   0.057   3.022   3.825 -0.5547  0.0237  0.2247
15891TIP3    H169088   0.124   3.021   3.756  0.0834  0.2118  0.8432
15891TIP3    H269089  -0.017   3.068   3.784  0.9266  2.9570  0.6559
15892TIP3   OH269090   7.001   4.004   2.370  0.4942 -0.8101 -0.4897
15892TIP3    H169091   6.966   4.088   2.401 -2.2871 -1.8983 -0.4968
15892TIP3    H269092   7.092   4.004   2.398  0.6309  2.3373 -0.7654
15893TIP3   OH269093   0.520   3.134   4.288 -0.1779  0.3195 -0.2870
15893TIP3    H169094   0.527   3.092   4.373  0.5004 -0.2044 -0.5920
15893TIP3    H269095   0.609   3.129   4.251 -0.0041  2.3418 -0.1783
15894TIP3   OH269096   5.956   5.943   1.560 -0.3815  0.3950 -0.4971
15894TIP3    H169097   6.014   5.971   1.630  0.5982  0.6343 -1.4000
15894TIP3    H269098   5.895   6.016   1.548 -2.1661 -0.6258  1.7866
15895TIP3   OH269099   6.278   4.598   2.714 -0.1774  0.2764 -0.5128
15895TIP3    H169100   6.356   4.562   2.757  0.6264  0.7800 -1.5144
15895TIP3    H269101   6.229   4.521   2.685 -0.3452 -0.0497  0.6452
15896TIP3   OH269102   4.314   1.931   5.003 -0.1212 -0.2639 -0.0628
15896TIP3    H169103   4.232   1.963   5.041 -0.6049 -2.4189  0.7833
15896TIP3    H269104   4.333   1.992   4.932 -1.8682  0.9093  0.4406
15897TIP3   OH269105   3.118   4.456   2.147  0.0315 -0.1780 -0.0404
15897TIP3    H169106   3.089   4.379   2.100  1.8312  0.0071 -1.5279
15897TIP3    H269107   3.101   4.436   2.239 -0.7370 -1.7956 -0.5214
15898TIP3   OH269108   0.007   4.070   3.867 -0.1139 -0.0777  0.0257
15898TIP3    H169109   0.051   4.082   3.784 -1.6711 -0.9662 -0.9489
15898TIP3    H269110   0.019   4.153   3.913 -0.2974  0.8629 -1.5940
15899TIP3   OH269111   0.050   3.581   4.075  0.3398 -0.1391  0.4869
15899TIP3    H169112   0.024   3.510   4.018  2.9890 -0.3909 -0.4720
15899TIP3    H269113   0.001   3.657   4.043  1.2233 -0.4474 -1.6404
15900TIP3   OH269114   6.586   4.395   2.172  0.1234  0.3232 -0.0248
15900TIP3    H169115   6.665   4.436   2.208 -1.8336  3.2287  1.1767
15900TIP3    H269116   6.550   4.345   2.246  1.5359 -2.1533 -0.9714
15901TIP3   OH269117   0.103   5.771   3.692 -0.3204 -0.4008 -0.0883
15901TIP3    H169118   0.061   5.826   3.626 -0.4092 -0.4500 -0.0719
15901TIP3    H269119   0.031   5.736   3.744 -0.3642 -1.6076 -0.9363
15902TIP3   OH269120   0.867   5.974   5.652 -0.2071 -0.0438  0.2939
15902TIP3    H169121   0.803   5.911   5.686 -0.6933  0.5332  0.4568
15902TIP3    H269122   0.886   6.031   5.726 -0.1119  0.2803  0.0214
15903TIP3   OH269123   2.228   5.270   2.086  0.0361 -0.1466 -0.1320
15903TIP3    H169124   2.141   5.231   2.097 -0.4996  0.5806 -1.7029
15903TIP3    H269125   2.256   5.242   1.999  1.2543 -0.0966  0.2291
15904TIP3   OH269126   0.771   0.051   1.084  0.1096  0.7501 -0.0957
15904TIP3    H169127   0.738   0.127   1.036  1.9162  0.7098 -1.4832
15904TIP3    H269128   0.843   0.019   1.029  0.2883 -1.0894  1.2022
15905TIP3   OH269129   2.051   5.803   4.944 -0.3865 -0.1283 -0.4907
15905TIP3    H169130   1.984   5.795   4.876  0.6751  0.2021 -1.6100
15905TIP3    H269131   2.093   5.887   4.926  1.3665 -1.0351 -0.8127
15906TIP3   OH269132   3.512   0.233   1.980 -0.4802  0.2061  0.1148
15906TIP3    H169133   3.559   0.304   2.023 -0.8500  0.5396 -0.0218
15906TIP3    H269134   3.517   0.160   2.041 -2.4951  1.2040  1.5086
15907TIP3   OH269135   6.564   6.536   2.506 -0.0176  0.0257  0.3013
15907TIP3    H169136   6.511   6.587   2.445 -0.7322 -0.1706  0.7437
15907TIP3    H269137   6.643   6.589   2.520  0.1666  0.0485 -0.8128
15908TIP3   OH269138   2.883   6.399   2.878 -0.2326 -0.0072 -0.2087
15908TIP3    H169139   2.943   6.364   2.944  0.2516 -0.4068 -0.8690
15908TIP3    H269140   2.934   6.466   2.833 -1.4000  2.1862  1.6023
15909TIP3   OH269141   1.533   6.240   1.064 -0.2555  0.1198  0.2432
15909TIP3    H169142   1.572   6.283   0.988  1.1152  0.7907  1.3046
15909TIP3    H269143   1.480   6.308   1.106  1.4903  0.6781  1.6238
15910TIP3   OH269144   0.899   7.104   4.693  0.4107  0.0610  0.0593
15910TIP3    H169145   0.893   7.030   4.753 -0.5139  0.8577  0.9671
15910TIP3    H269146   0.956   7.167   4.737 -0.4461  0.7379  0.2169
15911TIP3   OH269147   4.003   0.054   2.343  0.1776  0.6909  0.5701
15911TIP3    H169148   3.967   0.142   2.334 -0.8440  0.2458  0.2194
15911TIP3    H269149   4.042   0.052   2.430 -1.9721  0.7189  1.5478
15912TIP3   OH269150   1.930   6.234   1.548 -0.0429 -0.1695  0.1988
15912TIP3    H169151   2.010   6.262   1.503 -0.3981 -0.5699 -0.7091
15912TIP3    H269152   1.866   6.224   1.477 -1.2382  1.2929  1.0420
15913TIP3   OH269153   0.972   5.633   4.251 -0.2678 -0.3056  0.6319
15913TIP3    H169154   0.924   5.582   4.316  0.4777 -0.3600  1.1473
15913TIP3    H269155   0.946   5.723   4.267 -0.1585 -0.3305  0.9441
15914TIP3   OH269156   1.046   4.359   3.254  0.3639 -0.6143  0.0131
15914TIP3    H169157   0.973   4.300   3.271 -0.5661  0.1380 -1.2707
15914TIP3    H269158   1.029   4.435   3.310 -1.2106  0.6526 -2.1098
15915TIP3   OH269159   5.228   6.974   1.411  0.2133 -0.8675 -0.1159
15915TIP3    H169160   5.280   6.952   1.489 -0.7521 -1.6900  0.3041
15915TIP3    H269161   5.163   6.904   1.405  0.3617 -0.8777 -1.7469
15916TIP3   OH269162   6.243   7.023   1.125  1.2010  0.3773 -0.9727
15916TIP3    H169163   6.213   6.948   1.176 -0.1306  1.4342 -0.1799
15916TIP3    H269164   6.306   6.986   1.063  0.2504 -1.4575 -0.8817
15917TIP3   OH269165   2.558   6.430   3.070  0.3765 -0.7673 -0.1396
15917TIP3    H169166   2.590   6.392   2.988 -2.2474  1.0793 -2.1488
15917TIP3    H269167   2.474   6.387   3.086  0.6776 -0.8201  1.3658
15918TIP3   OH269168   1.748   1.275   3.777 -0.1225  0.1490 -0.3793
15918TIP3    H169169   1.659   1.269   3.742  0.1082 -0.2744 -0.9061
15918TIP3    H269170   1.765   1.189   3.814 -1.0075  1.0979  2.4196
15919TIP3   OH269171   2.281   6.466   1.371  0.2846 -0.2934 -0.3112
15919TIP3    H169172   2.214   6.532   1.392  1.2604  0.1888  1.4131
15919TIP3    H269173   2.236   6.382   1.382  0.2707 -0.0062  2.0188
15920TIP3   OH269174   7.295   5.723   1.901 -0.2051 -0.0999  0.0121
15920TIP3    H169175   7.283   5.788   1.970  0.0182 -0.7465  0.6773
15920TIP3    H269176   7.388   5.729   1.878  0.1104 -1.0257  0.9615
15921TIP3   OH269177   1.218   5.951   2.451 -0.0942  0.0631 -0.6667
15921TIP3    H169178   1.305   5.984   2.471 -0.2092 -0.2818  0.4426
15921TIP3    H269179   1.193   5.901   2.528 -1.3804  0.3845 -0.8574
15922TIP3   OH269180   7.146   1.089   3.111 -0.0756 -0.7548  0.2526
15922TIP3    H169181   7.126   1.055   3.024 -0.0767 -0.7413  0.2476
15922TIP3    H269182   7.074   1.148   3.131  0.7292  0.4486 -0.3838
15923TIP3   OH269183   1.856   6.672   5.944  0.2774 -0.1575  0.6282
15923TIP3    H169184   1.861   6.580   5.971  1.4187 -0.8452 -1.8109
15923TIP3    H269185   1.776   6.677   5.891  0.2120  0.2649  0.7664
15924TIP3   OH269186   5.134   6.008   2.186  0.3610  0.5441  0.2440
15924TIP3    H169187   5.181   5.934   2.223 -0.7660  0.6897  2.0589
15924TIP3    H269188   5.147   6.001   2.091  2.4270 -0.4553  0.5784
15925TIP3   OH269189   0.939   5.377   4.397  0.4345 -0.5092  0.5327
15925TIP3    H169190   1.020   5.389   4.347 -0.5273 -0.2981 -0.9893
15925TIP3    H269191   0.969   5.366   4.487  2.1512 -0.1607  0.0327
15926TIP3   OH269192   1.175   6.544   4.245  0.0058 -0.2775  0.3670
15926TIP3    H169193   1.097   6.588   4.280 -0.0484  1.0167 -1.3211
15926TIP3    H269194   1.194   6.590   4.164  2.6224 -0.5068  0.8086
15927TIP3   OH269195   2.153   4.889   2.649 -0.4239 -0.3255  0.3133
15927TIP3    H169196   2.098   4.966   2.635  0.1571  0.0013 -0.1939
15927TIP3    H269197   2.101   4.832   2.705 -1.2924 -0.0344 -0.2006
15928TIP3   OH269198   2.304   1.447   3.086  0.3199 -0.2608  0.6397
15928TIP3    H169199   2.213   1.457   3.112  0.3643 -0.4625  0.8774
15928TIP3    H269200   2.314   1.354   3.067 -0.0468  0.1057 -1.3943
15929TIP3   OH269201   2.656   6.152   2.514 -0.7351 -0.5273 -0.2750
15929TIP3    H169202   2.615   6.065   2.518 -1.7885  0.0721  2.9091
15929TIP3    H269203   2.615   6.202   2.584  0.2852  2.4119 -1.6761
15930TIP3   OH269204   1.536   6.411   3.180 -0.7488 -0.6602  0.0797
15930TIP3    H169205   1.559   6.501   3.202  0.4248 -0.8608 -0.2994
15930TIP3    H269206   1.506   6.373   3.262  0.0290 -0.3117  0.5305
15931TIP3   OH269207   7.220   1.179   1.992 -0.0806  0.6187 -0.7944
15931TIP3    H169208   7.171   1.115   2.044  1.1198  1.7334  1.7771
15931TIP3    H269209   7.163   1.255   1.987  1.5013  2.0987  2.6185
15932TIP3   OH269210   1.204   6.369   3.330 -0.1852  0.2642 -0.0804
15932TIP3    H169211   1.204   6.413   3.415 -0.1061  0.9260 -0.4179
15932TIP3    H269212   1.297   6.364   3.306 -0.1176 -0.9192  0.3720
15933TIP3   OH269213   2.614   0.109   4.645 -0.0897 -0.4722  0.0775
15933TIP3    H169214   2.546   0.114   4.713 -2.8913 -0.7432 -2.5648
15933TIP3    H269215   2.630   0.015   4.635 -0.8301 -0.5279 -0.6744
15934TIP3   OH269216   4.336   6.491   1.692  0.0754 -0.5674  0.0519
15934TIP3    H169217   4.327   6.424   1.761 -1.9427 -0.8654 -0.4602
15934TIP3    H269218   4.285   6.565   1.725 -0.4557 -0.5156 -0.8735
15935TIP3   OH269219   1.707   1.752   4.229  0.1447 -0.2940  0.0155
15935TIP3    H169220   1.616   1.781   4.223  1.0372  2.8186  0.3793
15935TIP3    H269221   1.754   1.806   4.165  1.9308 -1.0430  0.6409
15936TIP3   OH269222   7.054   6.885   4.936 -0.1422 -0.0029  0.1226
15936TIP3    H169223   6.976   6.935   4.914 -1.1548 -1.7541 -0.3214
15936TIP3    H269224   7.031   6.795   4.916  1.4752 -0.7201  1.4483
15937TIP3   OH269225   0.529   5.787   2.623 -0.1680  0.5747 -0.4398
15937TIP3    H169226   0.473   5.858   2.654 -0.7422 -0.0885  0.0706
15937TIP3    H269227   0.594   5.777   2.693  0.3280  1.0495 -0.8278
15938TIP3   OH269228   2.914   5.588   2.666  0.2327  0.6844 -0.2809
15938TIP3    H169229   3.010   5.589   2.672  0.2554 -1.5284 -0.0965
15938TIP3    H269230   2.885   5.535   2.740 -0.9158 -2.0481 -2.5979
15939TIP3   OH269231   2.836   0.642   0.981  0.1349 -0.3300 -0.4229
15939TIP3    H169232   2.929   0.662   0.987 -0.2107  1.6968 -1.2620
15939TIP3    H269233   2.829   0.549   1.003  2.2352 -0.2788  0.5042
15940TIP3   OH269234   0.897   7.011   2.891 -0.0879  0.3282 -0.8865
15940TIP3    H169235   0.905   6.960   2.811  0.9844  0.1080 -0.6569
15940TIP3    H269236   0.978   6.991   2.939 -1.5452 -1.0295  1.0985
15941TIP3   OH269237   0.861   5.285   1.859 -0.0488 -0.4552 -0.2606
15941TIP3    H169238   0.937   5.286   1.801 -0.3792 -1.2546 -0.7262
15941TIP3    H269239   0.812   5.207   1.832 -0.4902 -0.5288  0.7311
15942TIP3   OH269240   0.308   5.364   3.838 -0.1037 -0.7329 -0.1972
15942TIP3    H169241   0.258   5.339   3.760  2.4875  0.5970 -2.3612
15942TIP3    H269242   0.386   5.309   3.835  0.6554  0.2749  0.6918
15943TIP3   OH269243   1.726   5.962   2.262 -0.7117  0.6023  0.2374
15943TIP3    H169244   1.637   5.952   2.298 -0.8473  1.6384  0.2022
15943TIP3    H269245   1.716   5.945   2.168 -0.4733 -1.4610  0.5654
15944TIP3   OH269246   2.031   0.397   2.108  0.5659  0.3548  0.6112
15944TIP3    H169247   1.937   0.401   2.126  0.6919 -0.7630  1.5818
15944TIP3    H269248   2.055   0.487   2.090 -0.8038  0.5783 -0.2414
15945TIP3   OH269249   3.531   4.463   1.905  0.1090 -0.3345  0.1634
15945TIP3    H169250   3.624   4.445   1.920  0.2487  0.7647  0.6773
15945TIP3    H269251   3.493   4.470   1.993 -0.7976 -2.4193 -0.0500
15946TIP3   OH269252   4.564   7.243   0.132  0.8712  0.1068 -0.6206
15946TIP3    H169253   4.555   7.179   0.061  1.0792 -0.1468 -0.4236
15946TIP3    H269254   4.530   7.197   0.209 -1.3058  1.1217 -0.9448
15947TIP3   OH269255   0.539   5.964  14.910  0.3159  0.1782 -0.0876
15947TIP3    H169256   0.447   5.988  14.897  1.3782  3.8268 -1.5504
15947TIP3    H269257   0.574   5.956  14.822  1.5652 -0.5075  0.4640
15948TIP3   OH269258   1.796   0.789   3.181 -0.6198  0.2121  0.2977
15948TIP3    H169259   1.888   0.779   3.156 -0.3966  3.6298 -0.4033
15948TIP3    H269260   1.774   0.705   3.223  2.7332 -0.7371  0.3110
15949TIP3   OH269261   0.426   7.245   3.385 -0.6432 -0.3578  0.2875
15949TIP3    H169262   0.353   7.191   3.416 -0.5261 -0.6029  0.1438
15949TIP3    H269263   0.482   7.183   3.337 -0.6498 -0.0505 -0.1184
15950TIP3   OH269264   1.952   7.120   3.519 -0.3306  0.2167 -0.4722
15950TIP3    H169265   1.909   7.165   3.446 -1.4155 -1.3179 -0.8045
15950TIP3    H269266   1.887   7.123   3.590 -0.1672 -0.2766 -0.3030
15951TIP3   OH269267   2.479   0.438   3.087 -0.4888 -0.1868  0.5391
15951TIP3    H169268   2.405   0.387   3.054 -0.4687  0.3764 -0.4053
15951TIP3    H269269   2.479   0.423   3.181 -1.3414 -0.7952  0.4472
15952TIP3   OH269270   1.317   5.254   0.827 -0.5528  0.3973 -0.2977
15952TIP3    H169271   1.346   5.317   0.762 -0.7011  0.9185  0.1293
15952TIP3    H269272   1.330   5.299   0.911  0.0270 -0.4189  0.0529
15953TIP3   OH269273   1.739   6.906   3.950 -0.5235 -0.3722  0.1071
15953TIP3    H169274   1.745   6.922   4.044 -0.0897  1.4748 -0.2056
15953TIP3    H269275   1.823   6.936   3.916 -1.1244  0.0749 -1.0083
15954TIP3   OH269276   7.024   4.505   2.502 -0.0159 -0.0222 -0.3881
15954TIP3    H169277   7.079   4.445   2.553  0.5688  1.5598  0.8864
15954TIP3    H269278   7.085   4.557   2.451 -0.3323  1.4819  0.7369
15955TIP3   OH269279   1.370   3.693   2.793 -0.1611 -0.2448  0.3416
15955TIP3    H169280   1.349   3.691   2.700  0.7080 -0.5026  0.1436
15955TIP3    H269281   1.328   3.773   2.825 -1.3933 -0.7393 -0.0328
15956TIP3   OH269282   2.898   4.734   2.978  0.4581 -0.1371 -0.4611
15956TIP3    H169283   2.821   4.677   2.986 -0.4951  0.9753 -1.6592
15956TIP3    H269284   2.876   4.796   2.909  2.6689 -0.1667 -1.2461
15957TIP3   OH269285   0.897   6.855   2.529 -0.1586  0.1823 -0.0879
15957TIP3    H169286   0.912   6.761   2.540 -1.2503  0.0960  0.8045
15957TIP3    H269287   0.984   6.893   2.517  0.2268 -1.0454 -1.3065
15958TIP3   OH269288   2.170   4.603   3.117  0.7478 -0.1849  0.0502
15958TIP3    H169289   2.188   4.688   3.157  0.2460  0.1814 -0.4864
15958TIP3    H269290   2.095   4.569   3.166  0.9947 -0.3420  0.3116
15959TIP3   OH269291   0.893   7.189   2.120 -0.2216 -0.1390 -0.3122
15959TIP3    H169292   0.858   7.243   2.191  0.3819 -1.5814  1.1045
15959TIP3    H269293   0.848   7.106   2.129  1.5425 -1.1026 -0.1767
15960TIP3   OH269294   1.509   6.053   2.521  0.4164  0.1022  0.3222
15960TIP3    H169295   1.563   6.047   2.600  1.6215  0.2961 -0.4682
15960TIP3    H269296   1.452   6.128   2.537 -0.9088 -1.2102  1.9373
15961TIP3   OH269297   3.053   0.963   1.798 -0.0770 -0.1841 -0.3198
15961TIP3    H169298   3.011   1.001   1.720 -0.0243 -1.6357 -1.0844
15961TIP3    H269299   3.016   1.012   1.871  1.1578  2.3710 -1.3441
15962TIP3   OH269300   0.098   7.269   3.077 -0.4437 -0.1689 -0.2187
15962TIP3    H169301   0.181   7.264   3.030 -0.6392 -1.4987 -0.4518
15962TIP3    H269302   0.054   7.186   3.057 -1.1463 -0.1516  1.1641
15963TIP3   OH269303   2.840   1.062   3.374 -0.4491 -0.4545  0.1208
15963TIP3    H169304   2.796   1.143   3.401 -1.3979 -0.9264  0.0288
15963TIP3    H269305   2.897   1.088   3.302 -1.3483  0.0070 -0.4401
15964TIP3   OH269306   6.926   7.070   2.335 -0.1472  0.6593 -0.2757
15964TIP3    H169307   6.853   7.086   2.275  0.3634  1.4495 -0.6944
15964TIP3    H269308   6.885   7.068   2.421 -0.5702  1.9086 -0.4272
15965TIP3   OH269309   0.394   5.220   1.673  0.1729 -0.8069  0.2660
15965TIP3    H169310   0.416   5.293   1.616  0.2705 -0.1194  1.1638
15965TIP3    H269311   0.340   5.163   1.619  0.3901 -0.2473 -0.5548
15966TIP3   OH269312   5.901   6.678   4.110 -0.4032  0.2086  0.4192
15966TIP3    H169313   5.996   6.663   4.116 -0.7710 -2.2120  0.3038
15966TIP3    H269314   5.881   6.672   4.017 -0.7390  0.3053  0.4842
15967TIP3   OH269315   1.294   3.694   0.811  0.9929 -0.2192 -0.0702
15967TIP3    H169316   1.318   3.744   0.889  0.0218 -1.4433  1.0353
15967TIP3    H269317   1.375   3.648   0.787  0.9177 -0.9873  1.0988
15968TIP3   OH269318   2.669   7.035   2.987 -0.0431  0.0608  0.6286
15968TIP3    H169319   2.674   6.973   3.059 -1.1740 -0.9923 -0.1850
15968TIP3    H269320   2.621   6.989   2.918  1.3762  0.8935 -0.9598
15969TIP3   OH269321   0.375   5.604   1.803  0.1923 -0.7279 -0.3469
15969TIP3    H169322   0.316   5.606   1.728 -2.2850  0.2026  1.5696
15969TIP3    H269323   0.339   5.535   1.860  1.5391 -0.8348  0.3923
15970TIP3   OH269324   6.585   1.204   2.240  0.2745 -0.0732 -0.5255
15970TIP3    H169325   6.640   1.275   2.210 -0.6495  0.9044  0.0562
15970TIP3    H269326   6.496   1.240   2.241  0.0705 -0.4936  1.9153
15971TIP3   OH269327   0.671   4.891   3.695 -0.2919 -0.0310  0.3449
15971TIP3    H169328   0.583   4.876   3.661 -0.5384  1.3360  0.3263
15971TIP3    H269329   0.676   4.986   3.704  0.2829 -0.2588  2.7163
15972TIP3   OH269330   2.373   6.271   5.749  0.3172 -0.6828  0.1592
15972TIP3    H169331   2.375   6.296   5.657  1.6820 -0.4076  0.2453
15972TIP3    H269332   2.441   6.204   5.758  1.1825  0.2974  1.2272
15973TIP3   OH269333   3.603   0.048   2.206  0.4126  0.2011 -0.1329
15973TIP3    H169334   3.684   0.022   2.248 -1.0103 -1.2309  1.8255
15973TIP3    H269335   3.566  -0.033   2.171 -0.0320  0.8759 -1.2686
15974TIP3   OH269336   2.003   6.382   3.143  0.1267 -0.7332 -0.3142
15974TIP3    H169337   1.976   6.452   3.203  2.9720  0.0675  0.1225
15974TIP3    H269338   1.924   6.330   3.129 -0.4875 -1.4690  4.8461
15975TIP3   OH269339   0.194   5.554   2.358  0.3952  0.0421  0.2470
15975TIP3    H169340   0.250   5.487   2.319  1.7113  0.7927  0.8140
15975TIP3    H269341   0.239   5.579   2.439  0.4140  2.2752 -0.4164
15976TIP3   OH269342   6.059   5.031   1.618  0.7739  0.2870 -0.6078
15976TIP3    H169343   6.056   5.122   1.591 -0.1923  0.0654 -1.2597
15976TIP3    H269344   6.091   4.984   1.542  1.3795  0.0947 -0.2360
15977TIP3   OH269345   0.702   1.302   3.514  0.2023  0.5594  0.4089
15977TIP3    H169346   0.614   1.272   3.492  0.5419  0.3931 -0.7163
15977TIP3    H269347   0.759   1.257   3.452  1.2618 -0.6625  2.2262
15978TIP3   OH269348   1.652   6.360   2.801 -0.3290  0.4214  0.0954
15978TIP3    H169349   1.618   6.433   2.748  1.1624  0.6395 -0.5745
15978TIP3    H269350   1.745   6.379   2.811 -0.1351 -0.8692  0.8048
15979TIP3   OH269351   1.442   6.682   1.005  0.0750  0.2035  0.7284
15979TIP3    H169352   1.506   6.613   1.021 -0.7741 -0.5831  0.7684
15979TIP3    H269353   1.466   6.717   0.920 -1.0844 -1.9513 -0.5383
15980TIP3   OH269354   0.104   6.769   2.362 -0.0769 -0.7378  0.5614
15980TIP3    H169355   0.050   6.742   2.289 -1.9943  1.7193  0.9949
15980TIP3    H269356   0.108   6.865   2.356  3.0897 -0.7438  1.3498
15981TIP3   OH269357   1.362   5.219   3.143 -0.1947  0.3436  0.3145
15981TIP3    H169358   1.456   5.236   3.136 -0.6293  2.6021 -0.4252
15981TIP3    H269359   1.339   5.251   3.231 -0.0049 -1.7335  1.1616
15982TIP3   OH269360   1.872   4.565   3.153  0.0937 -0.0819 -0.0654
15982TIP3    H169361   1.893   4.657   3.172  0.7080 -0.1562 -0.3409
15982TIP3    H269362   1.780   4.556   3.174  0.5899 -0.0112  2.2422
15983TIP3   OH269363   1.400   6.470   4.821  0.6369  0.1834  0.4773
15983TIP3    H169364   1.458   6.541   4.848 -0.5681  2.0861 -1.6730
15983TIP3    H269365   1.422   6.456   4.728  0.0441 -1.4506  0.5705
15984TIP3   OH269366   1.181   0.316   2.880  0.0823 -0.3215 -0.2386
15984TIP3    H169367   1.087   0.298   2.870 -0.1496  1.0271 -0.5854
15984TIP3    H269368   1.223   0.261   2.814 -0.2878 -2.4256  1.2323
15985TIP3   OH269369   2.919   6.741   4.213 -0.1390  0.1725 -0.3411
15985TIP3    H169370   2.867   6.799   4.157  1.2896  0.4408 -1.4100
15985TIP3    H269371   2.949   6.672   4.154 -0.1411 -0.5529  0.4964
15986TIP3   OH269372   0.372   0.968   4.877 -0.7254  0.1307  0.2300
15986TIP3    H169373   0.422   0.911   4.935 -0.9532  0.6854  0.9786
15986TIP3    H269374   0.428   0.980   4.800  0.1916  0.5623  0.9648
15987TIP3   OH269375   1.265   0.186   4.998  0.2555 -0.4172  0.1696
15987TIP3    H169376   1.326   0.176   5.071 -0.1335 -2.7034  0.2225
15987TIP3    H269377   1.180   0.200   5.039  0.2684 -0.1993  0.1239
15988TIP3   OH269378   3.587   5.420   1.947  0.2013 -0.1026  0.1558
15988TIP3    H169379   3.640   5.362   1.893  0.3317  0.3577 -0.2043
15988TIP3    H269380   3.649   5.460   2.008 -0.2052 -1.9703  1.8281
15989TIP3   OH269381   2.582   5.405   0.850  0.2848  0.3762  0.1182
15989TIP3    H169382   2.584   5.422   0.944  0.8605  1.4178 -0.0803
15989TIP3    H269383   2.520   5.469   0.816 -0.7527 -0.7138 -0.0751
15990TIP3   OH269384   1.522   0.169   1.489 -1.0266 -0.3465  0.0129
15990TIP3    H169385   1.547   0.222   1.414  0.1587  0.5939  1.0342
15990TIP3    H269386   1.452   0.113   1.457  0.8329 -1.4128 -2.3474
15991TIP3   OH269387   1.190   6.490   3.629 -0.2600  0.0665 -0.8195
15991TIP3    H169388   1.224   6.518   3.713 -0.4195 -0.9264 -0.4135
15991TIP3    H269389   1.158   6.570   3.588 -0.7113  0.4802  0.3109
15992TIP3   OH269390   1.227   5.998   3.165  0.4848 -0.0650 -0.3504
15992TIP3    H169391   1.181   6.033   3.089  1.8482  0.7752 -0.7946
15992TIP3    H269392   1.211   5.903   3.161 -0.1330  0.0702 -1.1972
15993TIP3   OH269393   7.111   5.486   1.816  0.4582  0.1650 -0.6165
15993TIP3    H169394   7.169   5.557   1.842 -1.5862  2.7814 -2.8786
15993TIP3    H269395   7.033   5.498   1.869  0.2998 -0.7132 -0.6484
15994TIP3   OH269396   0.691   7.138   4.261  0.1024  0.7230 -0.6240
15994TIP3    H169397   0.611   7.133   4.209  0.3868 -1.4930 -0.8733
15994TIP3    H269398   0.748   7.070   4.226  0.9162  0.2375  1.5525
15995TIP3   OH269399   2.513   4.571   1.941  0.1257  0.6143  0.1641
15995TIP3    H169400   2.508   4.609   2.028 -0.3956 -0.7546  0.7312
15995TIP3    H269401   2.606   4.552   1.929  0.2578  1.1910  0.2464
15996TIP3   OH269402   2.293   7.268   4.727  0.7719 -0.2623 -0.1401
15996TIP3    H169403   2.328   7.346   4.683  0.5582 -0.2700 -0.3255
15996TIP3    H269404   2.360   7.245   4.791  0.6643  0.2947  0.1805
15997TIP3   OH269405   1.833   6.864   1.503 -0.1423 -0.4006  0.0195
15997TIP3    H169406   1.791   6.939   1.546 -0.0335  0.7594 -1.8479
15997TIP3    H269407   1.926   6.886   1.503 -0.0803 -0.6718 -0.3055
15998TIP3   OH269408   1.851   6.920   1.235 -0.2594  0.4760 -0.2640
15998TIP3    H169409   1.832   6.875   1.317  0.3105  0.2196 -0.2665
15998TIP3    H269410   1.923   6.979   1.256 -2.2999  2.8647  0.2156
15999TIP3   OH269411   2.472   1.408   1.778  0.2541 -0.4191 -0.0486
15999TIP3    H169412   2.448   1.498   1.798 -0.5168 -0.4960 -0.6433
15999TIP3    H269413   2.508   1.412   1.689  0.8950 -0.5842  0.1957
16000TIP3   OH269414   0.270   6.210   2.000  0.1865 -1.0542 -0.4902
16000TIP3    H169415   0.185   6.241   2.031  1.0770 -1.1563  2.1973
16000TIP3    H269416   0.277   6.121   2.034  2.2811 -0.2546  1.3310
16001TIP3   OH269417   0.054   5.377   1.678  0.2316 -0.3178  0.6164
16001TIP3    H169418  -0.023   5.424   1.707  0.7596 -1.0273  3.2949
16001TIP3    H269419   0.107   5.442   1.632 -1.2053  0.5365  0.1558
16002TIP3   OH269420   5.840   0.918   1.896  0.2490 -0.4182 -0.4845
16002TIP3    H169421   5.781   0.953   1.830  0.0062 -2.3831 -1.3568
16002TIP3    H269422   5.901   0.863   1.846  1.8393  0.3457  0.5839
16003TIP3   OH269423   1.416   5.377   2.702 -0.0749 -0.4347 -0.4089
16003TIP3    H169424   1.509   5.371   2.683  0.3479 -2.3393  2.1061
16003TIP3    H269425   1.407   5.458   2.753  0.0789  0.1422 -1.2899
16004TIP3   OH269426   0.971   3.841   4.656  0.3681  0.0422 -0.1777
16004TIP3    H169427   1.065   3.835   4.639  0.0321  0.5623 -2.3823
16004TIP3    H269428   0.930   3.830   4.570 -1.6067 -0.4861  0.7973
16005TIP3   OH269429   3.834   5.391  14.695  0.0718  0.0388 -0.5635
16005TIP3    H169430   3.774   5.388  14.770  1.7504  0.7389  0.8236
16005TIP3    H269431   3.894   5.462  14.714  2.4602 -1.7587 -1.0786
16006TIP3   OH269432   1.523   0.719   1.749  0.0927  0.3603 -1.1258
16006TIP3    H169433   1.451   0.658   1.735  1.0462 -1.2357  0.6547
16006TIP3    H269434   1.490   0.803   1.717 -2.2187 -0.5074 -1.1307
16007TIP3   OH269435   0.616   5.584   4.215 -0.1091 -0.0603  0.2838
16007TIP3    H169436   0.542   5.603   4.157 -1.2638 -2.6483  0.8182
16007TIP3    H269437   0.693   5.611   4.166 -1.2192 -0.2161 -1.6008
16008TIP3   OH269438   3.441   0.533   2.824  0.0930 -0.2430  1.0032
16008TIP3    H169439   3.352   0.536   2.789  0.6200 -0.4770 -0.3994
16008TIP3    H269440   3.450   0.613   2.875 -1.6214 -1.2313  2.9240
16009TIP3   OH269441   4.558   4.652   4.400 -0.0137  0.0993  0.0328
16009TIP3    H169442   4.475   4.689   4.369  0.7379  2.1230  0.3786
16009TIP3    H269443   4.532   4.574   4.450 -1.8159  1.4290  1.2552
16010TIP3   OH269444   1.016   1.374  15.791  0.0966 -0.4026  0.3657
16010TIP3    H169445   1.085   1.372  15.724 -0.4286  2.2370 -0.3130
16010TIP3    H269446   1.052   1.429  15.860 -1.6181  1.7207 -0.3762
16011TIP3   OH269447   7.277   5.979   2.026 -0.5357  0.2920  0.2737
16011TIP3    H169448   7.198   5.978   2.080  2.2307 -2.1263  4.5703
16011TIP3    H269449   7.322   6.060   2.049  0.0626 -0.1586  0.7118
16012TIP3   OH269450   0.947   5.806   2.669 -0.0840 -0.1545 -0.2490
16012TIP3    H169451   1.043   5.802   2.667 -0.1371 -0.9840 -1.5180
16012TIP3    H269452   0.919   5.743   2.603 -1.5315 -0.6809  0.8416
16013TIP3   OH269453   2.655   6.061   3.716 -0.0264 -0.2720 -0.3085
16013TIP3    H169454   2.642   5.969   3.740 -2.3900  0.0670 -0.1535
16013TIP3    H269455   2.660   6.107   3.799  0.6239 -0.1954 -0.3901
16014TIP3   OH269456   1.076   7.192   0.277 -0.0687 -0.2342  0.3307
16014TIP3    H169457   1.119   7.263   0.324  2.4611 -0.7670 -1.0950
16014TIP3    H269458   1.140   7.121   0.276 -0.4746 -0.6383 -2.9154
16015TIP3   OH269459   6.417   6.424   3.774 -0.5389 -0.1852  0.0202
16015TIP3    H169460   6.461   6.353   3.820  0.0933  0.8850  1.0645
16015TIP3    H269461   6.354   6.458   3.837 -1.5790 -0.4828 -0.8356
16016TIP3   OH269462   6.572   7.065   2.879 -0.3394  0.2476 -0.0876
16016TIP3    H169463   6.543   6.975   2.891  3.5964 -0.9475  1.1356
16016TIP3    H269464   6.618   7.065   2.796  2.7201  0.2171  1.5407
16017TIP3   OH269465   1.278   1.111   1.168  0.1227  0.3353 -0.4377
16017TIP3    H169466   1.266   1.016   1.167  0.5857  0.2796 -1.6419
16017TIP3    H269467   1.211   1.143   1.227  1.1603 -0.9057  1.4468
16018TIP3   OH269468   1.564   3.975   4.919  0.2571 -0.1874 -0.2426
16018TIP3    H169469   1.548   3.880   4.927  1.1561 -0.3118  0.1652
16018TIP3    H269470   1.601   3.986   4.831 -1.9269  0.0861 -1.1446
16019TIP3   OH269471   1.768   1.147   1.251  0.0962 -0.2756 -0.0900
16019TIP3    H169472   1.707   1.078   1.222  0.7645 -0.3333 -1.3444
16019TIP3    H269473   1.809   1.110   1.329  0.9276 -1.5836 -1.1221
16020TIP3   OH269474   1.695   7.048   2.991  0.1949 -0.0852 -0.4693
16020TIP3    H169475   1.689   7.062   2.897  0.7744  0.4212 -0.4354
16020TIP3    H269476   1.783   7.078   3.014  0.4276 -1.1569  0.0691
16021TIP3   OH269477   3.233   0.490   1.609  0.4356 -0.3557 -0.0930
16021TIP3    H169478   3.319   0.470   1.646  0.1360 -1.7746 -0.1333
16021TIP3    H269479   3.250   0.504   1.516  0.7155  0.0124  0.0119
16022TIP3   OH269480   0.203   5.175   4.067 -0.2906  0.3928  0.4961
16022TIP3    H169481   0.245   5.093   4.043  1.2379  1.2781  0.0552
16022TIP3    H269482   0.245   5.240   4.010 -1.5252  1.4646  0.7894
16023TIP3   OH269483   1.721   7.293   5.796  0.1295 -0.3012 -0.2882
16023TIP3    H169484   1.783   7.270   5.727 -0.4795  1.5694 -1.5023
16023TIP3    H269485   1.776   7.304   5.874  1.2060  0.3115 -1.1127
16024TIP3   OH269486   6.222   5.492   3.269  0.7151 -0.4456 -0.6432
16024TIP3    H169487   6.252   5.564   3.214 -0.6208  0.2237 -0.5140
16024TIP3    H269488   6.151   5.529   3.321  0.5956 -1.6206  0.0549
16025TIP3   OH269489   1.955   6.273   2.683 -0.2672  0.2471 -0.4327
16025TIP3    H169490   2.024   6.218   2.720  0.0901  1.8480  1.3773
16025TIP3    H269491   1.919   6.221   2.611 -0.5198 -2.7317  1.7300
16026TIP3   OH269492   3.364   6.856   3.748 -0.1453  0.4098  0.4720
16026TIP3    H169493   3.419   6.814   3.813  1.5594  0.2165 -1.0438
16026TIP3    H269494   3.304   6.911   3.798 -1.1444 -2.3198  2.3757
16027TIP3   OH269495   0.869   0.872   2.197  0.1792 -0.1397  0.2307
16027TIP3    H169496   0.860   0.880   2.102 -0.6923 -0.8162  0.2511
16027TIP3    H269497   0.927   0.797   2.210 -0.6730 -0.8096  0.2443
16028TIP3   OH269498   0.995   5.043   2.403 -0.2598  0.0839 -0.2207
16028TIP3    H169499   1.057   5.062   2.473 -0.1286 -0.4019 -0.2041
16028TIP3    H269500   0.920   5.002   2.447 -0.2384 -0.0914 -0.3508
16029TIP3   OH269501   7.131   6.153   5.427  0.1364 -0.4397 -0.0942
16029TIP3    H169502   7.110   6.083   5.364  0.4502 -0.7775  0.1755
16029TIP3    H269503   7.049   6.201   5.438 -0.1688 -0.9843 -0.0091
16030TIP3   OH269504   1.712   6.613   1.885  0.1924  0.1216  0.2521
16030TIP3    H169505   1.655   6.637   1.812  0.6819  0.3855 -0.0460
16030TIP3    H269506   1.758   6.535   1.855  0.2474  0.1166  0.3498
16031TIP3   OH269507   3.691   6.198   3.488 -0.2815 -0.4920  0.5763
16031TIP3    H169508   3.641   6.276   3.512  1.7641  1.0962 -0.2320
16031TIP3    H269509   3.742   6.177   3.566  0.2415 -0.1663  0.3241
16032TIP3   OH269510   1.535   0.062   2.542  0.4488  0.0311  0.6279
16032TIP3    H169511   1.516   0.149   2.508  0.6803  0.0055  0.4314
16032TIP3    H269512   1.469   0.047   2.609 -0.8174 -0.4266 -0.6905
16033TIP3   OH269513   1.401   6.536   2.966 -0.0557  0.3089  0.6370
16033TIP3    H169514   1.444   6.621   2.967  1.3733 -0.4011  0.1145
16033TIP3    H269515   1.457   6.480   3.019 -1.5928 -0.0390  1.9584
16034TIP3   OH269516   2.797   5.484   2.886 -0.5104  0.0942  0.0573
16034TIP3    H169517   2.780   5.398   2.923  1.1233  0.0110  0.6940
16034TIP3    H269518   2.786   5.544   2.960  2.9772 -0.0921  0.8197
16035TIP3   OH269519   0.232   1.072   1.124 -0.1205  0.3734  0.1532
16035TIP3    H169520   0.277   1.149   1.158 -2.2597  1.4290  0.6637
16035TIP3    H269521   0.242   1.006   1.193 -0.8129  1.1483  1.0045
16036TIP3   OH269522   0.981   6.062   4.130 -0.1434  0.5543 -0.3111
16036TIP3    H169523   0.945   6.129   4.188  1.7839  1.1969  0.1871
16036TIP3    H269524   0.905   6.010   4.103 -1.1092  0.3964  2.5878
16037TIP3   OH269525   0.520   6.556   1.809  0.2431  0.2464  0.3772
16037TIP3    H169526   0.479   6.469   1.816 -0.0685  0.2517 -1.1034
16037TIP3    H269527   0.609   6.538   1.780  0.1975  0.4085  0.1326
16038TIP3   OH269528   1.791   1.020   1.934 -0.3472 -0.4910  0.0316
16038TIP3    H169529   1.803   1.038   2.027 -1.0423 -1.4342  0.3120
16038TIP3    H269530   1.875   1.043   1.894 -0.1160  0.1378  0.8493
16039TIP3   OH269531   1.634   5.306   3.051  0.4973  0.8203 -0.3640
16039TIP3    H169532   1.668   5.383   3.097  0.1981  0.6174  0.2052
16039TIP3    H269533   1.653   5.322   2.959  0.7802  1.3998 -0.2041
16040TIP3   OH269534   1.149   7.148   4.412  0.2675  0.0106 -0.2154
16040TIP3    H169535   1.148   7.127   4.318 -3.6293 -0.5902 -0.1036
16040TIP3    H269536   1.079   7.095   4.449 -0.4534  2.7343  2.4963
16041TIP3   OH269537   6.648   6.397   4.900  0.3858 -0.4317 -0.0558
16041TIP3    H169538   6.602   6.469   4.858  0.4861 -0.2996  0.0610
16041TIP3    H269539   6.655   6.330   4.832  1.3076  0.1186 -0.5024
16042TIP3   OH269540   6.611   5.592   3.774 -0.0574  0.4607  0.1244
16042TIP3    H169541   6.596   5.686   3.778  0.6849  0.5530  1.0787
16042TIP3    H269542   6.681   5.577   3.837  2.1570 -0.2663 -2.4252
16043TIP3   OH269543   0.290   7.244   5.535 -0.0951 -0.0535  0.2305
16043TIP3    H169544   0.301   7.268   5.443  2.2188  1.2400  0.7946
16043TIP3    H269545   0.333   7.159   5.543  1.2231  0.5984  0.4125
16044TIP3   OH269546   0.381   5.080   5.274 -0.1684  0.0837  0.6101
16044TIP3    H169547   0.444   5.083   5.201 -0.0854 -1.2084  0.6218
16044TIP3    H269548   0.305   5.128   5.241  0.7449  1.5525  0.5467
16045TIP3   OH269549   0.851   5.335   3.178 -0.0081 -0.0721 -0.5968
16045TIP3    H169550   0.927   5.393   3.182  0.4186 -0.7295  1.0359
16045TIP3    H269551   0.889   5.247   3.170 -0.5466 -0.5920  2.2564
16046TIP3   OH269552   6.872   0.463   1.587 -0.5267 -0.0806 -0.0882
16046TIP3    H169553   6.870   0.390   1.648 -0.2440  0.7882  0.9748
16046TIP3    H269554   6.961   0.497   1.591 -0.7817  0.6282 -0.2049
16047TIP3   OH269555   6.843   4.679   2.246  0.3955  0.4233 -0.0638
16047TIP3    H169556   6.826   4.619   2.318 -0.3266  2.1069  1.2053
16047TIP3    H269557   6.903   4.744   2.282  0.6720  0.8283 -1.2209
16048TIP3   OH269558   2.733   1.313   2.100 -0.9385 -0.1669  0.2867
16048TIP3    H169559   2.756   1.354   2.183 -0.9898  1.5546 -0.5352
16048TIP3    H269560   2.644   1.280   2.114 -1.7609  1.9515  0.2813
16049TIP3   OH269561   1.798   5.996   3.724  0.8093 -0.6509  0.2887
16049TIP3    H169562   1.803   6.078   3.675  1.5871 -0.6603  0.3523
16049TIP3    H269563   1.705   5.972   3.721  0.4323  0.6751  1.0174
16050TIP3   OH269564   1.542   6.945   5.075  0.3586 -0.0311 -0.0863
16050TIP3    H169565   1.491   6.917   4.999 -1.1809 -1.1891  1.3245
16050TIP3    H269566   1.612   7.000   5.039  0.1806 -1.2814 -2.3999
16051TIP3   OH269567   6.911   0.929   5.373 -0.3634  0.1999 -0.9104
16051TIP3    H169568   6.976   0.885   5.428 -0.1521  0.3630 -1.0284
16051TIP3    H269569   6.882   1.004   5.425 -0.8861 -0.2051 -0.6194
16052TIP3   OH269570   0.777   7.280   1.716  0.1899  0.4237  0.1653
16052TIP3    H169571   0.761   7.279   1.622  2.2223 -4.0517 -0.2477
16052TIP3    H269572   0.850   7.342   1.727  0.4752  0.3783 -1.3318
16053TIP3   OH269573   4.068   4.630   3.271 -0.3089  0.0288 -0.8118
16053TIP3    H169574   4.064   4.723   3.293  4.0713 -0.0446  0.8076
16053TIP3    H269575   4.076   4.628   3.176  0.2663  1.3664 -0.8023
16054TIP3   OH269576   2.075   6.630   1.178  0.7337  0.1647 -0.1963
16054TIP3    H169577   2.002   6.575   1.151  0.4341  0.6345 -0.3344
16054TIP3    H269578   2.108   6.668   1.097  1.0652  0.0455 -0.1227
16055TIP3   OH269579   1.870   4.486   1.777 -0.4003 -0.2658  0.0107
16055TIP3    H169580   1.804   4.431   1.735 -0.4284  1.3779 -2.1443
16055TIP3    H269581   1.826   4.524   1.853 -1.6221  0.0529 -0.8604
16056TIP3   OH269582   0.631   6.942   2.939 -0.5454 -0.0856  0.5544
16056TIP3    H169583   0.647   6.966   2.848 -2.1756 -1.0249  0.0008
16056TIP3    H269584   0.717   6.951   2.981 -0.2491  2.7020 -0.5075
16057TIP3   OH269585   2.515   4.450   2.243 -0.1298  0.1053 -0.7847
16057TIP3    H169586   2.490   4.541   2.228  1.5312  0.5463 -0.9829
16057TIP3    H269587   2.441   4.399   2.210 -1.6841  1.3999  0.5904
16058TIP3   OH269588   2.824   4.919   2.802 -0.1427 -0.4346  0.2584
16058TIP3    H169589   2.866   4.951   2.722 -0.4990 -0.5095  0.0421
16058TIP3    H269590   2.731   4.933   2.787 -0.3139 -1.6920  0.1101
16059TIP3   OH269591   0.527   5.312   2.072  0.3355  0.8054  0.0315
16059TIP3    H169592   0.552   5.404   2.081  1.5685  0.2627  2.7717
16059TIP3    H269593   0.605   5.270   2.037 -0.0737  0.7225 -0.7806
16060TIP3   OH269594   1.281   6.761   2.677  0.3418 -0.3491  0.0530
16060TIP3    H169595   1.199   6.751   2.724  0.7634  0.2348  0.9286
16060TIP3    H269596   1.256   6.770   2.585 -0.6659  1.3840  0.4775
16061TIP3   OH269597   0.439   0.591   2.240  0.8466  0.9157 -0.3874
16061TIP3    H169598   0.425   0.549   2.325  3.1895  0.6684 -0.1024
16061TIP3    H269599   0.371   0.554   2.184  0.6747 -0.5884  0.7895
16062TIP3   OH269600   0.240   6.945   3.167  0.1564  0.2149 -0.0082
16062TIP3    H169601   0.145   6.937   3.152  0.0596 -0.3261  0.8232
16062TIP3    H269602   0.258   6.879   3.234  0.9245  1.1256  0.6722
16063TIP3   OH269603   1.354   4.558   2.446  0.4018 -0.0930  0.3688
16063TIP3    H169604   1.420   4.504   2.489 -0.4175 -0.8863  0.6437
16063TIP3    H269605   1.311   4.605   2.517  0.0260 -0.3092  0.2876
16064TIP3   OH269606   4.943   6.077   3.433 -0.0656 -0.0690 -0.4299
16064TIP3    H169607   4.960   6.062   3.339  0.8628 -0.6714 -0.1761
16064TIP3    H269608   4.981   6.000   3.476  2.1505  1.6053  0.6921
16065TIP3   OH269609   1.812   6.081   3.328 -0.0258  0.3978 -0.4993
16065TIP3    H169610   1.786   6.152   3.270 -0.0843  0.0256 -0.9315
16065TIP3    H269611   1.778   6.002   3.286  2.4960 -0.1929 -1.5038
16066TIP3   OH269612   2.328   6.397   2.233  0.3223 -0.1763  0.2037
16066TIP3    H169613   2.399   6.462   2.225 -1.2761  1.9092  2.3859
16066TIP3    H269614   2.372   6.318   2.264  2.0436  0.3709 -0.7424
16067TIP3   OH269615   0.092   0.922   4.777 -1.0483  0.2518  0.5628
16067TIP3    H169616   0.040   0.904   4.856 -0.1762  0.4335  1.1857
16067TIP3    H269617   0.183   0.921   4.807 -0.5780 -1.6966 -0.8267
16068TIP3   OH269618   0.562   0.324   2.377  0.1620  0.1200  0.7073
16068TIP3    H169619   0.476   0.312   2.417 -0.0058 -0.0480  0.2931
16068TIP3    H269620   0.619   0.264   2.424  0.1753  0.6442  1.3685
16069TIP3   OH269621   4.119   6.101   0.074  0.0772 -0.7866  0.7272
16069TIP3    H169622   4.111   6.148   0.157 -0.5857 -1.4353  1.0436
16069TIP3    H269623   4.052   6.032   0.080 -0.4797 -0.3738 -0.6471
16070TIP3   OH269624   6.156   5.244   2.712 -0.0534 -0.3166 -0.5238
16070TIP3    H169625   6.115   5.230   2.797  0.5080  2.3369  0.2280
16070TIP3    H269626   6.084   5.233   2.649 -1.1830  0.8479  0.5295
16071TIP3   OH269627   1.278   0.154   4.266 -0.6108  0.0052 -0.3591
16071TIP3    H169628   1.330   0.229   4.296  2.9701 -3.2571  2.0986
16071TIP3    H269629   1.219   0.136   4.340 -0.5966 -0.3357 -0.4320
16072TIP3   OH269630   0.315   6.838   3.700 -0.0145 -0.1197  0.2643
16072TIP3    H169631   0.300   6.761   3.646  1.2211 -0.8176  0.9035
16072TIP3    H269632   0.398   6.874   3.668  0.3583 -0.1209  1.2163
16073TIP3   OH269633   2.614   6.869   1.926 -0.0546 -0.7499 -0.0465
16073TIP3    H169634   2.644   6.861   1.835 -0.8196 -1.0098 -0.2814
16073TIP3    H269635   2.687   6.911   1.972 -0.2262  0.7265 -1.0869
16074TIP3   OH269636   1.943   5.931   0.576 -0.3780  0.6288 -0.1111
16074TIP3    H169637   2.032   5.951   0.606 -0.7965  0.7464  1.0659
16074TIP3    H269638   1.940   5.965   0.486  1.3102 -0.9378 -0.7899
16075TIP3   OH269639   0.542   2.946   2.748  0.0538  0.5520 -0.1009
16075TIP3    H169640   0.460   2.902   2.770 -1.8695  3.5984 -0.7886
16075TIP3    H269641   0.570   2.905   2.666 -0.2300 -1.2202  0.6737
16076TIP3   OH269642   2.980   7.297   3.284  0.2517  0.1426  0.0720
16076TIP3    H169643   3.033   7.234   3.333 -0.0551 -0.0447  0.1603
16076TIP3    H269644   2.915   7.328   3.348  0.4664  0.6226  0.0592
16077TIP3   OH269645   1.360   0.088   1.881  0.4572 -0.0231 -0.8346
16077TIP3    H169646   1.408   0.093   1.964  0.1329 -0.0549 -0.6428
16077TIP3    H269647   1.269   0.107   1.905  0.2189 -0.8612 -1.0443
16078TIP3   OH269648   0.785   3.413   3.649  0.2117  0.4159  0.2957
16078TIP3    H169649   0.850   3.353   3.613  0.3637  0.2328  0.8682
16078TIP3    H269650   0.814   3.430   3.739 -0.5871  0.2418  0.5943
16079TIP3   OH269651   1.061   4.696   2.713  0.4696  0.2631  0.8802
16079TIP3    H169652   1.035   4.644   2.789 -0.3168  0.3261  0.6593
16079TIP3    H269653   1.084   4.782   2.749 -0.3054  0.4205  1.0044
16080TIP3   OH269654   1.146   5.500   0.682 -0.1582 -0.3776  0.3715
16080TIP3    H169655   1.226   5.463   0.645 -1.0539 -0.5406 -1.4530
16080TIP3    H269656   1.101   5.425   0.721  0.2059 -0.4152  0.7272
16081TIP3   OH269657   1.974   5.375   3.551 -0.6628  0.0118  0.3702
16081TIP3    H169658   2.038   5.431   3.595 -0.4447  0.0854 -0.0396
16081TIP3    H269659   1.912   5.437   3.512  0.7762  0.0567 -1.9221
16082TIP3   OH269660   3.658   4.748   3.111  0.1754 -0.0577  0.3895
16082TIP3    H169661   3.583   4.803   3.087 -1.2157 -1.3176  1.7671
16082TIP3    H269662   3.619   4.667   3.145  2.0874  0.3076  3.6626
16083TIP3   OH269663   3.754   4.839   3.348  0.0588  0.6328  0.4454
16083TIP3    H169664   3.717   4.858   3.434 -0.2551 -2.9072  1.1792
16083TIP3    H269665   3.678   4.826   3.291  0.2194  0.4238  0.2750
16084TIP3   OH269666   0.651   4.017   0.330  0.0860  0.0956 -0.1057
16084TIP3    H169667   0.633   4.105   0.365  0.6997  0.5131 -0.8278
16084TIP3    H269668   0.588   4.006   0.259 -0.5524 -0.3872  0.5341
16085TIP3   OH269669   7.009   4.817   2.402 -0.1514  0.1481 -0.4419
16085TIP3    H169670   6.971   4.802   2.489 -0.4771 -0.0468 -0.6155
16085TIP3    H269671   7.015   4.912   2.395 -0.7757  0.1890 -0.4789
16086TIP3   OH269672   1.403   4.902   4.560 -0.0893  0.7113  0.6659
16086TIP3    H169673   1.390   4.837   4.491 -0.9928  2.0457 -0.4620
16086TIP3    H269674   1.457   4.858   4.625  3.2701  0.2821 -2.1966
16087TIP3   OH269675   2.597   6.255   1.132  0.3162  0.0500  0.3261
16087TIP3    H169676   2.679   6.245   1.084  1.0098  1.4597  1.1764
16087TIP3    H269677   2.619   6.316   1.203 -1.2724 -0.1808  1.0231
16088TIP3   OH269678   1.891   6.986   4.226  0.0320 -0.3378  0.2632
16088TIP3    H169679   1.975   6.957   4.192  0.3301  0.3627  0.3946
16088TIP3    H269680   1.883   6.944   4.311 -0.1293 -1.0594 -0.0991
16089TIP3   OH269681   6.709   1.027   1.919 -0.2536 -0.0472  0.3036
16089TIP3    H169682   6.772   1.093   1.891 -0.5813  1.1395  2.3186
16089TIP3    H269683   6.757   0.944   1.911  1.4419  0.8002  1.4225
16090TIP3   OH269684   2.859   6.137   4.851 -0.9928 -0.6402  0.0805
16090TIP3    H169685   2.835   6.052   4.814  0.0926 -0.0095 -2.1641
16090TIP3    H269686   2.798   6.199   4.811 -1.5389 -0.2872  1.4238
16091TIP3   OH269687   1.302   6.873   4.308  0.0751 -0.0421 -0.0926
16091TIP3    H169688   1.233   6.921   4.262  2.6931  1.8499 -2.2404
16091TIP3    H269689   1.261   6.842   4.388 -2.9232  2.0758 -0.7359
16092TIP3   OH269690   6.404   6.279   1.830 -0.2082 -0.4995 -0.0611
16092TIP3    H169691   6.496   6.290   1.853 -0.7958  1.4959  1.4596
16092TIP3    H269692   6.399   6.299   1.737  0.7817  0.0690  0.0083
16093TIP3   OH269693   2.390   0.152   1.324 -0.3494  0.1672 -0.1690
16093TIP3    H169694   2.345   0.222   1.373 -2.0557 -2.8263  2.7279
16093TIP3    H269695   2.472   0.139   1.371 -0.4375 -0.3682 -0.1632
16094TIP3   OH269696   0.533   6.721   2.592  0.2001  0.5753 -0.2978
16094TIP3    H169697   0.524   6.628   2.610  0.2326  0.5489 -0.4124
16094TIP3    H269698   0.447   6.758   2.610  0.4638  0.6965  0.7376
16095TIP3   OH269699   4.701   6.547   2.719  0.5433 -0.3431  0.1155
16095TIP3    H169700   4.680   6.597   2.641  1.7476 -2.8890 -1.9421
16095TIP3    H269701   4.795   6.528   2.712  0.7617 -0.3230  2.3707
16096TIP3   OH269702   2.068   7.294   4.326  0.2683 -0.4743 -0.4567
16096TIP3    H169703   2.137   7.338   4.376 -0.5937 -0.2794  0.5810
16096TIP3    H269704   2.108   7.211   4.300  1.4971  0.4044 -1.4091
16097TIP3   OH269705   3.330   5.035   3.066 -0.4771 -0.1521 -0.3962
16097TIP3    H169706   3.403   4.982   3.035 -0.1747 -1.7081  2.8053
16097TIP3    H269707   3.371   5.102   3.122 -1.4595 -1.2270  1.6782
16098TIP3   OH269708   3.703   6.081   2.271 -0.5225  0.0677  0.7222
16098TIP3    H169709   3.786   6.035   2.285  0.0355  0.9514  0.3773
16098TIP3    H269710   3.699   6.145   2.342 -0.5317  0.5540  0.2842
16099TIP3   OH269711   5.362   5.427   2.150 -0.4677 -0.1615 -0.0039
16099TIP3    H169712   5.358   5.373   2.229  0.1042  0.4076  0.4214
16099TIP3    H269713   5.455   5.429   2.127 -0.7737 -1.2965 -1.3746
16100TIP3   OH269714   3.034   5.950   2.251 -0.2285 -0.0081  0.2668
16100TIP3    H169715   2.941   5.964   2.271 -0.1722 -0.4162  0.8254
16100TIP3    H269716   3.035   5.870   2.197 -0.0707 -0.9078  1.5679
16101TIP3   OH269717   2.812   5.862   2.792  0.3156 -0.2052 -0.6211
16101TIP3    H169718   2.851   5.803   2.857  0.9892 -0.8681 -1.5991
16101TIP3    H269719   2.817   5.813   2.710 -0.2637  0.7321 -1.2233
16102TIP3   OH269720   2.410   1.633   5.434  0.5632 -0.5913 -0.2983
16102TIP3    H169721   2.468   1.688   5.381 -0.3357  0.3050 -0.3771
16102TIP3    H269722   2.469   1.580   5.487  1.4627  0.5343 -0.1431
16103TIP3   OH269723   4.681   1.035   3.849  0.3535  0.3576  0.0169
16103TIP3    H169724   4.658   1.049   3.941  0.5526  1.9531 -0.1592
16103TIP3    H269725   4.618   1.088   3.800  0.2281 -0.5137 -0.7601
16104TIP3   OH269726   3.389   6.118   2.965  0.3654 -0.1278  0.1364
16104TIP3    H169727   3.469   6.149   2.921  0.9191  0.3975  1.4944
16104TIP3    H269728   3.360   6.192   3.017 -1.1489 -0.2582 -0.5093
16105TIP3   OH269729   5.084   0.552   1.161 -0.1871 -0.0192 -0.3951
16105TIP3    H169730   5.022   0.586   1.226 -0.1345  0.0153 -0.3626
16105TIP3    H269731   5.168   0.589   1.188 -0.1326 -0.1632 -0.3702
16106TIP3   OH269732   4.515   6.723   3.457  0.0760 -0.2912 -0.0414
16106TIP3    H169733   4.451   6.673   3.508 -0.5229 -0.5371 -1.0277
16106TIP3    H269734   4.495   6.702   3.366  2.1676 -1.1553 -0.3417
16107TIP3   OH269735   2.206   6.073   3.038 -0.5002  0.5246  0.2052
16107TIP3    H169736   2.222   6.167   3.049  1.1188  0.2258  0.5654
16107TIP3    H269737   2.293   6.036   3.023 -1.1436 -0.9085 -0.0656
16108TIP3   OH269738   2.486   0.522   3.944 -0.9226 -0.2713 -0.5723
16108TIP3    H169739   2.540   0.464   3.997 -0.8049 -0.4756 -0.9169
16108TIP3    H269740   2.410   0.541   3.999 -0.3800  0.2273  0.0205
16109TIP3   OH269741   0.566   0.357   3.993  0.1912  0.3108  0.1405
16109TIP3    H169742   0.599   0.446   3.978 -1.4489  0.6186 -1.7993
16109TIP3    H269743   0.472   0.367   4.004  0.2658 -0.9587  2.1851
16110TIP3   OH269744   2.577   6.194   4.154  0.0413 -0.0904 -0.1109
16110TIP3    H169745   2.504   6.237   4.198  0.5866  0.6032  0.1220
16110TIP3    H269746   2.644   6.183   4.222 -0.1526 -1.4673 -0.1225
16111TIP3   OH269747   3.970   7.259   5.552 -0.7811  0.5123  0.2020
16111TIP3    H169748   4.055   7.286   5.587 -1.3399  0.4004  1.6863
16111TIP3    H269749   3.969   7.291   5.462  1.0452  0.0660  0.0103
16112TIP3   OH269750   3.767   0.177   3.744  0.2499 -0.1859  0.4641
16112TIP3    H169751   3.815   0.243   3.695  2.1506 -2.2134 -0.5378
16112TIP3    H269752   3.777   0.204   3.836 -0.3067  1.7129 -0.0153
16113TIP3   OH269753   1.234   6.121   2.256  0.1321  0.1367  0.6295
16113TIP3    H169754   1.274   6.085   2.177 -2.3904  0.1250 -0.7077
16113TIP3    H269755   1.218   6.044   2.311  0.3673 -0.0653  0.4213
16114TIP3   OH269756   3.296   1.720   2.645 -0.0586  0.2705 -0.6111
16114TIP3    H169757   3.256   1.732   2.731 -0.1434 -1.2419 -0.4358
16114TIP3    H269758   3.277   1.802   2.599 -1.4775  0.4227  0.2152
16115TIP3   OH269759   1.296   0.653   1.430  0.1904  0.1332 -0.1335
16115TIP3    H169760   1.261   0.567   1.406 -1.4248  0.9374 -0.7042
16115TIP3    H269761   1.284   0.658   1.525  0.4729 -0.3399 -0.0687
16116TIP3   OH269762   4.894   6.352   2.988  0.1511  0.1430  0.3549
16116TIP3    H169763   4.927   6.285   2.930  0.8112 -0.2415  1.1598
16116TIP3    H269764   4.966   6.370   3.048  0.2320  2.0698 -0.2703
16117TIP3   OH269765   2.958   1.192   3.172  0.1138 -0.2711  0.0160
16117TIP3    H169766   2.987   1.198   3.081 -1.0806  1.4645 -0.2777
16117TIP3    H269767   2.885   1.253   3.178 -1.1113 -1.8544  1.6612
16118TIP3   OH269768   4.794   0.369   2.588  0.0825  0.4188  0.2538
16118TIP3    H169769   4.866   0.358   2.650  0.4784 -1.9144 -0.5771
16118TIP3    H269770   4.810   0.454   2.547  1.2379  0.8150  1.5021
16119TIP3   OH269771   3.914   6.901   1.885 -0.6166  0.1303  0.5228
16119TIP3    H169772   3.838   6.855   1.851  1.2910 -1.3408 -1.9340
16119TIP3    H269773   3.950   6.841   1.951  0.0496 -0.4661 -0.3826
16120TIP3   OH269774   4.210   1.451   0.851  0.1913 -0.3463  0.7267
16120TIP3    H169775   4.246   1.406   0.928  1.3387  1.6530  1.4135
16120TIP3    H269776   4.195   1.541   0.881 -0.9926  0.0209 -0.9036
16121TIP3   OH269777   4.366   6.924   1.453 -0.2323 -0.2351 -0.3540
16121TIP3    H169778   4.394   6.992   1.392  0.2888  0.3032  0.4744
16121TIP3    H269779   4.289   6.962   1.496 -0.7546 -0.7158 -0.8431
16122TIP3   OH269780   3.901   6.044   3.063 -0.4027  0.1594 -0.4409
16122TIP3    H169781   3.960   5.971   3.082 -0.9588  0.0281  0.8355
16122TIP3    H269782   3.834   6.039   3.132 -1.6947  0.5199 -1.6485
16123TIP3   OH269783   2.820   0.517   4.350  0.2397  0.0829  0.2127
16123TIP3    H169784   2.738   0.564   4.364  0.8386  1.3186 -0.4104
16123TIP3    H269785   2.848   0.492   4.438 -1.4718 -1.5388  0.3407
16124TIP3   OH269786   2.097   5.442   4.321 -0.0092 -0.1532 -0.2104
16124TIP3    H169787   2.151   5.365   4.335  0.5535  0.4380  0.8613
16124TIP3    H269788   2.158   5.510   4.293 -0.6684 -0.4152 -2.4206
16125TIP3   OH269789   2.662   1.537   4.390  0.0443  0.5437 -0.5605
16125TIP3    H169790   2.600   1.528   4.462  1.9927  1.2029  1.2647
16125TIP3    H269791   2.710   1.454   4.390  1.1579  1.1673  0.0148
16126TIP3   OH269792   3.493   5.529   3.294  0.1042 -0.1774  0.4661
16126TIP3    H169793   3.438   5.593   3.338 -0.3035 -1.5787  2.0478
16126TIP3    H269794   3.462   5.528   3.203 -0.0194  1.6852  0.4839
16127TIP3   OH269795   4.166   0.024   0.422  0.5569 -0.0257 -0.3148
16127TIP3    H169796   4.092   0.058   0.472  0.7628  3.2766 -2.1222
16127TIP3    H269797   4.128  -0.001   0.338  1.3287  0.8297 -0.9211
16128TIP3   OH269798   2.147   5.007   1.757 -0.0065 -0.0253  0.4226
16128TIP3    H169799   2.196   5.070   1.704  1.1101  0.4000  1.9212
16128TIP3    H269800   2.055   5.031   1.744  0.2393 -0.0532 -1.4426
16129TIP3   OH269801   3.078   6.106   2.825  0.3832  0.0125 -0.2915
16129TIP3    H169802   3.126   6.026   2.801 -0.1644 -0.4880  0.2398
16129TIP3    H269803   3.025   6.126   2.748 -0.0535 -0.5816 -0.1530
16130TIP3   OH269804   2.034   1.417   4.405  0.5175  0.3524 -0.2093
16130TIP3    H169805   2.107   1.362   4.433 -0.5139 -0.8318  0.2430
16130TIP3    H269806   2.017   1.390   4.315 -0.0564 -0.1566  0.0470
16131TIP3   OH269807   3.061   4.824   1.469  1.0973  0.2292  0.5075
16131TIP3    H169808   3.062   4.753   1.406 -0.7375  0.3063  0.3918
16131TIP3    H269809   3.080   4.902   1.417  0.1903  0.2131  0.1511
16132TIP3   OH269810   4.433   7.052   3.483 -0.1387  0.0590 -0.0371
16132TIP3    H169811   4.474   6.976   3.441  1.9233 -0.2224  2.4289
16132TIP3    H269812   4.425   7.117   3.412  1.6948 -1.0242 -1.2744
16133TIP3   OH269813   4.815   1.203   2.603 -0.0949 -0.0641  0.3929
16133TIP3    H169814   4.764   1.149   2.663  0.7232 -0.4330  0.7610
16133TIP3    H269815   4.853   1.272   2.658 -0.7653  0.6315  0.0024
16134TIP3   OH269816   3.588   1.208   2.055  0.2973 -0.3918 -0.0419
16134TIP3    H169817   3.615   1.292   2.019 -0.0823  0.0525  0.6821
16134TIP3    H269818   3.625   1.143   1.996  1.9699  0.2294  0.2812
16135TIP3   OH269819   3.257   5.940   4.698 -0.2283 -0.6448 -0.6784
16135TIP3    H169820   3.199   6.009   4.731  0.3155  0.0657 -1.2019
16135TIP3    H269821   3.208   5.859   4.712 -1.2631 -0.0709 -0.9246
16136TIP3   OH269822   2.581   0.748   5.058  0.3697 -0.1215  0.3882
16136TIP3    H169823   2.532   0.752   4.975  1.4867 -1.7384 -0.3724
16136TIP3    H269824   2.514   0.755   5.126 -0.8122 -1.2473 -0.6487
16137TIP3   OH269825   3.086   1.912   4.246 -0.3385  0.2173  0.1273
16137TIP3    H169826   3.063   1.890   4.155  3.6383  0.6393 -1.0474
16137TIP3    H269827   3.150   1.845   4.272  3.6633  3.8756  0.2311
16138TIP3   OH269828   2.745   0.472   3.185 -0.0155  0.0464  0.1874
16138TIP3    H169829   2.788   0.388   3.166 -0.4515  0.0516 -0.8503
16138TIP3    H269830   2.661   0.467   3.139  0.5830  1.6546 -1.1304
16139TIP3   OH269831   3.091   4.727   3.199 -0.5152  0.2841 -0.4173
16139TIP3    H169832   3.023   4.707   3.134  0.0582 -1.0800 -0.6231
16139TIP3    H269833   3.126   4.641   3.224  1.0679  0.9624 -0.2499
16140TIP3   OH269834   1.744   6.252  15.107  0.0997 -0.3045 -0.2247
16140TIP3    H169835   1.708   6.202  15.034 -0.2134 -2.4504  1.3499
16140TIP3    H269836   1.835   6.226  15.113  0.7925  1.7108 -1.3366
16141TIP3   OH269837   4.095   7.287   4.634  0.3858 -0.6010  0.3439
16141TIP3    H169838   4.037   7.293   4.558 -0.7999  0.0868  1.2844
16141TIP3    H269839   4.124   7.377   4.649  0.2855 -0.6726  0.9551
16142TIP3   OH269840   4.539   6.357   4.752  0.1929  1.0380 -0.0352
16142TIP3    H169841   4.477   6.335   4.822 -0.1581  1.4851 -0.2069
16142TIP3    H269842   4.509   6.308   4.676  0.1861  1.0720 -0.0542
16143TIP3   OH269843   3.794   5.580   2.083 -0.1266  0.0426  0.0712
16143TIP3    H169844   3.751   5.662   2.062 -1.4196 -0.7195 -0.3559
16143TIP3    H269845   3.879   5.585   2.039 -0.7635  0.5683 -1.1366
16144TIP3   OH269846   4.468   6.241   2.520  0.1168 -0.1071 -0.4310
16144TIP3    H169847   4.400   6.297   2.481  0.6892  0.5067 -0.5657
16144TIP3    H269848   4.539   6.302   2.542 -0.6066 -0.2850  2.5308
16145TIP3   OH269849   5.547   6.454   2.697  0.2926  0.0747  0.0575
16145TIP3    H169850   5.567   6.361   2.702  3.6841  0.7459  0.7084
16145TIP3    H269851   5.456   6.458   2.668  0.3351 -3.4040 -0.7955
16146TIP3   OH269852   2.467   0.382   2.510  0.0224 -0.4541 -0.0527
16146TIP3    H169853   2.495   0.357   2.598 -0.1462  1.5811  0.6164
16146TIP3    H269854   2.546   0.374   2.456  0.5530 -0.0582  0.6605
16147TIP3   OH269855   4.395   0.101   2.213  0.3434  0.1565  0.2246
16147TIP3    H169856   4.450   0.178   2.196  1.7135 -1.2710 -2.2537
16147TIP3    H269857   4.321   0.112   2.154  0.3503 -0.2096  0.1469
16148TIP3   OH269858   3.904   4.068   3.124  0.4294  0.3858 -0.0210
16148TIP3    H169859   3.916   4.106   3.210  1.2554 -1.0699  0.5263
16148TIP3    H269860   3.809   4.057   3.115  0.3612  0.3166  0.7923
16149TIP3   OH269861   3.056   5.094   1.349  0.4292 -0.0936  0.1874
16149TIP3    H169862   3.052   5.174   1.401 -0.2604  0.1967 -0.3106
16149TIP3    H269863   3.012   5.115   1.267  1.3852 -0.5984 -0.4713
16150TIP3   OH269864   3.027   7.066   3.697 -0.0496  0.3398  0.6144
16150TIP3    H169865   3.078   7.084   3.618  0.2190  2.4354  1.2327
16150TIP3    H269866   2.947   7.118   3.685 -0.5686 -0.3404  1.1436
16151TIP3   OH269867   4.014   1.383   1.877 -0.0222  0.1169  0.3393
16151TIP3    H169868   3.994   1.424   1.793 -0.0979 -1.9880 -0.7076
16151TIP3    H269869   4.110   1.384   1.882 -0.0357  0.7891  0.5150
16152TIP3   OH269870   2.479   5.769   2.176  0.4300  0.3204  0.1413
16152TIP3    H169871   2.567   5.767   2.140  0.1269  1.1636 -0.6476
16152TIP3    H269872   2.457   5.676   2.191  1.2387  0.0828 -0.1449
16153TIP3   OH269873   3.948   4.293   4.415 -0.6939 -0.0372  0.3634
16153TIP3    H169874   4.035   4.295   4.455 -0.5026  0.0527 -0.0524
16153TIP3    H269875   3.913   4.380   4.431 -0.7065 -0.0731  0.5312
16154TIP3   OH269876   5.930   5.299   3.242  0.8053 -0.2965 -0.8564
16154TIP3    H169877   5.996   5.254   3.295 -0.0971  0.9213  1.3668
16154TIP3    H269878   5.872   5.229   3.212  1.9931 -1.1369 -1.2524
16155TIP3   OH269879   3.299   6.283   3.148  0.1501 -0.3649 -0.0957
16155TIP3    H169880   3.236   6.353   3.167 -0.2896 -0.3754 -1.4585
16155TIP3    H269881   3.338   6.263   3.233  0.6298  1.8692  0.2570
16156TIP3   OH269882   1.419   5.607   2.871 -0.1751  0.0944  0.2976
16156TIP3    H169883   1.378   5.668   2.933 -1.4544 -0.2461 -0.2093
16156TIP3    H269884   1.510   5.637   2.865 -0.8219  2.0745 -0.0873
16157TIP3   OH269885   4.766   4.885   4.515  0.5941  0.7356  0.6573
16157TIP3    H169886   4.684   4.841   4.492  0.2209  2.2104 -0.9135
16157TIP3    H269887   4.775   4.872   4.609 -1.8908  1.2633  0.9863
16158TIP3   OH269888   4.429   5.251   4.899 -0.2826  0.2222 -0.0149
16158TIP3    H169889   4.391   5.323   4.850  0.5507 -0.8603 -2.3169
16158TIP3    H269890   4.436   5.179   4.835  3.4226 -0.3534  0.9330
16159TIP3   OH269891   2.369   5.644   3.184  0.0571  0.0054 -0.0938
16159TIP3    H169892   2.291   5.618   3.136  1.5752 -2.1424 -1.4868
16159TIP3    H269893   2.357   5.606   3.271 -0.6096  0.0076 -0.1822
16160TIP3   OH269894   3.227   4.212   3.367 -0.3280 -0.5316  0.2696
16160TIP3    H169895   3.230   4.177   3.278  2.3682 -0.5988  0.3352
16160TIP3    H269896   3.279   4.150   3.419 -0.8702  0.1486  1.6654
16161TIP3   OH269897   2.129   7.050   2.447  0.1140  0.5853 -0.2533
16161TIP3    H169898   2.152   6.968   2.404  1.4636 -0.1886  1.8462
16161TIP3    H269899   2.037   7.063   2.426  0.5142 -0.1992 -2.6187
16162TIP3   OH269900   3.129   4.329  15.274  0.1839  0.0729  0.1133
16162TIP3    H169901   3.055   4.270  15.290  1.5452 -1.1064  2.3952
16162TIP3    H269902   3.177   4.290  15.202  0.5929 -1.1692  1.0465
16163TIP3   OH269903   5.643   6.793   2.165 -0.5159 -0.6088  0.0813
16163TIP3    H169904   5.687   6.752   2.090  0.7050  0.6735  0.0874
16163TIP3    H269905   5.620   6.880   2.134 -0.8213 -0.3963  0.9099
16164TIP3   OH269906   5.348   0.455   1.234  0.2666  0.0320 -0.2689
16164TIP3    H169907   5.318   0.366   1.213 -0.4569  0.4249 -0.9550
16164TIP3    H269908   5.443   0.449   1.230  0.2269  0.2429 -4.6797
16165TIP3   OH269909   4.184   0.170   2.043 -0.1955  0.6627  0.0281
16165TIP3    H169910   4.123   0.146   1.973 -0.3368  0.1859  0.3091
16165TIP3    H269911   4.179   0.265   2.048  0.2654  0.7385 -1.0187
16166TIP3   OH269912   3.525   5.617   2.763  0.7216 -0.1758 -0.3163
16166TIP3    H169913   3.585   5.691   2.760  0.5621 -0.0514 -0.4618
16166TIP3    H269914   3.515   5.591   2.671  0.8054 -0.4002 -0.2630
16167TIP3   OH269915   1.731   1.841   3.385 -0.5692  0.9672  0.5701
16167TIP3    H169916   1.650   1.811   3.343 -0.0804 -0.5491  0.6861
16167TIP3    H269917   1.736   1.791   3.466  1.0686  0.2173  0.0219
16168TIP3   OH269918   4.086   6.162   1.591  0.3513  0.6118 -0.1753
16168TIP3    H169919   4.151   6.232   1.586  0.2143  0.8795  1.5859
16168TIP3    H269920   4.076   6.145   1.684 -0.5809 -0.8686 -0.5310
16169TIP3   OH269921   4.516   1.639   3.686 -0.1570  0.0207  0.4424
16169TIP3    H169922   4.431   1.636   3.642 -0.7956 -1.3341  1.7035
16169TIP3    H269923   4.548   1.728   3.671 -2.0573  0.7204  0.4060
16170TIP3   OH269924   2.845   1.534   3.280  0.2357  0.1303  0.2507
16170TIP3    H169925   2.877   1.507   3.366 -0.0765 -2.0357 -0.2746
16170TIP3    H269926   2.869   1.626   3.273  1.9978 -0.1634  1.8687
16171TIP3   OH269927   0.804   6.690   5.711  0.1379  0.0165  0.8327
16171TIP3    H169928   0.771   6.755   5.649  0.2107  1.0113  1.8381
16171TIP3    H269929   0.876   6.647   5.664 -1.5077 -1.0534 -0.7571
16172TIP3   OH269930   3.150   6.938   3.223  0.9826 -0.0992 -0.5180
16172TIP3    H169931   3.150   6.847   3.192  0.6253  0.1449 -1.2456
16172TIP3    H269932   3.096   6.936   3.302  0.8554 -0.4915 -0.6116
16173TIP3   OH269933   4.706   5.517   3.108 -0.1593 -0.1627  0.0781
16173TIP3    H169934   4.718   5.439   3.162  2.2875  0.1202  0.0010
16173TIP3    H269935   4.794   5.550   3.093 -0.9537  1.0933 -2.1641
16174TIP3   OH269936   4.350   0.088   3.676  0.0092  0.1924  0.6154
16174TIP3    H169937   4.421   0.099   3.739  0.1142 -2.0595  0.9409
16174TIP3    H269938   4.377   0.141   3.601  1.2091  0.7128  1.3924
16175TIP3   OH269939   3.815   5.247   3.577  0.0243 -0.5386 -0.2710
16175TIP3    H169940   3.823   5.340   3.598 -2.0331 -0.5567  0.7081
16175TIP3    H269941   3.891   5.228   3.521  0.5243  1.6812 -0.3768
16176TIP3   OH269942   3.330   0.773   2.357 -0.1713 -0.0783 -0.0540
16176TIP3    H169943   3.234   0.781   2.360 -0.1211  0.5462 -0.0589
16176TIP3    H269944   3.346   0.679   2.370 -0.7947 -0.2307 -0.3179
16177TIP3   OH269945   3.505   6.896   3.498 -0.2889  0.2161  0.1438
16177TIP3    H169946   3.582   6.841   3.514 -1.5719 -2.1539 -1.5544
16177TIP3    H269947   3.465   6.907   3.584 -0.2482 -1.9258  0.4644
16178TIP3   OH269948   7.216   3.925   4.250  0.0592 -0.2045  0.1457
16178TIP3    H169949   7.138   3.870   4.250 -2.2921  2.9634 -1.0417
16178TIP3    H269950   7.230   3.948   4.158  0.4590  1.7782  0.6605
16179TIP3   OH269951   2.735   5.634   2.107 -1.2319 -0.2138  0.0958
16179TIP3    H169952   2.812   5.637   2.164 -0.6512  1.7872 -0.7363
16179TIP3    H269953   2.755   5.698   2.038 -1.4468 -3.2874 -2.9408
16180TIP3   OH269954   4.182   6.335   2.459  0.7415 -0.3480 -0.1249
16180TIP3    H169955   4.179   6.282   2.379  2.0863 -0.1555 -0.3176
16180TIP3    H269956   4.137   6.416   2.435 -0.2553 -0.9056 -0.1965
16181TIP3   OH269957   4.154   5.774   2.925  0.0424  0.2344  0.2852
16181TIP3    H169958   4.233   5.822   2.950  0.8787 -0.7831 -0.3722
16181TIP3    H269959   4.111   5.754   3.008  1.1614 -0.3605  0.7303
16182TIP3   OH269960   3.725   1.081   3.338 -0.5383  0.6697 -0.4510
16182TIP3    H169961   3.634   1.087   3.365 -0.5033 -0.9060  0.0490
16182TIP3    H269962   3.722   1.051   3.247 -0.4806 -1.8205  0.3411
16183TIP3   OH269963   4.841   1.641   1.147 -0.1871  0.3256 -0.1551
16183TIP3    H169964   4.828   1.672   1.237  0.5644  1.7883 -0.5333
16183TIP3    H269965   4.844   1.546   1.154 -0.3350  0.4237  1.3376
16184TIP3   OH269966   3.356   6.668   2.898 -0.2050  0.8074  0.0411
16184TIP3    H169967   3.288   6.684   2.963 -0.7875  0.8139 -0.5688
16184TIP3    H269968   3.310   6.667   2.814 -0.3042 -4.6411  0.0256
16185TIP3   OH269969   3.301   0.558   2.026 -0.1208  0.2063 -0.1137
16185TIP3    H169970   3.263   0.534   2.110 -0.0196  1.1010  0.1901
16185TIP3    H269971   3.266   0.645   2.007 -0.6593 -0.2632 -1.3134
16186TIP3   OH269972   4.901   0.248   4.994 -0.2610 -0.0718  0.0995
16186TIP3    H169973   4.897   0.295   5.077 -2.1175 -0.5345  0.2916
16186TIP3    H269974   4.848   0.301   4.934  0.0375 -0.3991 -0.4570
16187TIP3   OH269975   2.862   0.716   3.189 -0.3574  0.0409  0.1088
16187TIP3    H169976   2.832   0.793   3.141 -0.1064  0.5426  0.7580
16187TIP3    H269977   2.794   0.650   3.173 -1.1195  0.7310  0.4352
16188TIP3   OH269978   1.885   0.475   4.814 -0.1887 -0.1342 -0.1244
16188TIP3    H169979   1.978   0.486   4.832  0.4066 -0.7659 -2.6104
16188TIP3    H269980   1.870   0.524   4.733 -1.8522 -0.7172 -0.1935
16189TIP3   OH269981   3.421   6.984   2.368  0.3529 -0.0756  0.3097
16189TIP3    H169982   3.327   6.984   2.388  0.4949  1.3924  1.0198
16189TIP3    H269983   3.457   7.055   2.421  1.5607  0.6250 -1.3821
16190TIP3   OH269984   2.382   7.055   3.374  0.3369 -0.4175 -0.1631
16190TIP3    H169985   2.371   6.964   3.347 -0.4946 -0.4570  0.2861
16190TIP3    H269986   2.430   7.096   3.302 -0.9344 -0.7723 -1.2289
16191TIP3   OH269987   0.420   6.275   1.793  0.2262  0.1385 -0.8358
16191TIP3    H169988   0.436   6.203   1.733  0.1447  0.1903 -0.9188
16191TIP3    H269989   0.386   6.233   1.872  0.9811  0.0065 -0.5761
16192TIP3   OH269990   2.782   0.037   2.400 -0.0525  0.0167  0.4878
16192TIP3    H169991   2.690   0.055   2.420 -1.2701 -2.3437 -2.6143
16192TIP3    H269992   2.797  -0.051   2.436  0.8046  0.0939  0.3336
16193TIP3   OH269993   2.059   5.945   3.665  0.2029  0.8088  0.0735
16193TIP3    H169994   2.078   6.021   3.611  1.4282  0.8731  0.6031
16193TIP3    H269995   1.969   5.958   3.694  0.0977  1.5865 -0.5934
16194TIP3   OH269996   2.099   5.318   5.237  0.5171  0.0405  0.1401
16194TIP3    H169997   2.085   5.411   5.254  3.3124  0.4706  0.2557
16194TIP3    H269998   2.030   5.294   5.175 -0.3527  2.1237  0.2600
16195TIP3   OH269999   2.118   4.619   0.663 -0.4531 -0.0298  0.1235
16195TIP3    H170000   2.210   4.607   0.637 -0.2610 -1.2292  1.3227
16195TIP3    H270001   2.085   4.531   0.679 -1.3929  0.4858  1.1198
16196TIP3   OH270002   2.384   6.722   2.024  0.1595 -0.0246  0.7155
16196TIP3    H170003   2.381   6.628   2.008 -1.8712 -0.2324  2.0131
16196TIP3    H270004   2.462   6.752   1.979  0.8792 -2.3450  0.3395
16197TIP3   OH270005   3.039   6.384   0.697  0.3175  0.3650  0.7437
16197TIP3    H170006   3.013   6.475   0.681  1.0831  0.8613  2.2357
16197TIP3    H270007   3.134   6.387   0.701  0.4959 -0.9486 -1.7023
16198TIP3   OH270008   4.883   2.937   3.827  0.0706 -0.1248  0.6011
16198TIP3    H170009   4.851   2.849   3.806 -2.8984  1.2838 -1.2127
16198TIP3    H270010   4.919   2.970   3.745  1.2268  0.3336  1.2883
16199TIP3   OH270011   3.625   1.100   4.358  0.2326 -0.0659 -0.3129
16199TIP3    H170012   3.574   1.033   4.403 -0.4777  1.0428  0.5765
16199TIP3    H270013   3.618   1.079   4.265 -0.7521 -0.6747 -0.1016
16200TIP3   OH270014   2.541   0.583   1.755  0.2864  0.0768 -0.1828
16200TIP3    H170015   2.531   0.536   1.838  0.3190 -0.1481 -0.3049
16200TIP3    H270016   2.537   0.514   1.688  1.7469  0.0675 -0.2771
16201TIP3   OH270017   6.723   5.495   0.894 -0.0966  0.3768 -0.0136
16201TIP3    H170018   6.800   5.465   0.846 -1.1027 -1.3769 -0.5984
16201TIP3    H270019   6.702   5.423   0.953 -1.9197  0.3637 -0.6452
16202TIP3   OH270020   2.518   6.719   1.503  0.0255 -0.9353 -0.1015
16202TIP3    H170021   2.449   6.715   1.437 -0.9898 -0.0274  0.8742
16202TIP3    H270022   2.577   6.647   1.482 -1.6398 -2.1946 -0.4949
16203TIP3   OH270023   2.334   0.959   2.014  0.0491  0.2303  0.7678
16203TIP3    H170024   2.426   0.933   2.021 -0.1828 -1.8379 -2.6660
16203TIP3    H270025   2.335   1.040   1.964 -0.0732 -1.7461 -2.6682
16204TIP3   OH270026   3.781   7.061   3.702  0.0746 -0.1248 -1.0020
16204TIP3    H170027   3.869   7.094   3.683 -0.5532  1.1996 -1.6310
16204TIP3    H270028   3.779   7.052   3.797 -0.0239  2.5033 -0.7201
16205TIP3   OH270029   1.389   0.337   1.691  0.1011  0.6642  0.0054
16205TIP3    H170030   1.420   0.285   1.617  1.6544 -0.2665  1.2661
16205TIP3    H270031   1.466   0.346   1.748 -0.9561  1.6784  1.3197
16206TIP3   OH270032   6.238   6.114   4.150 -0.2785 -0.2753  0.6376
16206TIP3    H170033   6.207   6.034   4.191  0.7844 -0.7577  0.5182
16206TIP3    H270034   6.167   6.177   4.164 -1.0512 -1.1848  0.8653
16207TIP3   OH270035   5.283   2.515   3.235  0.1186  0.1962 -0.2026
16207TIP3    H170036   5.369   2.557   3.229 -0.5358  1.3526 -1.7536
16207TIP3    H270037   5.221   2.583   3.210 -1.0615 -1.2660 -1.4007
16208TIP3   OH270038   1.210   5.766   2.657  0.4003  0.3959  0.0514
16208TIP3    H170039   1.290   5.728   2.621  0.4805  0.3903  0.2359
16208TIP3    H270040   1.185   5.707   2.728  1.4721  1.6092  1.4705
16209TIP3   OH270041   2.939   1.063   1.549 -0.1246 -0.0429  0.0578
16209TIP3    H170042   2.927   0.985   1.495  1.3355 -1.2151  1.3756
16209TIP3    H270043   2.937   1.136   1.487 -0.1718 -1.2341 -1.3564
16210TIP3   OH270044   2.534   6.063   3.016  0.2182  0.2447  0.0625
16210TIP3    H170045   2.601   6.119   2.977 -0.0960  0.4570 -0.1750
16210TIP3    H270046   2.582   6.005   3.074  0.9083 -1.2420 -1.9533
16211TIP3   OH270047   2.231   5.988   0.599 -0.0029  0.4231 -0.0750
16211TIP3    H170048   2.247   6.072   0.557 -2.1243 -0.0887 -2.0226
16211TIP3    H270049   2.289   5.987   0.676  3.6959  1.5555 -2.7497
16212TIP3   OH270050   3.576   6.340   3.835 -0.0461 -0.5816 -0.1449
16212TIP3    H170051   3.663   6.301   3.847  0.1045 -0.3062 -0.3273
16212TIP3    H270052   3.533   6.328   3.920  0.2312 -0.5691  0.0003
16213TIP3   OH270053   2.505   4.888   5.282  0.2216 -0.2555  0.2467
16213TIP3    H170054   2.587   4.923   5.318 -0.9026  0.9135  1.7276
16213TIP3    H270055   2.469   4.835   5.353 -0.9101  0.2431  0.0458
16214TIP3   OH270056   3.657   0.013   1.297  0.4042 -0.4177  0.3994
16214TIP3    H170057   3.693  -0.011   1.383  0.3895 -1.4390  0.1259
16214TIP3    H270058   3.562   0.010   1.309  0.4008  0.2889  0.5750
16215TIP3   OH270059   2.817   6.133   4.291 -0.0272 -0.4327 -0.4547
16215TIP3    H170060   2.882   6.133   4.221 -0.1367  0.9645 -0.5705
16215TIP3    H270061   2.856   6.186   4.360 -0.8104 -0.0572 -0.2964
16216TIP3   OH270062   2.947   5.951   1.535  0.1356  0.1058  0.3008
16216TIP3    H170063   2.974   6.042   1.524  0.9635 -0.3806 -2.0636
16216TIP3    H270064   2.898   5.949   1.618  0.2101  2.6534  0.4224
16217TIP3   OH270065   1.497   6.716   4.375 -0.4292  0.3787  0.3070
16217TIP3    H170066   1.457   6.802   4.358  0.1360  0.6629  0.4032
16217TIP3    H270067   1.528   6.688   4.289 -2.0097 -0.4495 -0.0158
16218TIP3   OH270068   3.686   4.813   1.161  0.1958 -0.0227 -0.1959
16218TIP3    H170069   3.706   4.787   1.251  0.5170  0.2176 -0.1961
16218TIP3    H270070   3.634   4.893   1.170  2.7550  1.6850 -0.2825
16219TIP3   OH270071   0.752   6.478   5.252 -0.1265  0.7860  0.1503
16219TIP3    H170072   0.795   6.507   5.333 -0.3159  0.7597  0.2602
16219TIP3    H270073   0.815   6.499   5.183  0.2273  0.4042  0.3512
16220TIP3   OH270074   2.867   5.960   0.849 -0.0331  0.1052 -0.4031
16220TIP3    H170075   2.782   6.001   0.830 -0.2205 -0.5215 -0.9590
16220TIP3    H270076   2.848   5.866   0.848  1.2791 -0.1876 -3.7545
16221TIP3   OH270077   5.240   5.884   2.581 -0.3908  1.0428  0.3397
16221TIP3    H170078   5.284   5.874   2.665 -0.3511 -0.3095  0.1715
16221TIP3    H270079   5.165   5.824   2.586 -1.1591  1.9482 -0.0818
16222TIP3   OH270080   3.618   6.703   6.039 -0.0316 -0.3008 -0.2419
16222TIP3    H170081   3.562   6.752   6.100  0.8421 -0.0316  0.3426
16222TIP3    H270082   3.707   6.722   6.067  0.4352  1.0322 -2.5447
16223TIP3   OH270083   4.363   4.777   3.202  0.3835 -0.7243  0.4235
16223TIP3    H170084   4.384   4.726   3.123  0.9732 -1.7921  1.2527
16223TIP3    H270085   4.417   4.737   3.270  0.9610  1.1144  1.0648
16224TIP3   OH270086   2.572   5.835   3.191 -0.2524 -0.2040 -0.1795
16224TIP3    H170087   2.588   5.894   3.265  1.6904 -1.1459  0.1859
16224TIP3    H270088   2.487   5.796   3.209 -0.7998  1.2373  0.4149
16225TIP3   OH270089   0.119   1.527   2.303 -0.4442 -0.0787  0.3938
16225TIP3    H170090   0.048   1.521   2.239  0.7061 -0.1372 -0.8790
16225TIP3    H270091   0.086   1.589   2.369 -2.6296 -1.8673  1.0749
16226TIP3   OH270092   0.759   5.688   4.001 -0.0204 -0.5533 -0.6647
16226TIP3    H170093   0.736   5.714   3.912  0.6348 -1.6680 -1.1829
16226TIP3    H270094   0.844   5.645   3.992  0.5694  0.3047  0.6706
16227TIP3   OH270095   5.117   4.687   3.831  0.5732 -0.3930  0.3688
16227TIP3    H170096   5.099   4.677   3.737  0.7734 -0.7328  0.3660
16227TIP3    H270097   5.190   4.627   3.848  1.4948  0.7404  0.4442
16228TIP3   OH270098   4.358   3.838   2.207 -0.2583  0.0648  0.0629
16228TIP3    H170099   4.415   3.914   2.218  0.2913 -0.3947  0.4416
16228TIP3    H270100   4.301   3.861   2.134  0.6255  0.3957 -0.5274
16229TIP3   OH270101   3.730   5.793   1.523 -0.4929  0.2719 -0.3504
16229TIP3    H170102   3.764   5.814   1.436 -0.6155  1.7232 -0.0509
16229TIP3    H270103   3.745   5.872   1.575  0.3664 -0.8711  1.1895
16230TIP3   OH270104   1.463   5.780   2.446  0.7392 -0.0795  0.1704
16230TIP3    H170105   1.525   5.707   2.450  0.1186 -0.6535 -0.4818
16230TIP3    H270106   1.513   5.855   2.478  2.2766 -0.2110 -1.8145
16231TIP3   OH270107   3.577   6.082   4.922  0.4069  0.8250  0.0598
16231TIP3    H170108   3.570   5.991   4.894  0.9608  1.7363 -3.2447
16231TIP3    H270109   3.670   6.102   4.917  0.0682  2.1762 -1.3646
16232TIP3   OH270110   2.103   5.305   1.201  0.0343 -0.3262  0.0252
16232TIP3    H170111   2.024   5.252   1.211  0.2504 -0.7691 -0.5363
16232TIP3    H270112   2.100   5.367   1.273  0.3824 -1.8980  1.4219
16233TIP3   OH270113   2.079   2.108   3.511 -0.0775  0.2487  0.0224
16233TIP3    H170114   2.020   2.125   3.437 -1.3854 -2.2283  0.4488
16233TIP3    H270115   2.047   2.166   3.580 -2.7020 -1.7633  0.5670
16234TIP3   OH270116   3.763   7.303   2.858  0.7152  0.0494  0.4560
16234TIP3    H170117   3.807   7.226   2.893  1.0360  0.7179  1.5437
16234TIP3    H270118   3.680   7.307   2.907  0.8621  0.6056  0.6554
16235TIP3   OH270119   1.369   5.071   2.855  0.2357 -0.1051  0.0135
16235TIP3    H170120   1.340   5.104   2.770 -0.1546 -0.0698  0.1588
16235TIP3    H270121   1.408   5.147   2.899 -1.4099  0.3822  0.6810
16236TIP3   OH270122   4.326   7.230   1.848 -0.2411 -0.4314  0.0672
16236TIP3    H170123   4.255   7.175   1.816 -0.9724  0.3483  0.3025
16236TIP3    H270124   4.310   7.316   1.808 -0.1809  0.0883  1.1320
16237TIP3   OH270125   4.380   5.299   4.478 -0.6883 -0.4125 -0.6158
16237TIP3    H170126   4.357   5.284   4.387  0.4095 -1.0467 -0.7932
16237TIP3    H270127   4.342   5.225   4.525 -1.6019  0.1239 -0.4917
16238TIP3   OH270128   4.000   6.475   2.071 -0.2215  0.1096  0.2013
16238TIP3    H170129   3.979   6.416   1.998  1.7306  1.9113 -1.9165
16238TIP3    H270130   4.074   6.433   2.115 -0.7773 -0.5001  0.5627
16239TIP3   OH270131   3.368   6.515   1.314  0.3029 -0.0804  0.0416
16239TIP3    H170132   3.436   6.448   1.301  0.3212  0.1998 -1.3181
16239TIP3    H270133   3.286   6.467   1.304  0.3180  0.2869 -1.9454
16240TIP3   OH270134   1.469   3.778   4.567  0.0983  0.3776  0.0457
16240TIP3    H170135   1.498   3.821   4.647 -1.7869 -0.3110  1.1279
16240TIP3    H270136   1.547   3.774   4.512  1.6427  0.0612  2.1994
16241TIP3   OH270137   1.678   0.176   3.144 -0.5013  0.1040  0.0952
16241TIP3    H170138   1.684   0.095   3.195  1.5161 -0.2377 -0.6461
16241TIP3    H270139   1.767   0.210   3.142 -0.8233  0.9060 -1.9403
16242TIP3   OH270140   3.731   7.164   3.310  0.0070  0.3524  0.3527
16242TIP3    H170141   3.735   7.076   3.347  1.0668 -0.1401 -0.9416
16242TIP3    H270142   3.684   7.215   3.376 -0.1428 -1.0539  1.3451
16243TIP3   OH270143   4.378   6.787   3.945  0.0519  0.0593 -0.7595
16243TIP3    H170144   4.386   6.882   3.943 -1.0487  0.1646 -0.6555
16243TIP3    H270145   4.289   6.770   3.913  0.9292 -1.0427 -2.6988
16244TIP3   OH270146   5.209   0.963   0.817 -0.4670  0.8107  0.5206
16244TIP3    H170147   5.281   1.023   0.837  1.5187 -1.3943  0.2497
16244TIP3    H270148   5.181   0.988   0.729  0.6874  1.0477  0.2034
16245TIP3   OH270149   1.136   0.246   0.744  0.1324 -0.0763  0.2312
16245TIP3    H170150   1.188   0.289   0.676  2.2582  0.4194  2.0876
16245TIP3    H270151   1.171   0.157   0.748 -2.0418 -1.0482 -1.3502
16246TIP3   OH270152   3.410   6.739   2.550  0.3402 -0.0365 -1.1233
16246TIP3    H170153   3.331   6.768   2.595  1.1634  2.3425 -1.1753
16246TIP3    H270154   3.441   6.816   2.502  3.2926 -0.5772 -0.2293
16247TIP3   OH270155   4.392   5.157   3.097  0.2089 -0.1048  0.5069
16247TIP3    H170156   4.428   5.113   3.020  0.2809 -0.6393  0.8377
16247TIP3    H270157   4.458   5.222   3.121  0.9719 -1.0823  1.1147
16248TIP3   OH270158   2.526   6.160   2.221  0.4195 -0.5212 -0.3032
16248TIP3    H170159   2.548   6.189   2.132 -1.4951  1.9148 -0.0630
16248TIP3    H270160   2.460   6.092   2.209  0.2714 -0.2986 -0.7548
16249TIP3   OH270161   5.480   6.729   2.365 -0.1723  0.2456  0.0852
16249TIP3    H170162   5.514   6.767   2.447  0.6246  1.9387 -1.0022
16249TIP3    H270163   5.535   6.767   2.297  1.3016 -3.6468 -1.0096
16250TIP3   OH270164   3.290   5.908   2.832 -0.3655 -0.1824  0.2513
16250TIP3    H170165   3.334   5.832   2.869  1.8394 -0.2707 -2.3659
16250TIP3    H270166   3.334   5.983   2.872 -1.3757 -0.2406  1.5211
16251TIP3   OH270167   1.446   5.624   1.589  0.1124 -0.0213 -0.3798
16251TIP3    H170168   1.422   5.635   1.497  0.5908 -2.1627 -0.8036
16251TIP3    H270169   1.541   5.636   1.590 -0.2358  3.1456  0.4028
16252TIP3   OH270170   2.787   5.568   4.769  0.2479  0.0577 -0.1709
16252TIP3    H170171   2.709   5.526   4.734 -0.5368  0.2328  1.3604
16252TIP3    H270172   2.768   5.582   4.861  1.2105  2.0960 -0.2456
16253TIP3   OH270173   3.126   3.021   3.872  0.4128 -0.1016 -0.1227
16253TIP3    H170174   3.167   3.057   3.951  1.6145 -0.8937 -0.3645
16253TIP3    H270175   3.048   2.976   3.903 -0.1585  1.2257  0.3850
16254TIP3   OH270176   1.772   0.184   1.057  1.0489 -0.4016  0.1312
16254TIP3    H170177   1.771   0.180   0.961 -1.8976 -0.2200  0.1019
16254TIP3    H270178   1.864   0.198   1.079  1.5243  1.7154 -2.7831
16255TIP3   OH270179   1.573   1.615   5.598 -0.1572  0.0333  0.0820
16255TIP3    H170180   1.577   1.601   5.503 -1.5368 -0.6447  0.1139
16255TIP3    H270181   1.521   1.694   5.609  0.4852  0.4390  0.2625
16256TIP3   OH270182   1.202   5.870   5.217 -0.1680 -0.8935 -0.6554
16256TIP3    H170183   1.232   5.847   5.305 -1.3285  1.6405  0.4763
16256TIP3    H270184   1.282   5.879   5.165  0.7772  0.9601  1.0498
16257TIP3   OH270185   2.362   7.046   3.762 -0.0254  0.3178  0.4772
16257TIP3    H170186   2.425   7.115   3.742  0.7712 -0.5529 -0.0737
16257TIP3    H270187   2.281   7.092   3.784  0.0687  1.4048 -1.3432
16258TIP3   OH270188   2.598   6.335   3.658 -0.0824 -0.0002  0.0872
16258TIP3    H170189   2.638   6.328   3.745  0.1221 -1.1697 -0.0869
16258TIP3    H270190   2.586   6.244   3.630 -1.2975  0.3487 -0.5819
16259TIP3   OH270191   6.040   4.628   5.777 -0.5254  0.7317  0.1927
16259TIP3    H170192   6.090   4.546   5.769 -0.4188  0.8722 -0.5890
16259TIP3    H270193   6.041   4.647   5.871 -1.4695 -0.7272  0.5139
16260TIP3   OH270194   2.443   5.431   4.407  0.0980  0.7459 -0.3582
16260TIP3    H170195   2.405   5.515   4.433  1.3222  0.3886  2.8248
16260TIP3    H270196   2.377   5.367   4.433  0.1416  0.5753 -0.6749
16261TIP3   OH270197   2.424   6.692   4.857  0.2597 -0.0296 -0.0980
16261TIP3    H170198   2.334   6.692   4.825  0.1987  0.0406  0.0724
16261TIP3    H270199   2.421   6.743   4.938  0.9352  2.3332 -1.4953
16262TIP3   OH270200   2.532   6.920   2.762 -0.4598 -0.4588 -0.7996
16262TIP3    H170201   2.535   7.010   2.730  0.8081 -1.1068 -2.5422
16262TIP3    H270202   2.482   6.873   2.695 -2.9925 -0.6666  1.1497
16263TIP3   OH270203   4.672   3.181   2.512 -0.0315  0.5606  0.0593
16263TIP3    H170204   4.635   3.159   2.598  1.3186  0.5577  0.6567
16263TIP3    H270205   4.739   3.114   2.497  0.2112  0.9686 -0.6761
16264TIP3   OH270206   3.725   5.835   2.621  0.2144  0.2182  0.8828
16264TIP3    H170207   3.800   5.852   2.679  1.0116 -0.2878  0.0160
16264TIP3    H270208   3.679   5.919   2.617  0.3416  0.3434  1.9878
16265TIP3   OH270209   3.971   4.754   0.616 -0.2055  1.0390 -0.9001
16265TIP3    H170210   3.973   4.778   0.523 -0.3174  0.1121 -1.1561
16265TIP3    H270211   3.926   4.827   0.659 -3.4441 -0.1241 -2.1261
16266TIP3   OH270212   4.033   5.562   3.406  0.3510 -0.0346 -0.1531
16266TIP3    H170213   4.093   5.624   3.365 -0.6044 -0.4076 -2.1764
16266TIP3    H270214   3.969   5.617   3.451  0.1427  0.4513 -1.0244
16267TIP3   OH270215   2.870   5.200   4.884  0.1853 -0.3452 -0.0078
16267TIP3    H170216   2.914   5.132   4.935  0.2235 -1.3867 -1.3951
16267TIP3    H270217   2.938   5.266   4.869 -0.1636  0.5865  2.3363
16268TIP3   OH270218   3.587   5.825   2.331 -0.4981 -0.7425  0.3118
16268TIP3    H170219   3.612   5.802   2.421  1.0845 -1.2118 -0.2261
16268TIP3    H270220   3.616   5.915   2.321  2.0063 -1.5934 -0.6296
16269TIP3   OH270221   2.574   5.395   2.172  0.0051 -0.4499  0.1577
16269TIP3    H170222   2.508   5.404   2.240  0.6578 -0.2519  0.7686
16269TIP3    H270223   2.622   5.478   2.173  1.3032 -1.2001  0.8197
16270TIP3   OH270224   1.819   5.052   0.786  0.1570 -0.4732  0.0861
16270TIP3    H170225   1.751   5.115   0.812 -0.4015 -0.8883 -0.3327
16270TIP3    H270226   1.901   5.090   0.818  0.0316  1.2495 -1.5099
16271TIP3   OH270227   2.732   0.693   3.851  0.1749 -0.4517  0.3189
16271TIP3    H170228   2.670   0.620   3.851  0.1764 -0.4569 -0.2536
16271TIP3    H270229   2.786   0.679   3.928 -0.0219 -0.8921  0.3771
16272TIP3   OH270230   1.677   5.314   3.766 -0.2177 -0.4536  0.2271
16272TIP3    H170231   1.681   5.319   3.862 -0.7282 -0.1800  0.2340
16272TIP3    H270232   1.749   5.255   3.743 -1.0469 -1.7647  0.8840
16273TIP3   OH270233   2.113   0.609   2.331  0.1808 -0.0157 -0.5256
16273TIP3    H170234   2.138   0.522   2.362  1.6314  0.7937  0.6194
16273TIP3    H270235   2.090   0.596   2.239  2.2795 -1.2681 -0.9053
16274TIP3   OH270236   3.938   1.978   2.166 -1.0022 -0.4142 -0.4030
16274TIP3    H170237   3.932   2.047   2.232 -0.2354 -0.5465 -0.1929
16274TIP3    H270238   3.944   2.026   2.083  1.8405 -0.1406 -0.1040
16275TIP3   OH270239   6.826   6.349   3.235 -0.4622  0.5505 -0.2772
16275TIP3    H170240   6.889   6.370   3.166 -0.7144 -0.3140 -0.7772
16275TIP3    H270241   6.880   6.326   3.311 -0.1830  1.3726 -0.2289
16276TIP3   OH270242   4.267   0.237   1.683 -0.0777 -0.0823  0.3382
16276TIP3    H170243   4.287   0.259   1.592  1.6327  2.4379  1.2739
16276TIP3    H270244   4.195   0.297   1.707 -0.2972 -0.5021  0.7477
16277TIP3   OH270245   5.134   1.245   2.817  0.6658  0.3860  0.0927
16277TIP3    H170246   5.145   1.203   2.732 -0.1506 -1.2560  0.7587
16277TIP3    H270247   5.187   1.192   2.877 -1.3531 -0.4695  1.1769
16278TIP3   OH270248   3.706   5.185   3.131 -0.2563 -0.2477 -0.3177
16278TIP3    H170249   3.753   5.251   3.182 -0.4168 -0.6706  0.4042
16278TIP3    H270250   3.762   5.107   3.137 -1.6978 -1.1861  1.7741
16279TIP3   OH270251   4.697   1.854   3.262  0.3614  0.4735  0.1676
16279TIP3    H170252   4.607   1.881   3.280 -0.1595 -1.6459  0.8733
16279TIP3    H270253   4.746   1.935   3.258 -1.7272  1.7358 -1.0773
16280TIP3   OH270254   5.355   5.787   3.483 -0.0763 -0.2249  0.5128
16280TIP3    H170255   5.354   5.728   3.559  0.5158  0.4441  1.0511
16280TIP3    H270256   5.427   5.847   3.501 -0.7182  0.7047 -0.0030
16281TIP3   OH270257   2.460   0.305   1.767  0.3439 -0.3476  1.2198
16281TIP3    H170258   2.403   0.310   1.691  0.0205  2.9178  1.5752
16281TIP3    H270259   2.403   0.279   1.839 -0.3530  1.0802  1.2067
16282TIP3   OH270260   4.115   6.942   2.260  0.1225  0.2021 -0.1941
16282TIP3    H170261   4.108   7.029   2.219 -0.5345  0.2120 -0.0657
16282TIP3    H270262   4.061   6.886   2.205  0.3200 -0.0680 -0.1110
16283TIP3   OH270263   6.426   6.087   2.239 -0.0683  0.1899  0.2341
16283TIP3    H170264   6.370   6.092   2.161  0.5623  1.6767 -0.1420
16283TIP3    H270265   6.365   6.095   2.312 -0.5034  0.4260 -0.1487
16284TIP3   OH270266   5.817   5.082   3.153  0.0069  0.2266 -0.7427
16284TIP3    H170267   5.737   5.084   3.100 -0.9234  0.7814  0.6384
16284TIP3    H270268   5.837   4.989   3.163 -1.8213 -0.0415  0.8378
16285TIP3   OH270269   6.322   6.043   3.776  0.0742  0.1670 -0.2920
16285TIP3    H170270   6.390   5.976   3.763  0.2385  0.2219  0.2950
16285TIP3    H270271   6.350   6.091   3.854 -1.0651 -0.3407  0.4285
16286TIP3   OH270272   3.708   5.487   2.347  0.1402 -0.2878  0.4399
16286TIP3    H170273   3.719   5.530   2.262  0.2203 -0.7001  0.2383
16286TIP3    H270274   3.708   5.394   2.326 -2.1580 -0.3581  0.5948
16287TIP3   OH270275   3.556   5.855   3.313 -0.0444  0.3684 -0.8434
16287TIP3    H170276   3.532   5.858   3.405 -0.2563  0.0115 -0.8848
16287TIP3    H270277   3.495   5.792   3.274  1.5223 -1.2088 -0.7920
16288TIP3   OH270278   2.343   5.443  15.998 -0.2423 -0.1593 -0.3841
16288TIP3    H170279   2.340   5.516  15.936 -1.5813  1.1319  1.1719
16288TIP3    H270280   2.436   5.433  16.019 -0.1626  2.0406  0.4626
16289TIP3   OH270281   7.269   6.013   4.571  0.3313  0.1816 -0.4293
16289TIP3    H170282   7.305   5.925   4.581 -2.1078 -0.5866  1.9533
16289TIP3    H270283   7.346   6.068   4.557  1.9843 -2.1411 -0.7685
16290TIP3   OH270284   3.892   4.049   3.700 -0.4827  0.3337 -0.0449
16290TIP3    H170285   3.915   3.964   3.736  0.1268  0.3904 -0.2855
16290TIP3    H270286   3.871   4.102   3.777 -0.5062  0.0688  0.1336
16291TIP3   OH270287   4.610   0.796   2.026 -0.0834 -0.0922  0.3448
16291TIP3    H170288   4.643   0.874   1.982 -0.7798 -0.2238 -0.4473
16291TIP3    H270289   4.618   0.727   1.960 -2.6427  0.0414 -0.1862
16292TIP3   OH270290   5.384   7.204   2.064 -0.0381  0.0724  0.1163
16292TIP3    H170291   5.300   7.171   2.096 -0.8090  1.2452 -0.6327
16292TIP3    H270292   5.362   7.252   1.985  1.5357 -0.7701 -0.8643
16293TIP3   OH270293   4.414   0.026   2.851 -0.0806 -0.2092  0.9589
16293TIP3    H170294   4.361  -0.052   2.839 -1.9039  1.1817 -0.2264
16293TIP3    H270295   4.351   0.097   2.864  1.5498  1.0121  2.4071
16294TIP3   OH270296   4.104   4.430   2.020  0.2406 -0.0928  0.5401
16294TIP3    H170297   4.159   4.390   1.952  1.0364  2.6856 -0.5219
16294TIP3    H270298   4.017   4.393   2.004  0.5228  0.1446 -1.7142
16295TIP3   OH270299   5.275   1.138   1.903 -0.0581 -0.0764 -0.1234
16295TIP3    H170300   5.325   1.184   1.835  0.6421 -1.3247 -0.4549
16295TIP3    H270301   5.186   1.134   1.868  0.1763 -0.2040 -0.7093
16296TIP3   OH270302   2.833   7.201   3.959  0.2815 -0.5141 -0.2168
16296TIP3    H170303   2.895   7.252   3.907 -0.5567 -1.8737 -2.6659
16296TIP3    H270304   2.792   7.142   3.895 -1.3311 -1.7377  1.8918
16297TIP3   OH270305   4.604   0.563   1.850 -0.3906  0.2896  0.8699
16297TIP3    H170306   4.653   0.531   1.926  0.9970 -0.3487 -0.2944
16297TIP3    H270307   4.591   0.486   1.795 -0.3846  0.9837 -0.1108
16298TIP3   OH270308   4.953   3.585   2.285 -0.0049  0.1939  0.0072
16298TIP3    H170309   4.940   3.494   2.259 -0.4340  0.4164 -0.5631
16298TIP3    H270310   4.869   3.628   2.268  0.6251  1.0143 -1.0812
16299TIP3   OH270311   6.084   6.150   3.663  0.7152  0.2897 -0.1472
16299TIP3    H170312   6.175   6.142   3.692  1.3200  0.2352 -1.9938
16299TIP3    H270313   6.033   6.110   3.734  2.2031 -0.6670  0.4214
16300TIP3   OH270314   5.509   0.137   3.155  0.3432  0.7278  0.3744
16300TIP3    H170315   5.583   0.092   3.195  0.9178  0.7506 -0.6560
16300TIP3    H270316   5.509   0.224   3.194  1.5054  1.0863 -0.3989
16301TIP3   OH270317   6.860   2.133   1.342 -0.3248  0.1163  0.1860
16301TIP3    H170318   6.780   2.116   1.292 -1.7880  1.2430  2.0752
16301TIP3    H270319   6.830   2.152   1.430  2.1451 -0.8118  1.2847
16302TIP3   OH270320   5.010   6.632   1.605  0.0290  0.0774 -0.1467
16302TIP3    H170321   4.989   6.550   1.561  2.5905 -0.3467 -0.6248
16302TIP3    H270322   5.017   6.609   1.698 -2.2983  0.3918  0.1538
16303TIP3   OH270323   7.173   6.947   1.849  0.0329 -0.8494  0.3967
16303TIP3    H170324   7.262   6.915   1.861  1.8423  3.3701 -0.5963
16303TIP3    H270325   7.163   7.015   1.916 -1.6720  0.1304 -0.8142
16304TIP3   OH270326   4.151   5.752   2.283  0.1244 -0.2893  0.1452
16304TIP3    H170327   4.129   5.722   2.371 -1.3599 -1.5748 -0.6410
16304TIP3    H270328   4.246   5.760   2.283  0.2145 -1.2129  1.5746
16305TIP3   OH270329   6.414   6.235   1.418  0.3627 -0.2935 -0.1569
16305TIP3    H170330   6.437   6.143   1.427 -0.4800 -0.6108 -1.0568
16305TIP3    H270331   6.320   6.238   1.436  0.2769  0.3005 -0.6772
16306TIP3   OH270332   6.009   6.594   2.579  0.0897  0.1213 -0.3232
16306TIP3    H170333   6.030   6.654   2.507 -1.0014  1.6724  0.6255
16306TIP3    H270334   5.913   6.595   2.583  0.0649 -1.6597 -0.2536
16307TIP3   OH270335   5.718   6.918   5.119  0.3196 -0.4149  0.2683
16307TIP3    H170336   5.683   6.952   5.202 -0.8498  1.0096 -0.7881
16307TIP3    H270337   5.800   6.875   5.144 -0.5433 -0.9770  2.3245
16308TIP3   OH270338   5.208   0.107   2.448 -0.1381  0.4997  1.0382
16308TIP3    H170339   5.170   0.151   2.372 -0.8472  1.7883  2.1110
16308TIP3    H270340   5.157   0.026   2.458  0.1803  0.1624 -0.0413
16309TIP3   OH270341   2.870   6.960   2.067  0.0120 -0.5738  0.0486
16309TIP3    H170342   2.892   7.019   2.138  0.0493  1.0405 -1.2840
16309TIP3    H270343   2.949   6.957   2.013 -0.4883 -0.6889 -0.6851
16310TIP3   OH270344   3.686   5.077   2.556 -0.1928 -0.3276  0.0651
16310TIP3    H170345   3.758   5.127   2.518 -1.3214  0.0813 -1.5744
16310TIP3    H270346   3.662   5.125   2.635 -0.2553  0.8833 -0.6800
16311TIP3   OH270347   5.993   6.379   3.754 -0.3783  0.0724  0.0187
16311TIP3    H170348   5.987   6.427   3.671 -0.4060  0.8487  0.4658
16311TIP3    H270349   6.052   6.306   3.734  1.2822  1.4074 -0.1625
16312TIP3   OH270350   4.229   4.135   4.425 -1.0535  0.4851 -0.5837
16312TIP3    H170351   4.214   4.229   4.419  2.6423  1.0906 -1.0800
16312TIP3    H270352   4.189   4.110   4.508 -0.2431  2.8865  0.5721
16313TIP3   OH270353   4.558   1.387   1.609  0.1056 -0.4885  0.8859
16313TIP3    H170354   4.621   1.446   1.649 -1.8823  0.6815  2.4028
16313TIP3    H270355   4.588   1.299   1.632  1.3417  0.0441  1.3140
16314TIP3   OH270356   6.002   4.914   4.644 -0.0377  0.1559  0.1861
16314TIP3    H170357   5.910   4.904   4.665 -0.6893 -1.5132 -3.1389
16314TIP3    H270358   6.006   4.995   4.593  0.2688  0.0040 -0.0346
16315TIP3   OH270359   4.749   0.576   4.503  0.4771  0.5670 -0.8833
16315TIP3    H170360   4.802   0.532   4.569  0.7448  0.8833 -0.8876
16315TIP3    H270361   4.659   0.551   4.524  0.3897  2.1490  0.7577
16316TIP3   OH270362   4.661   6.014   3.287 -0.6191  0.0971 -0.2867
16316TIP3    H170363   4.723   6.038   3.356 -0.4824  1.5065 -0.8887
16316TIP3    H270364   4.577   6.005   3.333 -0.5432  1.0939  0.0440
16317TIP3   OH270365   4.108   7.192   2.143 -0.2728 -0.6342 -0.4500
16317TIP3    H170366   4.098   7.261   2.209  1.1435 -0.6875 -0.1727
16317TIP3    H270367   4.144   7.238   2.067  0.9806 -1.1364 -0.1530
16318TIP3   OH270368   6.180   6.710   4.167 -0.1104 -0.0600  0.3556
16318TIP3    H170369   6.170   6.688   4.259 -0.5105 -0.1190  0.3025
16318TIP3    H270370   6.267   6.750   4.160  0.0134 -0.2724  0.7136
16319TIP3   OH270371   0.262   0.696   2.862  0.0920  0.3784 -0.1442
16319TIP3    H170372   0.303   0.611   2.877  0.8348  0.7171 -0.2168
16319TIP3    H270373   0.170   0.682   2.882  0.5893  0.1232  2.0831
16320TIP3   OH270374   2.701   0.768   4.554 -0.6093  0.0314 -0.0687
16320TIP3    H170375   2.681   0.841   4.613 -5.0359 -0.6910 -0.5184
16320TIP3    H270376   2.769   0.718   4.600 -0.7367  1.9406  2.3024
16321TIP3   OH270377   5.138   0.653   2.610  0.7779  0.1607 -0.6126
16321TIP3    H170378   5.176   0.581   2.560  1.1248  0.4957 -0.8347
16321TIP3    H270379   5.048   0.660   2.579  0.6473 -0.3856 -0.3604
16322TIP3   OH270380   4.932   4.947   4.820 -0.1566  0.1951 -0.3150
16322TIP3    H170381   5.018   4.987   4.809 -1.0640  2.5426  0.6274
16322TIP3    H270382   4.933   4.913   4.910 -0.0184 -0.2194 -0.4772
16323TIP3   OH270383   6.174   0.190   4.162  0.3768 -0.2758 -0.3954
16323TIP3    H170384   6.246   0.240   4.200 -1.0715  0.7669  1.0944
16323TIP3    H270385   6.187   0.100   4.191  0.1806  0.2179  1.2849
16324TIP3   OH270386   6.467   5.573   1.725 -0.2804  0.1095  0.5452
16324TIP3    H170387   6.374   5.551   1.733 -0.4191  1.1241  1.8850
16324TIP3    H270388   6.499   5.517   1.655 -2.3025  0.9513 -1.1245
16325TIP3   OH270389   6.000   6.832   3.262  0.3559  0.2395  0.4793
16325TIP3    H170390   6.028   6.909   3.312  1.0688  0.8923 -0.8821
16325TIP3    H270391   5.938   6.868   3.198  1.2223 -0.2156 -0.6124
16326TIP3   OH270392   4.257   6.230   2.986  0.5440 -0.1165 -0.0580
16326TIP3    H170393   4.214   6.266   2.909 -2.7403 -2.9912  0.3028
16326TIP3    H270394   4.188   6.227   3.053  2.9889  1.1348  2.6192
16327TIP3   OH270395   4.292   6.339   1.470 -0.0530  0.0385  0.2947
16327TIP3    H170396   4.302   6.397   1.546 -1.5067 -1.2842  1.5198
16327TIP3    H270397   4.381   6.333   1.434  0.6590  0.7438  1.8385
16328TIP3   OH270398   5.638   5.964   1.859  0.6389  0.0766  0.5227
16328TIP3    H170399   5.554   5.922   1.840  1.1323  0.3570 -2.6304
16328TIP3    H270400   5.618   6.030   1.924 -1.4935 -0.2273  0.2080
16329TIP3   OH270401   6.470   6.733   4.038 -0.1815 -0.1081 -0.0134
16329TIP3    H170402   6.549   6.700   3.995  0.6100  2.2591 -0.4506
16329TIP3    H270403   6.399   6.718   3.975  0.9961  3.5505 -2.3784
16330TIP3   OH270404   5.486   5.451   3.095  0.4051  0.3830  0.9332
16330TIP3    H170405   5.400   5.491   3.086 -0.2829 -0.8134  1.9719
16330TIP3    H270406   5.522   5.451   3.007  0.1533  2.6534  0.8007
16331TIP3   OH270407   2.056   0.660   3.137  0.0738  0.1918 -0.8668
16331TIP3    H170408   2.099   0.590   3.187 -0.7564 -0.3248 -0.8622
16331TIP3    H270409   2.100   0.740   3.166 -0.2696 -0.1137  0.5639
16332TIP3   OH270410   4.107   5.739   1.568 -0.2017  0.2842 -0.4082
16332TIP3    H170411   4.049   5.797   1.618 -1.1115 -1.1191  0.1742
16332TIP3    H270412   4.076   5.651   1.588  1.9694 -0.4840 -0.2941
16333TIP3   OH270413   3.276   0.138   2.422 -0.0080 -0.2012 -0.2710
16333TIP3    H170414   3.320   0.211   2.466  1.0155 -1.2798  0.5157
16333TIP3    H270415   3.194   0.176   2.389  0.8844  1.5032 -0.5875
16334TIP3   OH270416   5.318   7.291   3.415 -0.2804  0.2032 -0.3922
16334TIP3    H170417   5.408   7.320   3.430 -0.1562 -0.9262  1.1522
16334TIP3    H270418   5.306   7.301   3.321  0.8455  2.0953 -0.3719
16335TIP3   OH270419   4.811   4.789   2.523 -0.0269  0.0728 -0.1102
16335TIP3    H170420   4.896   4.744   2.522  0.1102  0.3453 -1.8848
16335TIP3    H270421   4.772   4.763   2.606  1.9264  0.1904  0.8720
16336TIP3   OH270422   5.652   5.698   3.568 -0.1256 -0.8532  0.1421
16336TIP3    H170423   5.699   5.724   3.489  1.0504 -2.2112  0.3815
16336TIP3    H270424   5.586   5.635   3.538  0.1244 -1.1418  0.1946
16337TIP3   OH270425   2.849   7.096   2.536 -0.4515  0.0004 -0.2752
16337TIP3    H170426   2.888   7.076   2.621  1.7043 -1.5465 -1.5930
16337TIP3    H270427   2.759   7.063   2.542 -0.4608  0.3101  1.5285
16338TIP3   OH270428   2.643   5.103   3.882  0.3274 -0.1568  0.1224
16338TIP3    H170429   2.675   5.151   3.958 -0.7063  0.7040  0.0333
16338TIP3    H270430   2.722   5.073   3.837  1.0256  2.2291 -0.3076
16339TIP3   OH270431   2.999   0.016   1.844 -0.2952  0.3149 -0.0133
16339TIP3    H170432   2.958   0.010   1.930 -1.1223  0.9035 -0.3576
16339TIP3    H270433   2.977   0.104   1.813  0.9996  0.5334 -0.3295
16340TIP3   OH270434   6.442   6.135   5.844 -0.0604 -0.3995  0.3991
16340TIP3    H170435   6.444   6.089   5.928  0.1371 -0.8421  0.1532
16340TIP3    H270436   6.433   6.066   5.778 -2.3916  0.0868  0.1808
16341TIP3   OH270437   3.286   4.840   2.756 -0.3023  0.0987  0.4022
16341TIP3    H170438   3.317   4.828   2.666  3.1258 -0.3123  1.5578
16341TIP3    H270439   3.219   4.773   2.768 -0.6643  0.0319 -1.7603
16342TIP3   OH270440   2.263   5.741   1.391  0.4265  0.1762 -0.7668
16342TIP3    H170441   2.200   5.809   1.415  0.2506  0.3082 -1.5666
16342TIP3    H270442   2.318   5.730   1.468  0.1991  0.9457 -0.4920
16343TIP3   OH270443   6.234   5.679   3.003  0.0984  0.2657 -0.5740
16343TIP3    H170444   6.296   5.727   3.058 -0.2316  2.9917 -2.4710
16343TIP3    H270445   6.243   5.719   2.917 -0.4472 -2.9106 -2.1978
16344TIP3   OH270446   7.169   5.221   4.799  0.1650  0.6061  0.7452
16344TIP3    H170447   7.074   5.223   4.801  0.1420  0.7545 -0.2235
16344TIP3    H270448   7.196   5.292   4.857 -0.3391  1.6740 -0.2943
16345TIP3   OH270449   3.975   5.262   1.326 -0.1286  0.9414  1.0688
16345TIP3    H170450   3.897   5.273   1.380 -0.5861  1.4561  0.3184
16345TIP3    H270451   3.998   5.169   1.336 -1.4045  0.5452  0.5463
16346TIP3   OH270452   2.587   5.005   2.846  0.3093 -0.4347 -0.1603
16346TIP3    H170453   2.510   5.018   2.790 -0.3716 -0.3460  0.7760
16346TIP3    H270454   2.555   4.949   2.917  0.5221  1.4592  1.4474
16347TIP3   OH270455   3.671   6.613   3.165  0.0717  0.2662 -0.3829
16347TIP3    H170456   3.684   6.522   3.137  0.7837  1.0728 -2.8030
16347TIP3    H270457   3.658   6.661   3.084 -0.5058  2.3158  0.8906
16348TIP3   OH270458   4.700   4.877   3.340  0.1993  0.0973 -0.5986
16348TIP3    H170459   4.710   4.934   3.416  4.6151  1.4608 -2.0083
16348TIP3    H270460   4.716   4.789   3.374  1.6589  0.6399  0.1833
16349TIP3   OH270461   4.820   1.613   1.423  0.3257 -0.0900 -0.6737
16349TIP3    H170462   4.795   1.619   1.515  0.5884 -1.1200 -0.5277
16349TIP3    H270463   4.862   1.528   1.415 -1.8953 -1.0926 -2.2762
16350TIP3   OH270464   2.921   2.724  15.978  0.4332  0.1667 -0.3618
16350TIP3    H170465   3.005   2.699  16.017  0.6960  1.3306 -0.1731
16350TIP3    H270466   2.897   2.648  15.924  1.7991 -0.0167 -0.7364
16351TIP3   OH270467   5.276   6.717   3.018  0.3346  0.0037 -0.1101
16351TIP3    H170468   5.362   6.683   2.996  0.0688 -0.5015 -0.3896
16351TIP3    H270469   5.231   6.724   2.934  0.7383  2.0497 -0.1800
16352TIP3   OH270470   6.599   7.203   3.109 -0.2351 -0.1964  0.2743
16352TIP3    H170471   6.525   7.263   3.099  0.5382  0.5392 -1.2172
16352TIP3    H270472   6.593   7.146   3.032 -0.2651 -1.2975  1.0661
16353TIP3   OH270473   6.300   5.439   2.536  0.2491 -0.4009 -0.3779
16353TIP3    H170474   6.267   5.408   2.620  0.7696 -1.0510 -0.4091
16353TIP3    H270475   6.374   5.382   2.517  1.0188  0.6609 -0.5993
16354TIP3   OH270476   5.836   0.587   1.273 -0.0250  0.2083 -0.2935
16354TIP3    H170477   5.846   0.663   1.330  1.1809 -0.1419 -0.0238
16354TIP3    H270478   5.925   0.565   1.245 -0.2660 -1.5637  0.2485
16355TIP3   OH270479   5.349   6.488   2.389 -0.0619 -0.1746  0.6519
16355TIP3    H170480   5.364   6.582   2.392  1.0748 -0.2955 -0.4576
16355TIP3    H270481   5.417   6.455   2.330 -2.5847 -1.2556 -1.7735
16356TIP3   OH270482   4.979   6.960   0.642  0.3772 -0.2881 -0.7416
16356TIP3    H170483   4.944   6.883   0.596 -1.3885  1.5293 -2.5849
16356TIP3    H270484   4.930   6.963   0.724  0.4477 -1.1231 -0.6608
16357TIP3   OH270485   4.298   0.208   2.475  0.1539  0.1832  0.0255
16357TIP3    H170486   4.336   0.184   2.390 -0.3712 -3.0573  0.6425
16357TIP3    H270487   4.372   0.242   2.525  0.6382  1.3444 -1.4362
16358TIP3   OH270488   6.617   5.612   2.651 -0.1404  0.1341  0.4023
16358TIP3    H170489   6.672   5.543   2.613 -1.5304 -0.8219  0.1056
16358TIP3    H270490   6.648   5.692   2.608 -0.1010 -0.6209 -1.0094
16359TIP3   OH270491   1.981   0.192   3.125 -0.2497 -0.4463 -0.8362
16359TIP3    H170492   2.062   0.143   3.110 -1.7105 -3.2284  0.1935
16359TIP3    H270493   1.976   0.201   3.220 -0.0602  1.7086 -0.9882
16360TIP3   OH270494   5.505   6.287   3.705  0.2853  0.2533 -0.5471
16360TIP3    H170495   5.520   6.344   3.780 -0.4016  1.8469 -1.5891
16360TIP3    H270496   5.574   6.220   3.711 -0.5778 -0.4348  2.2092
16361TIP3   OH270497   6.755   5.221   3.974 -0.3975 -0.7924  0.0885
16361TIP3    H170498   6.759   5.285   4.045 -1.9577 -0.3340 -0.2157
16361TIP3    H270499   6.684   5.162   4.000 -1.9037  0.1841 -1.7227
16362TIP3   OH270500   6.584   5.502   5.421  0.1483  0.1192 -0.1030
16362TIP3    H170501   6.512   5.453   5.382  1.0120 -0.4977 -0.9321
16362TIP3    H270502   6.542   5.560   5.485 -0.9571 -1.0421  0.2292
16363TIP3   OH270503   6.018   7.252   2.199 -0.0925  0.3214  0.2816
16363TIP3    H170504   6.109   7.275   2.182 -0.2115  0.6140  0.0364
16363TIP3    H270505   5.981   7.330   2.239 -0.3882  0.4132 -0.1645
16364TIP3   OH270506   4.575   0.433   3.800  0.0713 -0.3754 -0.0818
16364TIP3    H170507   4.578   0.344   3.765  3.2119 -0.2943 -0.1659
16364TIP3    H270508   4.590   0.423   3.894 -0.1931  0.0365  0.0063
16365TIP3   OH270509   4.064   5.243   0.106 -0.3220 -0.6443 -0.1855
16365TIP3    H170510   4.037   5.306   0.039  0.7809  0.0771  0.0278
16365TIP3    H270511   3.998   5.174   0.103 -0.7671 -0.1713 -1.4002
16366TIP3   OH270512   3.448   7.014   1.675 -0.0389 -0.1426  0.6826
16366TIP3    H170513   3.538   6.981   1.677 -0.1689 -0.6574 -0.8752
16366TIP3    H270514   3.454   7.094   1.623 -1.1058 -2.3877 -3.1307
16367TIP3   OH270515   6.562   1.834   2.905 -0.0541  0.5188 -0.1544
16367TIP3    H170516   6.614   1.792   2.973  1.3661  1.6632 -0.5015
16367TIP3    H270517   6.626   1.879   2.850 -1.2322  0.1737 -1.8648
16368TIP3   OH270518   3.388   6.447   2.615 -0.4477 -0.0022  0.4204
16368TIP3    H170519   3.397   6.541   2.628 -0.1328  0.0725 -0.3524
16368TIP3    H270520   3.329   6.419   2.685  0.0098  0.6563  1.0716
16369TIP3   OH270521   4.256   0.479   1.246 -0.0782 -0.4944 -0.1250
16369TIP3    H170522   4.307   0.408   1.284  0.5469  0.9433  1.8051
16369TIP3    H270523   4.305   0.558   1.267 -2.7486  0.8757  1.2049
16370TIP3   OH270524   5.005   5.793   2.653 -0.3883  0.3622 -0.1014
16370TIP3    H170525   4.929   5.787   2.595  0.1537 -1.6311 -0.6294
16370TIP3    H270526   4.979   5.745   2.731  0.4682 -0.6689 -0.4458
16371TIP3   OH270527   6.192   4.797   3.285  0.5200 -0.2555  0.3916
16371TIP3    H170528   6.217   4.704   3.285 -2.6035 -1.1616  0.2811
16371TIP3    H270529   6.177   4.817   3.192 -0.1054 -0.0462  0.5332
16372TIP3   OH270530   2.953   7.111   4.956  0.0362 -0.3411  0.5113
16372TIP3    H170531   2.940   7.205   4.954  1.8502 -0.0937 -0.4998
16372TIP3    H270532   2.988   7.093   5.043  0.2918 -0.0017  0.4766
16373TIP3   OH270533   3.681   1.132   1.481 -0.0333 -0.2819  0.6134
16373TIP3    H170534   3.679   1.049   1.434 -0.4144  1.0887 -1.8704
16373TIP3    H270535   3.615   1.186   1.438  0.7363  1.5641  1.6803
16374TIP3   OH270536   4.014   6.549   2.472  0.1979  0.3326 -0.6940
16374TIP3    H170537   4.030   6.631   2.426  0.8441  1.7829  2.0140
16374TIP3    H270538   3.976   6.576   2.556  1.0511 -2.0880  0.5077
16375TIP3   OH270539   3.730   7.112   1.764 -0.5511 -0.4383 -0.3348
16375TIP3    H170540   3.695   7.094   1.852 -2.6240 -0.2108 -1.0921
16375TIP3    H270541   3.800   7.048   1.753  0.5977  0.3547  1.9907
16376TIP3   OH270542   7.252   5.693   2.416  0.1664  0.0600  0.0334
16376TIP3    H170543   7.326   5.640   2.385 -0.1846  0.7430 -2.0645
16376TIP3    H270544   7.175   5.651   2.376 -0.5935 -0.5482  2.0664
16377TIP3   OH270545   5.705   6.829   2.803 -0.0479 -0.3578  0.0814
16377TIP3    H170546   5.660   6.787   2.876 -0.4459 -2.3927 -1.2916
16377TIP3    H270547   5.633   6.863   2.748  0.2196  0.2388  0.0954
16378TIP3   OH270548   5.064   6.627   3.191  0.7290  0.5501 -0.3337
16378TIP3    H170549   5.071   6.531   3.183  1.0444  0.5942 -0.5877
16378TIP3    H270550   5.131   6.661   3.132 -0.0340  0.9416 -0.9871
16379TIP3   OH270551   4.991   5.094   3.100 -0.1843  0.1338 -0.0812
16379TIP3    H170552   4.981   5.064   3.190 -2.3538 -1.6144 -0.8664
16379TIP3    H270553   5.017   5.016   3.051  0.5513  0.9701 -1.0638
16380TIP3   OH270554   4.176   6.849   1.174 -0.3151  0.7607 -0.0135
16380TIP3    H170555   4.171   6.866   1.268  0.7197 -1.4579  0.4800
16380TIP3    H270556   4.092   6.807   1.153  0.3484 -0.8185  0.4045
16381TIP3   OH270557   3.445   4.246   2.292 -0.2353  0.1152 -0.0033
16381TIP3    H170558   3.451   4.170   2.235  0.1512 -0.6936  1.0919
16381TIP3    H270559   3.535   4.273   2.306 -0.2776 -0.1187  0.7696
16382TIP3   OH270560   4.015   7.047   3.913 -0.5554  0.0701  0.4802
16382TIP3    H170561   4.047   6.958   3.923  1.2469  0.8811  2.3665
16382TIP3    H270562   4.068   7.084   3.843  0.8567  0.6046  1.8185
16383TIP3   OH270563   2.715   0.870   1.954 -0.3426  0.9070 -0.6079
16383TIP3    H170564   2.781   0.803   1.971  0.4313  1.9508  0.5914
16383TIP3    H270565   2.634   0.834   1.990  0.2611  1.0017  0.8795
16384TIP3   OH270566   2.718   6.921   3.254 -0.5014 -0.3708  0.6749
16384TIP3    H170567   2.710   6.908   3.348 -0.2762 -3.7150  0.2904
16384TIP3    H270568   2.733   6.834   3.219  2.2646  1.1541 -2.1954
16385TIP3   OH270569   6.654   4.645   3.788 -1.0904  0.3017  0.0492
16385TIP3    H170570   6.567   4.684   3.795 -1.6343 -0.9988  0.5466
16385TIP3    H270571   6.639   4.553   3.769  0.1709 -0.0318  0.5580
16386TIP3   OH270572   6.191   5.353   3.512  0.0479 -0.4403 -0.5140
16386TIP3    H170573   6.230   5.406   3.442  2.4241 -1.3798  0.0523
16386TIP3    H270574   6.181   5.266   3.473 -0.0832 -0.5769 -0.1730
16387TIP3   OH270575   4.828   5.639   0.326 -0.4111  0.0938 -0.5847
16387TIP3    H170576   4.776   5.603   0.397  0.0440 -1.0796 -0.8383
16387TIP3    H270577   4.781   5.718   0.299 -0.6452  0.4715  0.9234
16388TIP3   OH270578   2.734   6.787   1.663  0.0757 -0.4770 -0.8145
16388TIP3    H170579   2.796   6.761   1.595 -0.5790 -0.0712 -1.5697
16388TIP3    H270580   2.659   6.823   1.615  0.1064  0.9036  0.1373
16389TIP3   OH270581   4.505   6.286   4.107 -0.1940 -0.1588  0.6378
16389TIP3    H170582   4.415   6.310   4.127 -0.2757  0.1070 -0.0167
16389TIP3    H270583   4.557   6.328   4.175 -0.2774  2.5128 -0.8811
16390TIP3   OH270584   4.800   7.250   5.532  0.0678  0.5600 -0.2129
16390TIP3    H170585   4.873   7.306   5.505  1.0573 -0.3353  0.5532
16390TIP3    H270586   4.779   7.199   5.455  1.5454 -0.5506  0.0881
16391TIP3   OH270587   5.507   6.077   4.575  0.4862 -0.3735 -0.0767
16391TIP3    H170588   5.491   6.162   4.617  1.2197  0.5276 -1.5466
16391TIP3    H270589   5.484   6.012   4.641  1.4433  1.0027  1.6473
16392TIP3   OH270590   5.066   5.680   3.285  0.1646  0.0450 -0.1361
16392TIP3    H170591   5.070   5.739   3.360 -0.2376 -1.1390  0.8392
16392TIP3    H270592   5.062   5.738   3.209  3.6832  1.2834  0.5537
16393TIP3   OH270593   3.546   0.313   2.271 -0.3589 -0.7402 -0.3018
16393TIP3    H170594   3.634   0.343   2.294 -0.4622 -0.1640 -0.6575
16393TIP3    H270595   3.553   0.217   2.272 -0.5234 -0.7582  2.7582
16394TIP3   OH270596   2.429   0.312   5.185 -0.4041 -0.1846  1.1036
16394TIP3    H170597   2.410   0.300   5.093 -0.8837  0.8457  1.0567
16394TIP3    H270598   2.515   0.273   5.198 -0.0962  0.1736  0.1037
16395TIP3   OH270599   2.784   6.419   3.306 -0.1891 -0.6090 -0.2787
16395TIP3    H170600   2.833   6.502   3.308  0.6506 -1.0157 -2.3159
16395TIP3    H270601   2.695   6.443   3.329 -0.3529  1.1926 -2.5972
16396TIP3   OH270602   2.411   6.860   5.808 -0.3768  1.3288 -0.4038
16396TIP3    H170603   2.469   6.815   5.746 -1.1525  0.8886 -0.8180
16396TIP3    H270604   2.327   6.863   5.763 -0.9859  0.8641  0.7212
16397TIP3   OH270605   3.831   7.060   1.454  0.0505  0.3099 -0.3110
16397TIP3    H170606   3.831   7.010   1.372  1.5632 -0.2695  0.0173
16397TIP3    H270607   3.768   7.014   1.510  0.0070 -0.0884 -0.6821
16398TIP3   OH270608   4.172   6.876   3.070  0.5559 -0.0807 -0.0855
16398TIP3    H170609   4.125   6.921   3.140  1.3385  0.0368  0.3798
16398TIP3    H270610   4.147   6.784   3.079  0.5556 -0.0456  0.2708
16399TIP3   OH270611   5.099   1.056   3.116  0.5115 -0.2467  0.2189
16399TIP3    H170612   5.165   1.028   3.054 -0.7939 -0.4315 -1.1059
16399TIP3    H270613   5.019   1.064   3.065  0.1346  2.8161  1.1720
16400TIP3   OH270614   3.856   7.285   4.476 -0.0518 -0.2489 -0.5963
16400TIP3    H170615   3.851   7.195   4.443  1.4738 -0.8701  0.8296
16400TIP3    H270616   3.769   7.301   4.514 -0.4217 -1.0217 -1.0872
16401TIP3   OH270617   5.465   6.484   4.928 -0.3488 -0.9167  0.4191
16401TIP3    H170618   5.370   6.475   4.922 -0.3698 -1.7168  1.6560
16401TIP3    H270619   5.479   6.574   4.955 -0.5969  0.1692 -2.8883
16402TIP3   OH270620   3.899   5.349   3.216  0.4372 -0.1338  0.1008
16402TIP3    H170621   3.918   5.361   3.123 -0.2612  0.4006  0.0233
16402TIP3    H270622   3.959   5.408   3.261  0.8939 -0.5205 -0.0032
16403TIP3   OH270623   6.117   1.182   2.033 -0.1261 -0.0182  0.2288
16403TIP3    H170624   6.122   1.156   1.941 -1.7568 -0.9758  0.3930
16403TIP3    H270625   6.087   1.104   2.079 -0.2425  0.7283  1.4538
16404TIP3   OH270626   4.949   0.929   2.017  0.2335  0.3028 -0.3307
16404TIP3    H170627   5.040   0.961   2.015  0.1477  0.5055 -1.4963
16404TIP3    H270628   4.951   0.846   1.970  0.1913 -0.7664  1.4948
16405TIP3   OH270629   6.145   0.239   1.014  0.4663 -0.0728 -0.1270
16405TIP3    H170630   6.110   0.151   1.026 -3.9042  1.7486  1.5335
16405TIP3    H270631   6.157   0.272   1.103  0.9262  1.4501 -0.7405
16406TIP3   OH270632   6.370   5.849   1.685 -0.0232 -0.6161  0.2255
16406TIP3    H170633   6.426   5.908   1.635  2.5971 -0.7770  2.8093
16406TIP3    H270634   6.423   5.771   1.698 -0.8216 -0.7876  2.7212
16407TIP3   OH270635   2.717   0.322   2.396 -0.2021  0.3090 -0.3717
16407TIP3    H170636   2.761   0.237   2.392 -1.6245 -0.4428 -0.5176
16407TIP3    H270637   2.714   0.352   2.305 -0.4091  0.1351 -0.4233
16408TIP3   OH270638   4.660   7.045   5.228 -0.0907  0.5027  0.5697
16408TIP3    H170639   4.753   7.060   5.215 -0.6746  2.3226 -1.8389
16408TIP3    H270640   4.646   6.954   5.201  0.5335  1.0650 -1.7143
16409TIP3   OH270641   6.928   0.099   2.510  0.2417 -0.6590 -0.6828
16409TIP3    H170642   6.834   0.114   2.515 -0.0916 -2.3830 -1.4574
16409TIP3    H270643   6.941   0.014   2.552  1.6103  0.1056  0.4837
16410TIP3   OH270644   3.124   4.360   3.571  0.3575  0.2258  0.3774
16410TIP3    H170645   3.144   4.296   3.504  0.8339  1.3014 -0.5204
16410TIP3    H270646   3.209   4.385   3.607  0.0972 -0.4258  1.4652
16411TIP3   OH270647   4.819   0.199   2.142 -0.0357 -0.3036 -0.2695
16411TIP3    H170648   4.817   0.138   2.068  1.5544 -0.2346 -0.3700
16411TIP3    H270649   4.853   0.148   2.215  1.1156  0.4051 -0.3030
16412TIP3   OH270650   4.346   5.952   2.969 -0.1875 -0.0475 -0.4195
16412TIP3    H170651   4.299   6.030   2.940  0.9723  0.8742  0.1459
16412TIP3    H270652   4.426   5.986   3.010 -0.4209 -1.4548  1.2392
16413TIP3   OH270653   6.094   6.961   3.945  0.4815 -0.1638  0.0669
16413TIP3    H170654   6.072   6.978   4.037  1.9113 -0.9543  0.5681
16413TIP3    H270655   6.053   6.876   3.926 -0.1424  0.1842 -0.1420
16414TIP3   OH270656   6.631   4.734   5.542 -0.9873 -0.5725  0.1426
16414TIP3    H170657   6.696   4.689   5.488 -0.0820 -0.0427  0.7932
16414TIP3    H270658   6.555   4.676   5.540 -0.6970 -0.9249 -1.0781
16415TIP3   OH270659   4.888   1.018   3.406 -0.2257  0.1706  0.4072
16415TIP3    H170660   4.975   1.022   3.446  0.2216  0.5529 -0.5914
16415TIP3    H270661   4.887   0.937   3.355  0.4433  1.3871 -1.5910
16416TIP3   OH270662   5.470   5.224   2.834  0.4499 -0.4727  0.3888
16416TIP3    H170663   5.543   5.274   2.869  0.1978  0.4298 -0.3458
16416TIP3    H270664   5.465   5.250   2.742 -2.3814  1.4735  0.9999
16417TIP3   OH270665   4.289   1.224   2.812 -0.0746  0.0144  0.7238
16417TIP3    H170666   4.321   1.216   2.722  1.3609  0.0092  1.2163
16417TIP3    H270667   4.220   1.290   2.807  1.9959  2.1998  0.1060
16418TIP3   OH270668   5.688   0.388   2.239  0.0629  0.1482  0.9359
16418TIP3    H170669   5.712   0.300   2.210  0.7375  0.5209  0.3412
16418TIP3    H270670   5.619   0.415   2.178  1.4203  0.8976 -0.3171
16419TIP3   OH270671   6.517   6.575   4.726  0.0854 -0.3911  0.1357
16419TIP3    H170672   6.460   6.651   4.718 -0.7001 -0.7405  2.0874
16419TIP3    H270673   6.475   6.507   4.673 -0.2946 -0.0775  0.0390
16420TIP3   OH270674   0.019   0.222   3.791 -0.0032  0.0473  0.0996
16420TIP3    H170675  -0.070   0.255   3.806 -0.3608 -0.3355 -1.1161
16420TIP3    H270676   0.005   0.136   3.750  0.9344 -0.0361 -0.0390
16421TIP3   OH270677   6.513   5.606   1.307  0.1921  0.0466 -0.7304
16421TIP3    H170678   6.586   5.659   1.275  0.0427  0.8078  0.1418
16421TIP3    H270679   6.449   5.671   1.338 -0.0216 -0.6433  0.2947
16422TIP3   OH270680   2.058   5.184   2.665  0.0285 -0.3350  0.1221
16422TIP3    H170681   2.133   5.230   2.628 -0.3050 -0.7113 -1.0264
16422TIP3    H270682   1.988   5.195   2.601 -1.6429  2.0327  2.2636
16423TIP3   OH270683   3.630   0.786   2.428  0.4490  0.1082 -0.1341
16423TIP3    H170684   3.598   0.817   2.343  2.0851 -0.1525 -0.8648
16423TIP3    H270685   3.725   0.788   2.420  0.6171 -0.2932  1.5675
16424TIP3   OH270686   6.193   6.763   3.059  0.3381  0.0890  0.1007
16424TIP3    H170687   6.205   6.830   3.127 -0.9425 -0.1590  0.5937
16424TIP3    H270688   6.098   6.757   3.049  0.4962 -0.6515 -0.9542
16425TIP3   OH270689   5.457   5.950   4.044 -0.2612 -0.2793  0.3967
16425TIP3    H170690   5.515   5.998   4.103  0.8256 -0.1787 -0.7417
16425TIP3    H270691   5.449   6.006   3.967 -1.8570 -0.3066  0.5237
16426TIP3   OH270692   3.536   0.175   3.239  0.0724 -0.2111 -0.1866
16426TIP3    H170693   3.548   0.205   3.149  1.1331 -0.1434 -0.0248
16426TIP3    H270694   3.441   0.161   3.247 -0.0050 -0.4424 -1.3807
16427TIP3   OH270695   4.304   6.605   1.989  0.4111 -0.2796 -0.0305
16427TIP3    H170696   4.238   6.629   1.923  1.8458 -0.7340 -1.6658
16427TIP3    H270697   4.314   6.684   2.042 -1.0726 -0.0368 -0.0820
16428TIP3   OH270698   6.453   5.196   2.765 -0.4181 -0.1733 -0.0679
16428TIP3    H170699   6.457   5.286   2.796 -1.4301 -0.2181  0.2301
16428TIP3    H270700   6.361   5.171   2.778 -0.3456 -0.9407 -0.9842
16429TIP3   OH270701   5.871   6.665   3.597 -0.1722 -0.4338  0.3185
16429TIP3    H170702   5.857   6.687   3.505 -0.6978  1.9722  0.9453
16429TIP3    H270703   5.966   6.668   3.607 -0.1465 -0.0337 -0.0033
16430TIP3   OH270704   5.260   2.088   1.265 -0.2958  0.6985 -0.1395
16430TIP3    H170705   5.327   2.032   1.304 -0.0325  1.2754  0.2642
16430TIP3    H270706   5.253   2.059   1.174 -0.4329 -0.2251  0.1583
16431TIP3   OH270707   6.240   6.363   3.535 -0.1170  0.0648  0.6435
16431TIP3    H170708   6.249   6.270   3.514 -1.2890 -0.3610  1.9226
16431TIP3    H270709   6.300   6.377   3.608  2.6143  1.1312 -1.7004
16432TIP3   OH270710   0.477   7.028   2.079 -0.0083 -0.1012  0.2545
16432TIP3    H170711   0.507   6.950   2.031  0.9255  0.7382 -0.5607
16432TIP3    H270712   0.516   7.101   2.031 -2.8823  1.0299 -0.4567
16433TIP3   OH270713   6.532   6.401   5.214  0.1207  0.1923 -0.4169
16433TIP3    H170714   6.611   6.432   5.259 -1.2141  0.9246  1.4507
16433TIP3    H270715   6.469   6.473   5.224 -1.1406 -0.8204 -0.9711
16434TIP3   OH270716   4.805   5.593   5.373  0.0460 -0.2069 -0.7797
16434TIP3    H170717   4.858   5.521   5.339  0.7440 -0.2954  0.4821
16434TIP3    H270718   4.726   5.551   5.405  0.0872 -0.3104 -0.8115
16435TIP3   OH270719   5.525   5.159   4.703  0.2090 -0.5136 -0.4089
16435TIP3    H170720   5.554   5.082   4.655  2.1838  0.2431 -0.4510
16435TIP3    H270721   5.551   5.142   4.794 -0.4699 -0.4333 -0.1934
16436TIP3   OH270722   5.850   6.115   2.286 -0.0027 -0.1918 -0.3471
16436TIP3    H170723   5.916   6.090   2.351  0.4924  0.1737 -0.6975
16436TIP3    H270724   5.888   6.088   2.202 -1.2834 -1.9754 -0.3690
16437TIP3   OH270725   2.977   7.104   2.280 -0.1466  0.2880  0.0506
16437TIP3    H170726   2.940   7.103   2.368  0.1746  0.6868  0.1911
16437TIP3    H270727   3.067   7.073   2.291 -0.3291 -0.3570 -0.2434
16438TIP3   OH270728   7.211   7.050   2.758  0.1460 -0.0449  0.3965
16438TIP3    H170729   7.131   7.098   2.738 -0.4851 -1.2205  0.0880
16438TIP3    H270730   7.281   7.108   2.727 -0.6391  0.2876 -0.7834
16439TIP3   OH270731   0.321   6.798   1.702 -0.0166 -0.2740  0.0466
16439TIP3    H170732   0.325   6.883   1.744 -0.3609  0.0590 -0.5876
16439TIP3    H270733   0.228   6.782   1.687  0.0654 -0.6212 -0.1175
16440TIP3   OH270734   7.186   7.151   1.390 -0.1132 -0.5902 -0.7399
16440TIP3    H170735   7.171   7.201   1.470  0.7929 -3.3727  1.2452
16440TIP3    H270736   7.260   7.195   1.348 -2.4364  2.6745 -1.6570
16441TIP3   OH270737   3.623   6.517   0.156  0.5200  0.1090 -0.6021
16441TIP3    H170738   3.654   6.442   0.207  1.6031 -0.0499 -1.4735
16441TIP3    H270739   3.547   6.484   0.109  0.2855 -0.1043 -0.0784
16442TIP3   OH270740   4.534   6.586   5.810  0.6379  0.0330  0.0102
16442TIP3    H170741   4.459   6.645   5.800  0.7659  0.2761  0.4358
16442TIP3    H270742   4.588   6.629   5.876  0.9028 -0.3953  0.0695
16443TIP3   OH270743   4.964   0.029   2.702  0.1629  0.2393 -0.8899
16443TIP3    H170744   4.874   0.007   2.728  1.0994 -0.4236  1.9486
16443TIP3    H270745   4.986  -0.036   2.636 -0.3131 -1.7349  0.8200
16444TIP3   OH270746   3.016   6.115   5.567  0.4821  0.2275 -0.3330
16444TIP3    H170747   3.033   6.182   5.634 -1.4785  0.4410 -0.0193
16444TIP3    H270748   3.096   6.062   5.566  0.3226 -0.1504  2.5933
16445TIP3   OH270749   6.092   3.733   5.003  0.1117  0.1510 -0.6617
16445TIP3    H170750   6.001   3.737   4.973  0.4093 -0.5050 -1.6796
16445TIP3    H270751   6.088   3.759   5.096 -1.3437 -1.4628 -0.2450
16446TIP3   OH270752   4.582   0.736   1.621  0.0451  0.6338 -0.3106
16446TIP3    H170753   4.639   0.807   1.649 -0.5172  0.9064  0.1780
16446TIP3    H270754   4.589   0.670   1.691 -1.0095  1.1137  0.2689
16447TIP3   OH270755   3.484   5.591   0.948  0.5791 -0.4331 -0.0189
16447TIP3    H170756   3.563   5.640   0.970  1.2064 -1.3933 -0.1240
16447TIP3    H270757   3.419   5.658   0.929  1.4073  0.3621 -0.0680
16448TIP3   OH270758   5.003   5.255   2.031 -0.2307 -0.8334  0.3922
16448TIP3    H170759   5.047   5.201   1.966  0.7274  0.6383 -0.2066
16448TIP3    H270760   4.954   5.319   1.979  1.3161  0.9625  1.1153
16449TIP3   OH270761   6.836   6.402   1.617  0.8674 -0.4004  0.1496
16449TIP3    H170762   6.847   6.456   1.539  0.9953  0.8344  1.0070
16449TIP3    H270763   6.767   6.340   1.594 -0.3602  1.1198 -0.3432
16450TIP3   OH270764   3.062   5.249   3.725  0.3942  0.1108 -0.3528
16450TIP3    H170765   3.135   5.290   3.771  0.5704 -0.0372 -0.5012
16450TIP3    H270766   3.056   5.296   3.642  0.1481  0.3025 -0.2257
16451TIP3   OH270767   5.518   6.157   2.791  0.0199  0.2251 -0.4204
16451TIP3    H170768   5.606   6.184   2.815 -0.0433 -0.5325  0.6710
16451TIP3    H270769   5.518   6.062   2.802 -1.2267  0.3306  0.5873
16452TIP3   OH270770   4.602   5.125   2.324  0.3371 -0.3411  0.0108
16452TIP3    H170771   4.682   5.170   2.299  0.1529 -0.5354 -0.9334
16452TIP3    H270772   4.624   5.079   2.405  0.2375  2.2551  1.5781
16453TIP3   OH270773   5.715   5.805   1.394  0.0831  0.1043  0.0213
16453TIP3    H170774   5.656   5.856   1.450  0.7488 -0.2206  1.0266
16453TIP3    H270775   5.717   5.854   1.311 -1.1239  0.4366  0.1808
16454TIP3   OH270776   6.253   5.204   2.016  0.5855  0.2634  0.4344
16454TIP3    H170777   6.307   5.262   2.071  0.1249  2.0019 -0.8899
16454TIP3    H270778   6.163   5.227   2.039  0.3892  1.1079 -1.1084
16455TIP3   OH270779   5.265   4.509   0.876  0.4472  0.0026  0.0369
16455TIP3    H170780   5.357   4.518   0.852  0.1349 -0.1590 -1.2536
16455TIP3    H270781   5.223   4.586   0.838 -0.1079 -0.4230 -0.2106
16456TIP3   OH270782   5.960   0.197   2.973  0.7472 -0.1308  0.0026
16456TIP3    H170783   5.917   0.169   3.054  0.8196  1.4289  0.6118
16456TIP3    H270784   6.038   0.143   2.967  0.0027 -1.2425  0.2236
16457TIP3   OH270785   3.490   3.902   4.033 -0.1164  0.2548  0.2143
16457TIP3    H170786   3.475   3.810   4.054  0.9193  0.4341  1.8012
16457TIP3    H270787   3.553   3.932   4.099  0.5421  1.7615 -1.0633
16458TIP3   OH270788   4.752   7.257   3.152  0.1503 -0.0014 -0.1750
16458TIP3    H170789   4.830   7.277   3.101  0.6962  1.3170  1.1329
16458TIP3    H270790   4.718   7.176   3.114  1.7901 -0.2404 -1.1677
16459TIP3   OH270791   6.854   6.603   5.003 -0.2023 -0.1452  0.1632
16459TIP3    H170792   6.843   6.575   5.094 -0.0962 -1.6161 -0.2622
16459TIP3    H270793   6.776   6.571   4.958 -0.2741  0.6171 -0.2611
16460TIP3   OH270794   5.318   0.398   3.456  0.5486 -0.0063  0.0447
16460TIP3    H170795   5.375   0.440   3.521 -0.5148  0.6616  0.5499
16460TIP3    H270796   5.284   0.320   3.502 -0.3895  0.5939  0.3766
16461TIP3   OH270797   0.929   6.012   2.450  0.0249  0.3972 -0.5015
16461TIP3    H170798   0.998   5.998   2.515 -1.1171  1.8493  1.0631
16461TIP3    H270799   0.848   6.015   2.501 -1.1505 -0.5444 -2.2267
16462TIP3   OH270800   5.880   5.208   3.565 -0.2845  0.0200 -0.3538
16462TIP3    H170801   5.797   5.240   3.530 -1.1796 -1.6390  0.1793
16462TIP3    H270802   5.893   5.256   3.646 -0.7728  0.2095 -0.3864
16463TIP3   OH270803   0.941   5.622   1.236  0.1615 -0.0039 -0.3293
16463TIP3    H170804   0.907   5.573   1.162  0.3125  0.7232 -0.8865
16463TIP3    H270805   1.036   5.610   1.231  0.2191  0.5549 -0.6194
16464TIP3   OH270806   0.065   7.208   3.946 -0.0682  0.0538 -0.3880
16464TIP3    H170807  -0.000   7.277   3.960 -0.5281 -0.2821 -0.8511
16464TIP3    H270808   0.069   7.161   4.030  1.2259  1.4583  0.3744
16465TIP3   OH270809   1.012   6.707   2.776  0.0917 -0.2615  0.8179
16465TIP3    H170810   0.927   6.734   2.811 -0.2584  4.3159 -2.9184
16465TIP3    H270811   0.991   6.650   2.702  0.3488 -1.1555  1.4390
16466TIP3   OH270812   6.127   6.590   4.410  0.5912  0.1903 -0.3175
16466TIP3    H170813   6.057   6.533   4.379  0.1793  1.0765 -1.0477
16466TIP3    H270814   6.124   6.583   4.506  0.6133 -1.0810 -0.4126
16467TIP3   OH270815   4.928   0.673   1.892  0.6367  0.3048  0.8445
16467TIP3    H170816   4.993   0.605   1.874 -0.6746 -0.7319 -0.0037
16467TIP3    H270817   4.873   0.636   1.961 -0.1775  0.4303  0.2691
16468TIP3   OH270818   0.498   1.338   5.219 -0.4052 -0.3963  0.0951
16468TIP3    H170819   0.418   1.307   5.176 -1.5560 -0.1239  2.0093
16468TIP3    H270820   0.521   1.268   5.280  0.1157  0.0828  0.4493
16469TIP3   OH270821   6.112   5.669   1.609 -0.2367  0.0959 -0.0662
16469TIP3    H170822   6.151   5.590   1.647  0.8743  0.5105 -0.3260
16469TIP3    H270823   6.182   5.707   1.556 -1.5451 -0.0766 -1.9529
16470TIP3   OH270824   1.364   6.925   4.814 -0.2179  0.6603 -0.3534
16470TIP3    H170825   1.449   6.889   4.790  0.3207  1.1802  0.7219
16470TIP3    H270826   1.313   6.922   4.734  0.9753  0.7837 -1.1305
16471TIP3   OH270827   6.756   6.815   4.686 -0.6128  0.4405 -0.3521
16471TIP3    H170828   6.743   6.785   4.776 -1.1224 -0.1993 -0.6354
16471TIP3    H270829   6.682   6.778   4.638 -0.2516  0.6456 -1.0676
16472TIP3   OH270830   4.512   5.085   1.112  0.0311 -0.3659 -0.1973
16472TIP3    H170831   4.584   5.030   1.142  0.1697 -0.0960 -0.0337
16472TIP3    H270832   4.480   5.128   1.191 -0.4311 -0.6268 -0.2400
16473TIP3   OH270833   7.076   6.864   4.276 -0.3823 -0.5738  0.0937
16473TIP3    H170834   7.021   6.860   4.354  0.9664 -1.5885  1.0170
16473TIP3    H270835   7.058   6.782   4.230  0.0438 -0.7289  0.1976
16474TIP3   OH270836   6.821   5.271   3.707 -0.1048 -0.7444 -0.2256
16474TIP3    H170837   6.824   5.244   3.799  0.7877  1.8646  0.5456
16474TIP3    H270838   6.911   5.264   3.677  0.1811  1.5603  0.0563
16475TIP3   OH270839   5.440   0.053   3.751 -0.0696  0.2808  0.0097
16475TIP3    H170840   5.385   0.128   3.773 -1.8248 -1.3328  1.2479
16475TIP3    H270841   5.460   0.012   3.835  1.4093 -0.2900 -0.5987
16476TIP3   OH270842   6.901   0.273   3.320  0.4508 -0.1687  0.0871
16476TIP3    H170843   6.871   0.200   3.265  1.0752 -0.0510 -0.4143
16476TIP3    H270844   6.830   0.286   3.383 -0.3525 -0.1960 -0.7918
16477TIP3   OH270845   1.227   6.316   1.353 -0.4558  0.3258 -0.4052
16477TIP3    H170846   1.136   6.329   1.327 -0.4212  1.5140  0.0087
16477TIP3    H270847   1.242   6.222   1.345 -2.8444 -0.4527  3.1031
16478TIP3   OH270848   0.778   4.942   2.615 -0.8842  0.6616  0.5565
16478TIP3    H170849   0.800   4.973   2.703  0.1620 -0.7604  0.8028
16478TIP3    H270850   0.683   4.927   2.618 -0.9627  1.2703  1.2255
16479TIP3   OH270851   6.237   6.741   2.727  0.0652 -0.0009  0.5662
16479TIP3    H170852   6.198   6.829   2.731 -0.5412 -0.3094  1.8911
16479TIP3    H270853   6.161   6.683   2.722  0.4548 -0.4616  0.0992
16480TIP3   OH270854   0.482   6.435   2.619 -0.0711  0.2957 -0.0644
16480TIP3    H170855   0.493   6.386   2.701  1.8915  1.4580  0.4019
16480TIP3    H270856   0.394   6.472   2.625 -1.0937 -2.0933  0.1429
16481TIP3   OH270857   0.513   5.831   3.750  0.5518 -0.0158 -1.1438
16481TIP3    H170858   0.607   5.813   3.754  0.6425 -0.0427 -2.8168
16481TIP3    H270859   0.477   5.758   3.699 -0.5948 -0.7458  0.6776
16482TIP3   OH270860   0.790   4.476   2.297  0.7468 -0.4430  0.1541
16482TIP3    H170861   0.808   4.544   2.232 -3.3913 -0.0243 -0.6921
16482TIP3    H270862   0.816   4.515   2.380 -0.0668  1.5889 -0.5083
16483TIP3   OH270863   1.393   5.163   2.375  0.0227 -0.0429  0.5893
16483TIP3    H170864   1.363   5.233   2.317  1.3158 -0.1476 -0.2188
16483TIP3    H270865   1.330   5.163   2.447 -0.4381  1.4192  0.1957
16484TIP3   OH270866   0.213   0.378   2.332 -0.3033 -0.3655  0.6935
16484TIP3    H170867   0.182   0.444   2.269 -0.1861 -0.2937  0.7099
16484TIP3    H270868   0.229   0.300   2.279 -2.0756 -0.9188  0.9300
16485TIP3   OH270869   2.614   6.008   0.686 -0.3844 -0.0385  0.0204
16485TIP3    H170870   2.576   6.082   0.734 -2.0775 -0.5238 -0.5786
16485TIP3    H270871   2.625   6.040   0.597 -0.0121 -0.1320  0.0305
16486TIP3   OH270872   0.025   6.257   4.773  0.1121  0.0115 -0.6410
16486TIP3    H170873   0.098   6.199   4.749 -0.5914 -0.8415 -0.7362
16486TIP3    H270874   0.033   6.331   4.713  0.7579 -0.1897 -0.8088
16487TIP3   OH270875   0.007   6.982   1.563 -0.2621 -0.2299  0.1487
16487TIP3    H170876  -0.045   7.046   1.514  0.4631 -0.7576 -1.3259
16487TIP3    H270877  -0.047   6.903   1.566 -1.1487  0.4197  1.9516
16488TIP3   OH270878   5.698   6.244   5.541 -0.1641  0.9499  0.2335
16488TIP3    H170879   5.763   6.181   5.570 -0.8090  0.0322 -0.2938
16488TIP3    H270880   5.621   6.191   5.517 -1.4685  2.0902  1.8096
16489TIP3   OH270881   7.250   1.054   2.343 -0.6920  0.7047  0.0076
16489TIP3    H170882   7.329   1.108   2.341 -0.1854 -0.0660 -1.6749
16489TIP3    H270883   7.278   0.970   2.307 -1.5428 -0.6086  2.3158
16490TIP3   OH270884   1.877   4.846   3.253  0.2348  0.3967  0.0713
16490TIP3    H170885   1.916   4.932   3.236 -0.1449  0.3891 -0.9043
16490TIP3    H270886   1.788   4.866   3.282  0.8361  0.4017  1.9388
16491TIP3   OH270887   5.987   0.996   4.641  0.8174 -0.0415  0.3144
16491TIP3    H170888   5.966   0.907   4.669  0.1706 -0.1109 -0.3645
16491TIP3    H270889   5.904   1.030   4.607  0.9432  0.9863  1.0090
16492TIP3   OH270890   6.375   5.385   2.204 -0.5378 -0.5632  0.1249
16492TIP3    H170891   6.435   5.458   2.188  1.1344 -2.1906 -1.3186
16492TIP3    H270892   6.399   5.352   2.291 -0.6539  0.0048  0.3723
16493TIP3   OH270893   4.824   5.794   2.167  0.5557 -0.1852  0.2244
16493TIP3    H170894   4.918   5.812   2.166  0.4153  0.6501  0.9813
16493TIP3    H270895   4.788   5.858   2.229 -0.7803  0.8640 -1.5775
16494TIP3   OH270896   1.221   6.738   4.574  0.0690 -0.4306 -0.6630
16494TIP3    H170897   1.135   6.709   4.603  0.7776 -0.8939  1.0023
16494TIP3    H270898   1.272   6.657   4.566  0.8749 -0.0097  0.1236
16495TIP3   OH270899   5.025   0.694   3.553 -0.0265  0.5968  0.1332
16495TIP3    H170900   4.969   0.754   3.601 -0.8441 -0.4907  0.5625
16495TIP3    H270901   5.055   0.631   3.618  2.0197  1.3954 -0.0181
16496TIP3   OH270902   0.223   1.011   1.756 -0.4365 -0.0735  0.2377
16496TIP3    H170903   0.245   0.948   1.825  0.0557 -0.5387 -0.3310
16496TIP3    H270904   0.131   0.995   1.737 -0.3404 -0.5525  0.1692
16497TIP3   OH270905   0.848   4.114   3.235  0.3054 -0.2709  0.2286
16497TIP3    H170906   0.940   4.119   3.260  0.4183 -2.4864  0.3471
16497TIP3    H270907   0.844   4.043   3.171 -1.6252 -1.8053  1.9525
16498TIP3   OH270908   0.020   7.215  14.617 -0.2534 -0.2843  0.0471
16498TIP3    H170909   0.088   7.281  14.628  0.7194 -0.8372 -2.2122
16498TIP3    H270910  -0.048   7.239  14.680 -0.1835  3.2061 -1.1108
16499TIP3   OH270911   5.162   5.920   3.795  0.2910 -0.2032 -0.7831
16499TIP3    H170912   5.140   5.888   3.883  0.3376 -0.5160 -0.8859
16499TIP3    H270913   5.124   6.007   3.792 -0.6986 -0.6318 -0.8548
16500TIP3   OH270914   5.787   0.702   2.105  0.0060 -0.3060 -0.0875
16500TIP3    H170915   5.769   0.794   2.084 -1.5112 -0.7889 -0.9341
16500TIP3    H270916   5.865   0.706   2.160 -0.8778  1.6074  1.0993
16501TIP3   OH270917   6.374   0.332   3.697  0.0394 -0.3365 -0.4685
16501TIP3    H170918   6.366   0.347   3.791  2.4470 -1.1354 -0.0893
16501TIP3    H270919   6.287   0.351   3.662 -0.2324  2.4807  1.5569
16502TIP3   OH270920   5.247   7.041   4.262 -0.1947 -0.2909 -0.1859
16502TIP3    H170921   5.265   7.124   4.218  0.1263 -1.0410 -1.4800
16502TIP3    H270922   5.152   7.041   4.276 -0.4450 -0.5132 -1.8330
16503TIP3   OH270923   0.096   4.612   2.495  0.0731  0.1357  0.0259
16503TIP3    H170924   0.116   4.698   2.531 -1.6563 -0.0373  1.4799
16503TIP3    H270925   0.143   4.551   2.551 -1.2612 -0.0417  0.9549
16504TIP3   OH270926   2.030   5.861   2.914 -0.7051  0.1222 -0.3613
16504TIP3    H170927   2.088   5.937   2.927 -0.6663 -0.2545  1.7563
16504TIP3    H270928   1.943   5.892   2.939 -1.0704  0.0411 -1.4642
16505TIP3   OH270929   7.157   7.116   1.012 -0.2721  0.0106  0.0225
16505TIP3    H170930   7.175   7.194   0.961  1.1884 -0.3148  0.0237
16505TIP3    H270931   7.224   7.115   1.080 -0.2679 -1.2379  0.0247
16506TIP3   OH270932   0.179   6.786   4.070  0.0272 -0.4874  0.1078
16506TIP3    H170933   0.215   6.860   4.021  0.7186  0.0321  1.3931
16506TIP3    H270934   0.097   6.766   4.025 -0.0330  0.8774 -0.4142
16507TIP3   OH270935   2.868   4.180   0.544  0.2951 -0.6435 -0.6959
16507TIP3    H170936   2.933   4.250   0.539 -0.5332  0.0983 -1.2441
16507TIP3    H270937   2.873   4.148   0.634 -2.1309  2.8394  0.7524
16508TIP3   OH270938   0.204   5.618   4.385  0.3882 -0.0538 -0.4192
16508TIP3    H170939   0.287   5.571   4.380  0.1290 -0.3181 -2.6639
16508TIP3    H270940   0.227   5.710   4.369  0.5264  0.2272  1.2564
16509TIP3   OH270941   6.433   6.917   0.926  0.5940 -0.3866 -0.2692
16509TIP3    H170942   6.486   6.853   0.877 -0.3484 -1.5668  0.2098
16509TIP3    H270943   6.408   6.982   0.860  1.4492 -0.5833 -0.8023
16510TIP3   OH270944   6.598   0.463   2.217  0.7417 -0.1641  0.9410
16510TIP3    H170945   6.690   0.442   2.238  0.9255 -1.1176 -0.7573
16510TIP3    H270946   6.590   0.445   2.124 -0.9336  0.8876  0.8625
16511TIP3   OH270947   0.883   0.237   5.348 -0.6849  0.3365 -0.5745
16511TIP3    H170948   0.797   0.199   5.364  0.2020 -1.0084  1.1015
16511TIP3    H270949   0.933   0.217   5.427  1.0837  1.3666 -1.4136
16512TIP3   OH270950   1.040   6.728   3.851  0.0285 -0.6365  0.3499
16512TIP3    H170951   1.113   6.669   3.871  0.5380 -1.0874 -2.6144
16512TIP3    H270952   1.082   6.814   3.840  0.8773 -1.5271 -5.1797
16513TIP3   OH270953   0.113   6.189   2.373  0.5661 -0.1841  0.1300
16513TIP3    H170954   0.077   6.103   2.356  0.1405  0.1124 -0.4822
16513TIP3    H270955   0.060   6.224   2.445 -1.0095  0.6216 -1.3701
16514TIP3   OH270956   5.493   7.136   4.801  0.5093 -0.7290  0.1728
16514TIP3    H170957   5.417   7.169   4.753 -0.1756  0.7306  2.1824
16514TIP3    H270958   5.458   7.066   4.855 -0.0020  1.5710  2.9726
16515TIP3   OH270959   6.627   4.657   2.739  0.4061  0.2013  0.2879
16515TIP3    H170960   6.686   4.701   2.801 -1.4527  0.8548  1.6354
16515TIP3    H270961   6.578   4.595   2.793 -0.5566  0.0947 -0.6966
16516TIP3   OH270962   4.895   4.575   4.016  0.3283 -0.3959  0.3549
16516TIP3    H170963   4.972   4.550   4.067  0.9565  1.3087  0.2631
16516TIP3    H270964   4.923   4.651   3.966 -0.7817 -1.0612 -1.3255
16517TIP3   OH270965   5.849   6.530   1.839 -0.2183 -0.2192  0.3329
16517TIP3    H170966   5.866   6.552   1.747  0.3357 -0.8512  0.2820
16517TIP3    H270967   5.880   6.440   1.848 -0.9226 -0.4066  0.9627
16518TIP3   OH270968   5.764   7.064   3.729  0.0770  0.0533  0.5284
16518TIP3    H170969   5.698   7.005   3.691  2.9361 -1.6068 -2.0750
16518TIP3    H270970   5.754   7.145   3.680  0.0409 -0.2406  0.0397
16519TIP3   OH270971   4.369   0.068   0.980 -0.1771  0.0224  0.4885
16519TIP3    H170972   4.288   0.065   1.031  0.3956  0.4837  1.4409
16519TIP3    H270973   4.373   0.158   0.946  0.3269  0.2407  1.1072
16520TIP3   OH270974   6.461   5.174   4.237  0.1363  0.2672  0.2146
16520TIP3    H170975   6.384   5.177   4.180 -0.1011  0.1982  0.5302
16520TIP3    H270976   6.503   5.091   4.216 -0.0799  0.1344  0.3099
16521TIP3   OH270977   6.405   7.166   3.307  0.5623 -0.1577 -0.3730
16521TIP3    H170978   6.492   7.189   3.275  0.6151  0.7023  0.3543
16521TIP3    H270979   6.410   7.178   3.402  0.1663 -1.8543 -0.1309
16522TIP3   OH270980   5.191   5.527   0.453 -0.2583 -0.2920 -0.4856
16522TIP3    H170981   5.143   5.564   0.379  0.6189  1.4839 -0.2067
16522TIP3    H270982   5.171   5.587   0.526  0.8987 -0.5826  0.0811
16523TIP3   OH270983   7.231   5.987   2.375  0.2397  0.5456 -0.1119
16523TIP3    H170984   7.226   5.891   2.373 -1.1944  0.6336 -2.6347
16523TIP3    H270985   7.140   6.016   2.362  0.9796  2.2211 -1.8141
16524TIP3   OH270986   1.469   6.534   2.687 -0.2314  0.3480 -0.3265
16524TIP3    H170987   1.457   6.522   2.781 -1.2473  1.4479 -0.3080
16524TIP3    H270988   1.416   6.611   2.665  0.1922  0.2522 -1.7515
16525TIP3   OH270989   2.422   4.078   4.835  0.0060 -0.4953 -0.3545
16525TIP3    H170990   2.405   4.171   4.850  0.2205 -0.7426  1.5529
16525TIP3    H270991   2.498   4.058   4.891  0.3434 -1.6751 -1.2166
16526TIP3   OH270992   0.191   7.093   3.486 -0.5329 -0.0151  0.1621
16526TIP3    H170993   0.225   7.090   3.575 -0.3145  2.4319  0.1944
16526TIP3    H270994   0.114   7.150   3.491 -1.4821 -1.1627 -0.9317
16527TIP3   OH270995   1.015   0.083   3.389 -0.3045 -0.6875  0.3597
16527TIP3    H170996   0.931   0.120   3.413 -0.8896  0.8778 -3.6332
16527TIP3    H270997   1.073   0.158   3.379  0.5003 -1.4240 -0.7268
16528TIP3   OH270998   5.545   7.089   1.601 -0.1073 -0.1713  0.6460
16528TIP3    H170999   5.467   7.032   1.609  0.2843 -0.9772 -1.1268
16528TIP3    H271000   5.618   7.030   1.620  0.2452 -0.0560 -0.3741
16529TIP3   OH271001   4.126   5.202   3.773 -0.7003 -0.1988 -0.4333
16529TIP3    H171002   4.146   5.109   3.762  0.4492 -0.1479  1.1115
16529TIP3    H271003   4.132   5.238   3.684  3.4343 -0.7350 -0.4571
16530TIP3   OH271004   6.898   0.473   2.023  0.2948  0.3287 -0.3092
16530TIP3    H171005   6.932   0.474   2.112 -0.0459  0.5512 -0.1798
16530TIP3    H271006   6.862   0.386   2.011  1.9324 -0.2983 -0.8405
16531TIP3   OH271007   2.262   4.448   1.795 -0.0701 -0.2232  0.0552
16531TIP3    H171008   2.208   4.527   1.787  1.1398  0.9314  2.5806
16531TIP3    H271009   2.350   4.480   1.812  0.4802 -2.1194  0.9756
16532TIP3   OH271010   6.696   6.150   2.666 -0.3141 -0.2342 -0.0474
16532TIP3    H171011   6.654   6.208   2.730  0.8706 -0.3497  0.8607
16532TIP3    H271012   6.661   6.178   2.582 -2.5488 -0.6288  0.7158
16533TIP3   OH271013   1.080   6.318   4.508  0.1282  0.1896 -0.1222
16533TIP3    H171014   1.105   6.367   4.587 -0.0262  1.7116 -0.9906
16533TIP3    H271015   0.989   6.292   4.523  0.3788 -0.2904  0.5734
16534TIP3   OH271016   4.778   6.779   3.383 -0.7057 -0.4993  0.6358
16534TIP3    H171017   4.796   6.737   3.300 -1.5321 -0.4348  0.4213
16534TIP3    H271018   4.702   6.733   3.419 -1.6741  0.8310  0.3571
16535TIP3   OH271019   0.808   5.377   2.187 -0.0037 -0.5570  0.8399
16535TIP3    H171020   0.815   5.447   2.122 -1.3300  0.0748  1.3437
16535TIP3    H271021   0.846   5.301   2.144 -1.1107 -0.2177 -0.8021
16536TIP3   OH271022   6.182   0.698   1.622 -0.1117  0.3267  0.1525
16536TIP3    H171023   6.242   0.654   1.682 -0.8293  0.1174  0.7177
16536TIP3    H271024   6.095   0.673   1.652 -0.4942  0.9236 -0.4425
16537TIP3   OH271025   0.019   6.419   5.313 -0.3594 -0.2121 -0.2204
16537TIP3    H171026  -0.047   6.398   5.248 -0.9813  0.6105  0.1332
16537TIP3    H271027  -0.029   6.467   5.381  0.6317  0.5388 -0.0430
16538TIP3   OH271028   0.351   0.164   2.544  0.2591  0.0529  0.1754
16538TIP3    H171029   0.393   0.097   2.599  0.2247  0.3317  0.5433
16538TIP3    H271030   0.286   0.204   2.601  0.0634  0.1851 -0.1446
16539TIP3   OH271031   7.231   0.050   3.614 -0.5118  0.0360 -0.0427
16539TIP3    H171032   7.173   0.124   3.599  1.5033  1.4374 -0.9824
16539TIP3    H271033   7.265   0.028   3.528  1.8917  0.4952  0.7697
16540TIP3   OH271034   0.324   5.352   1.918  0.1339  0.4077 -0.3681
16540TIP3    H171035   0.360   5.308   1.841  0.2199  1.3886 -0.8900
16540TIP3    H271036   0.381   5.324   1.990  0.0501 -0.5142 -0.6504
16541TIP3   OH271037   0.660   6.050   2.102 -0.2890 -0.4781  0.1326
16541TIP3    H171038   0.611   5.987   2.155  0.2043 -0.8305  0.1809
16541TIP3    H271039   0.730   6.080   2.160 -0.5564  0.1560  0.1265
16542TIP3   OH271040   5.460   7.035   2.919  0.1877 -0.3655  0.1860
16542TIP3    H171041   5.505   7.118   2.903  2.1222 -1.4205  0.0937
16542TIP3    H271042   5.443   7.033   3.013 -1.2740  0.8197 -0.0289
16543TIP3   OH271043   5.835   6.263   3.935 -0.6301 -0.0973 -0.7649
16543TIP3    H171044   5.900   6.270   3.865  1.6497 -0.2402  1.2537
16543TIP3    H271045   5.827   6.168   3.950  0.9284  0.0044  0.9310
16544TIP3   OH271046   6.645   0.978   3.052 -0.1731 -0.3248  0.3103
16544TIP3    H171047   6.676   0.888   3.042 -0.7237 -0.2713 -2.3754
16544TIP3    H271048   6.694   1.027   2.986 -0.2166  1.2710  1.4427
16545TIP3   OH271049   6.049   6.005   2.444 -0.6474  0.4122 -0.3017
16545TIP3    H171050   6.057   5.912   2.426  0.6616  0.6567 -1.0286
16545TIP3    H271051   6.041   6.011   2.539  2.1147 -0.2550 -0.0030
16546TIP3   OH271052   6.653   5.176   0.571 -1.0373  0.1797  0.5288
16546TIP3    H171053   6.579   5.122   0.542 -0.6446 -0.4780  0.7439
16546TIP3    H271054   6.674   5.230   0.495 -1.7608  0.3930  0.4775
16547TIP3   OH271055   5.947   6.264   1.870 -0.0910 -0.0603 -0.6798
16547TIP3    H171056   5.991   6.298   1.948 -1.0873 -0.6003  0.1213
16547TIP3    H271057   6.006   6.287   1.798  1.9861 -1.6438  0.4607
16548TIP3   OH271058   0.619   3.498   0.939 -0.7563 -0.4008  0.3249
16548TIP3    H171059   0.525   3.517   0.931 -0.6423  0.3314  0.6864
16548TIP3    H271060   0.642   3.456   0.856 -1.3576 -0.3983  0.1513
16549TIP3   OH271061   4.690   6.481   1.641 -0.7900 -0.2406 -0.4463
16549TIP3    H171062   4.614   6.518   1.596 -1.4749 -1.8627 -0.6568
16549TIP3    H271063   4.752   6.459   1.571 -0.5883  0.0674 -0.3630
16550TIP3   OH271064   7.032   2.290   1.734  0.3324 -1.1547  0.6429
16550TIP3    H171065   7.106   2.273   1.676 -0.9040 -0.6659 -1.1315
16550TIP3    H271066   7.045   2.381   1.762  0.5053 -1.1209  0.4608
16551TIP3   OH271067   6.548   5.997   1.451 -0.0854 -0.1133 -0.4933
16551TIP3    H171068   6.600   5.916   1.453 -0.3387 -0.2891 -0.9649
16551TIP3    H271069   6.611   6.067   1.468 -0.1312 -0.5399  1.5743
16552TIP3   OH271070   5.602   4.510   0.887 -0.5178 -0.3240  0.4838
16552TIP3    H171071   5.551   4.480   0.811 -0.0941 -0.0575  0.0862
16552TIP3    H271072   5.686   4.538   0.849 -1.4164  2.7473  0.6052
16553TIP3   OH271073   1.377   4.540   5.241 -0.5065 -0.2610  0.5206
16553TIP3    H171074   1.399   4.614   5.298 -0.2443 -0.8736  1.2316
16553TIP3    H271075   1.353   4.470   5.302 -1.3388 -0.5710 -0.1674
16554TIP3   OH271076   0.648   5.448   4.701 -0.5339 -0.0755 -0.0410
16554TIP3    H171077   0.627   5.505   4.626  2.4116  0.4908 -0.5129
16554TIP3    H271078   0.697   5.505   4.761 -0.8460 -1.1450  1.2395
16555TIP3   OH271079   0.191   0.366   3.663  0.6186  0.0032 -0.3927
16555TIP3    H171080   0.142   0.297   3.707  1.8204 -1.0079 -0.5887
16555TIP3    H271081   0.127   0.411   3.608 -0.5195  0.1230  0.9989
16556TIP3   OH271082   6.303   5.880   1.033 -0.1653 -0.4286 -0.2799
16556TIP3    H171083   6.275   5.890   0.942  0.0670  0.3989 -0.2632
16556TIP3    H271084   6.222   5.879   1.083 -0.4480 -3.3532 -0.7025
16557TIP3   OH271085   0.407   2.078   2.790 -0.1458 -0.4689  0.2943
16557TIP3    H171086   0.312   2.065   2.790 -0.1698 -0.6547 -2.1939
16557TIP3    H271087   0.442   1.996   2.754  1.1007 -1.0365  2.6944
16558TIP3   OH271088   5.419   5.859   2.833 -0.1256 -0.6638 -0.6827
16558TIP3    H171089   5.472   5.799   2.782 -0.9920 -0.7333 -1.5085
16558TIP3    H271090   5.382   5.805   2.903  0.4724 -0.7221 -0.4097
16559TIP3   OH271091   0.362   6.351   3.641 -0.0942 -0.3578  0.1234
16559TIP3    H171092   0.454   6.374   3.656  0.0146 -1.2626  0.9065
16559TIP3    H271093   0.326   6.425   3.593  1.6403 -1.0537 -2.3255
16560TIP3   OH271094   5.605   7.074   2.116  0.4063 -0.4108 -0.4349
16560TIP3    H171095   5.532   7.134   2.135 -0.8316 -1.3864 -1.9888
16560TIP3    H271096   5.640   7.104   2.032  3.0050  1.1550  1.1330
16561TIP3   OH271097   1.883   4.069   3.352  0.1397  0.2635 -0.5446
16561TIP3    H171098   1.932   4.037   3.427  0.1006  3.1180  0.7837
16561TIP3    H271099   1.925   4.029   3.276  1.1653 -1.4316  0.8824
16562TIP3   OH271100   0.394   5.853   1.136 -0.0889  0.4793 -0.0898
16562TIP3    H171101   0.488   5.835   1.137 -0.4147 -1.3337 -0.6526
16562TIP3    H271102   0.388   5.945   1.111  1.4588 -0.0750 -2.7131
16563TIP3   OH271103   4.903   1.358   1.262  0.1152  0.6827  0.5507
16563TIP3    H171104   4.876   1.275   1.224 -0.5276  1.2665 -0.2796
16563TIP3    H271105   4.946   1.334   1.344 -0.3448 -0.4481  0.4672
16564TIP3   OH271106   6.247   5.418   1.706 -0.4266  0.1203  0.0056
16564TIP3    H171107   6.261   5.344   1.648 -2.8884 -0.0558 -0.4036
16564TIP3    H271108   6.165   5.399   1.751 -0.6762  2.1926  0.4983
16565TIP3   OH271109   0.860   6.973   3.651  0.1704 -0.1570  0.0326
16565TIP3    H171110   0.789   6.965   3.714 -0.3950  0.3389 -0.5252
16565TIP3    H271111   0.899   6.886   3.647 -0.7526 -0.5676 -0.0499
16566TIP3   OH271112   4.135   5.095   2.877 -0.3179  0.6465  0.4912
16566TIP3    H171113   4.106   5.174   2.924 -1.8996  0.5828 -0.3311
16566TIP3    H271114   4.106   5.109   2.787 -0.1413 -0.6373  0.2305
16567TIP3   OH271115   6.308   0.281   4.809 -0.9487  0.4149 -0.6716
16567TIP3    H171116   6.368   0.345   4.846  1.0137 -1.0945 -1.1835
16567TIP3    H271117   6.263   0.327   4.739  1.3551  0.8835 -1.8646
16568TIP3   OH271118   7.274   3.894   1.269 -0.7002 -0.1521 -0.0438
16568TIP3    H171119   7.184   3.913   1.243 -0.2862  0.3501 -1.1550
16568TIP3    H271120   7.271   3.804   1.302 -1.3459 -0.6621 -1.4623
16569TIP3   OH271121   5.997   2.216   4.302  0.2477  0.4320 -0.3654
16569TIP3    H171122   5.918   2.199   4.353  1.0511  0.7171  0.9945
16569TIP3    H271123   5.978   2.179   4.216 -0.3050 -2.0077  0.7657
16570TIP3   OH271124   0.536   5.757   0.539 -0.1754  0.6843  0.2380
16570TIP3    H171125   0.571   5.828   0.593  0.5256  2.6561 -2.6726
16570TIP3    H271126   0.613   5.709   0.509 -0.5461 -0.3162  0.8613
16571TIP3   OH271127   3.314   4.770   3.636  0.0582 -0.3418  0.4329
16571TIP3    H171128   3.256   4.814   3.575  1.2144 -1.2916 -1.3937
16571TIP3    H271129   3.392   4.825   3.640  0.5203 -0.9554  0.0126
16572TIP3   OH271130   5.565   7.151   2.545 -0.0151  0.0001 -0.2147
16572TIP3    H171131   5.537   7.192   2.626  1.6299  1.7254 -0.4864
16572TIP3    H271132   5.510   7.190   2.477  1.3766  1.6491 -0.4394
16573TIP3   OH271133   7.299   0.439   4.757 -1.0037  0.3129 -0.3143
16573TIP3    H171134   7.295   0.516   4.700 -2.2533  0.8635  0.5041
16573TIP3    H271135   7.335   0.370   4.701  0.1060  1.4697 -1.0617
16574TIP3   OH271136   5.899   0.053   3.262 -0.3751 -0.5791 -0.5501
16574TIP3    H171137   5.979   0.008   3.235 -1.8027 -2.1394 -2.3514
16574TIP3    H271138   5.848  -0.015   3.305 -0.0001  0.8485  2.2087
16575TIP3   OH271139   4.985   0.617   3.157 -0.6489 -0.1832  0.1995
16575TIP3    H171140   4.895   0.641   3.182  0.3887  2.3307  1.7604
16575TIP3    H271141   5.003   0.538   3.208 -2.3594 -1.3969 -1.0228
16576TIP3   OH271142   7.082   5.549   2.737 -0.3887 -0.7497  0.3882
16576TIP3    H171143   7.012   5.491   2.708 -0.6747  0.6180 -1.7927
16576TIP3    H271144   7.161   5.513   2.696 -0.3390 -0.4591  0.2234
16577TIP3   OH271145   7.147   5.118   1.522 -0.5705  0.1850  0.3101
16577TIP3    H171146   7.114   5.202   1.551  0.8434  0.7147  0.4095
16577TIP3    H271147   7.140   5.121   1.426  0.2597  0.7424  0.2663
16578TIP3   OH271148   6.383   7.098   2.215 -0.1817 -0.4485 -0.0931
16578TIP3    H171149   6.330   7.051   2.151  0.4513 -0.0874 -0.8953
16578TIP3    H271150   6.370   7.191   2.194 -3.1177 -0.1067  2.8282
16579TIP3   OH271151   6.220   5.812   0.493  0.1364 -0.1146  0.5349
16579TIP3    H171152   6.131   5.783   0.513  0.7196 -0.7792  2.1706
16579TIP3    H271153   6.257   5.838   0.577  1.3673  0.5314 -0.1929
16580TIP3   OH271154   5.334   5.258   4.023  0.2255 -0.1736 -0.7845
16580TIP3    H171155   5.267   5.191   4.027  0.5083 -0.2886  3.7179
16580TIP3    H271156   5.416   5.213   4.045  0.7461  1.2155  0.2092
16581TIP3   OH271157   6.636   3.672   3.578  0.3673  0.3215  0.0170
16581TIP3    H171158   6.547   3.638   3.579  0.4259  0.1728  0.1221
16581TIP3    H271159   6.636   3.737   3.508 -0.1510  1.1964  0.8224
16582TIP3   OH271160   6.241   5.866   4.340 -0.2092 -0.0315 -0.2862
16582TIP3    H171161   6.221   5.824   4.424  0.1592  0.2788 -0.0421
16582TIP3    H271162   6.156   5.872   4.295 -0.8964  2.3924  1.2467
16583TIP3   OH271163   2.019   5.777   1.983  0.1883 -0.1981  0.0556
16583TIP3    H171164   2.045   5.869   1.979 -1.7942  0.5039  2.4147
16583TIP3    H271165   2.019   5.756   2.076  0.5037 -2.5917 -0.4393
16584TIP3   OH271166   5.725   6.308   2.467  0.2536 -0.1335 -0.3775
16584TIP3    H171167   5.781   6.254   2.410  3.1367  1.6555  0.6556
16584TIP3    H271168   5.778   6.385   2.486 -1.4586  0.2630  3.0681
16585TIP3   OH271169   0.557   1.079   0.934 -0.2278  0.3754  0.0036
16585TIP3    H171170   0.605   1.021   0.876  0.4140  0.0914  0.8036
16585TIP3    H271171   0.625   1.130   0.979 -0.7740  1.7402 -0.6852
16586TIP3   OH271172   6.358   4.580   5.834 -0.0477  0.2164  0.0958
16586TIP3    H171173   6.378   4.624   5.752 -0.2953  1.0046  0.4591
16586TIP3    H271174   6.310   4.644   5.885  1.6697  0.3551  1.5817
16587TIP3   OH271175   0.239   3.041   3.320 -0.3640 -0.0008  0.5922
16587TIP3    H171176   0.175   2.983   3.362 -0.3361  0.0277  0.6735
16587TIP3    H271177   0.320   3.027   3.368  0.1560 -1.3436 -0.6174
16588TIP3   OH271178   1.343   5.691   4.415 -0.5931 -0.2809 -0.7403
16588TIP3    H171179   1.303   5.744   4.346  1.8907  1.9235 -0.5574
16588TIP3    H271180   1.381   5.616   4.367 -0.8593  0.0498 -1.4811
16589TIP3   OH271181   6.879   4.774   3.943 -0.3940 -0.1729  0.0657
16589TIP3    H171182   6.833   4.755   3.861 -2.4582  2.6061  0.5377
16589TIP3    H271183   6.902   4.688   3.977 -1.8088 -1.4851 -2.1361
16590TIP3   OH271184   0.991   6.313   2.577  0.7344 -0.1965  0.1589
16590TIP3    H171185   1.045   6.278   2.648  1.2173 -0.7993 -0.5010
16590TIP3    H271186   0.902   6.285   2.599  0.8107  0.0416  0.7850
16591TIP3   OH271187   7.057   7.251   1.802 -0.1541  0.0830 -0.0104
16591TIP3    H171188   7.004   7.180   1.766  0.0131  0.4449 -0.9594
16591TIP3    H271189   7.132   7.258   1.743 -0.3254  1.2725 -0.0945
16592TIP3   OH271190   1.017   4.284   1.933 -0.2716  0.0894 -0.2685
16592TIP3    H171191   0.977   4.238   2.006  0.2853  0.0460  0.0117
16592TIP3    H271192   1.090   4.332   1.971  1.0839 -1.3007 -1.0611
16593TIP3   OH271193   2.211   6.667   1.719  0.6807 -0.4639  0.9653
16593TIP3    H171194   2.151   6.680   1.792  0.2144 -2.3230  0.9430
16593TIP3    H271195   2.155   6.643   1.645  1.3411 -0.9691  0.6144
16594TIP3   OH271196   5.004   1.799   3.925 -0.8755  0.2383  0.2058
16594TIP3    H171197   5.075   1.774   3.984 -0.8774  0.3627  0.2606
16594TIP3    H271198   5.028   1.760   3.840 -1.4890 -1.0064  0.5790
16595TIP3   OH271199   0.555   5.209   3.015 -0.4487  0.3414  0.5208
16595TIP3    H171200   0.586   5.184   3.102  0.7618 -0.6855 -0.1961
16595TIP3    H271201   0.626   5.185   2.956 -0.6171  2.4625 -0.5840
16596TIP3   OH271202   0.790   4.376   2.884 -0.0286  0.4711  0.5517
16596TIP3    H171203   0.698   4.396   2.870 -0.1241 -1.0940 -1.2023
16596TIP3    H271204   0.802   4.386   2.979 -1.2656  3.5341  0.4441
16597TIP3   OH271205   4.670   6.578   0.842 -0.4344 -0.0432  0.2585
16597TIP3    H171206   4.698   6.488   0.826 -1.1333 -0.7141  2.5997
16597TIP3    H271207   4.695   6.595   0.933  0.1655  2.3292 -0.2987
16598TIP3   OH271208   5.989   5.084   0.732 -0.5300 -0.1786 -0.3357
16598TIP3    H171209   6.024   5.034   0.805 -1.9170 -1.7644 -0.7344
16598TIP3    H271210   5.955   5.164   0.772  2.6770  1.0140  0.1548
16599TIP3   OH271211   1.975   5.148   2.040  0.1835 -0.3126  0.8488
16599TIP3    H171212   1.987   5.089   2.115  0.2824 -1.1089  0.2068
16599TIP3    H271213   1.881   5.152   2.028  0.0208  1.6814  2.4875
16600TIP3   OH271214   0.997   6.597   1.990  0.2379 -0.3974 -0.1826
16600TIP3    H171215   0.909   6.602   2.027  0.2459 -0.8724 -0.1021
16600TIP3    H271216   1.052   6.566   2.062  1.1954  3.6790  0.9691
16601TIP3   OH271217   3.508   0.165   1.704 -0.2026  0.0232  0.0204
16601TIP3    H171218   3.473   0.131   1.787  1.5303 -1.4933  0.1589
16601TIP3    H271219   3.507   0.260   1.714  1.6929 -0.1723  2.5192
16602TIP3   OH271220   0.147   0.925   4.507 -0.5643 -0.0352 -0.3631
16602TIP3    H171221   0.064   0.947   4.465 -1.0389 -2.2683 -0.6575
16602TIP3    H271222   0.134   0.943   4.600 -2.4888 -3.2889  0.0819
16603TIP3   OH271223   1.945   6.299   3.953 -0.3269 -0.1533 -0.7618
16603TIP3    H171224   2.002   6.297   3.876 -0.1279  0.3606 -0.6315
16603TIP3    H271225   1.998   6.259   4.022 -0.5117 -0.6307 -0.8933
16604TIP3   OH271226   5.203   6.067   1.250  0.1794 -0.0841  0.4194
16604TIP3    H171227   5.168   6.154   1.229 -0.7937 -0.7902 -1.0177
16604TIP3    H271228   5.155   6.040   1.328 -0.6449  0.0406 -0.0316
16605TIP3   OH271229   2.271   5.463   1.709 -0.4503 -0.3443  0.0840
16605TIP3    H171230   2.240   5.540   1.756  0.1319 -0.5423  0.8017
16605TIP3    H271231   2.275   5.394   1.775 -0.8367 -0.9585 -0.5231
16606TIP3   OH271232   5.101   4.193   2.334  0.0777  0.4450 -0.3555
16606TIP3    H171233   5.130   4.120   2.389 -0.9119 -0.6026 -1.1912
16606TIP3    H271234   5.180   4.218   2.284  0.0817 -1.0082 -1.1035
16607TIP3   OH271235   5.022   5.174   3.726  0.1926  0.4449 -0.6957
16607TIP3    H171236   5.046   5.093   3.771 -1.0081  0.7197  0.4697
16607TIP3    H271237   5.033   5.243   3.792 -2.3378  0.7518 -0.5576
16608TIP3   OH271238   6.307   0.219   0.373 -0.2268  0.2442 -0.4198
16608TIP3    H171239   6.311   0.124   0.361 -1.2757 -0.1916  2.4117
16608TIP3    H271240   6.344   0.235   0.459 -0.9251  2.3096 -0.4562
16609TIP3   OH271241   6.547   1.040   4.815  0.1730  0.5685 -0.6039
16609TIP3    H171242   6.632   1.031   4.773  2.0234 -2.4300  3.4191
16609TIP3    H271243   6.506   0.954   4.805  0.1165  0.1980  2.3832
16610TIP3   OH271244   5.603   6.930   3.552  0.0483 -0.1067 -0.2963
16610TIP3    H171245   5.597   6.855   3.493 -1.6301  0.8532 -1.3702
16610TIP3    H271246   5.564   6.899   3.634 -0.5845 -0.4427 -0.7178
16611TIP3   OH271247   6.504   5.294   2.425  0.0084  0.6401 -0.1517
16611TIP3    H171248   6.587   5.313   2.380 -0.7808 -0.8527 -2.3538
16611TIP3    H271249   6.525   5.219   2.482  0.9186  2.2907  1.7306
16612TIP3   OH271250   5.609   4.649   1.866  0.3630  0.4472  0.1646
16612TIP3    H171251   5.641   4.740   1.863 -0.0311  0.5606 -0.9027
16612TIP3    H271252   5.517   4.656   1.840  0.3849 -0.2806 -0.1002
16613TIP3   OH271253   6.472   5.007   0.465 -0.2054 -0.0508 -0.0001
16613TIP3    H171254   6.499   4.970   0.381  0.7487 -0.3352  0.4193
16613TIP3    H271255   6.423   4.936   0.507 -1.2035  0.3003 -0.5677
16614TIP3   OH271256   5.922   7.062   1.467  0.0640  0.1594 -0.1994
16614TIP3    H171257   5.973   7.109   1.401 -2.4858  2.1111 -0.8493
16614TIP3    H271258   5.934   7.113   1.547  1.8826 -1.3355  0.5304
16615TIP3   OH271259   3.972   1.497   0.620  0.1099  0.2200 -0.4214
16615TIP3    H171260   4.049   1.540   0.657  0.0179  0.2089 -0.2151
16615TIP3    H271261   4.001   1.407   0.601 -0.1499 -0.0936  0.6459
16616TIP3   OH271262   6.136   7.215   3.196  0.0036  1.1149  0.1056
16616TIP3    H171263   6.227   7.192   3.211 -0.3049  0.1582  0.5534
16616TIP3    H271264   6.138   7.277   3.123  0.8636 -0.2381 -1.0337
16617TIP3   OH271265   7.032   6.628   2.471  0.0018 -0.1632  0.1463
16617TIP3    H171266   7.045   6.537   2.445  0.7215 -0.0445  0.0971
16617TIP3    H271267   7.095   6.643   2.541 -0.9589 -0.0580  1.0027
16618TIP3   OH271268   5.503   5.821   1.036 -0.2305 -0.1965 -0.6094
16618TIP3    H171269   5.579   5.763   1.044 -1.4749 -1.9114 -0.7795
16618TIP3    H271270   5.500   5.869   1.118  1.2152  0.1169 -0.7333
16619TIP3   OH271271   2.228   4.772   0.992 -0.1576 -0.0001 -0.3410
16619TIP3    H171272   2.158   4.719   1.029  0.9635 -1.0701  0.2953
16619TIP3    H271273   2.284   4.792   1.067 -0.7401  2.3748 -0.5189
16620TIP3   OH271274   6.730   3.855   3.815 -0.2346 -0.0644 -0.4034
16620TIP3    H171275   6.646   3.887   3.782 -0.5895 -2.0751 -1.5394
16620TIP3    H271276   6.748   3.776   3.763  1.4910 -0.6593  1.0341
16621TIP3   OH271277   0.607   3.311   2.245  0.7591 -0.5890 -0.3955
16621TIP3    H171278   0.627   3.345   2.158  0.0975  0.6634 -0.0775
16621TIP3    H271279   0.689   3.275   2.277  1.6599  1.3250 -0.5026
16622TIP3   OH271280   7.168   5.968   3.807  0.2910  1.0472 -0.9008
16622TIP3    H171281   7.118   5.923   3.739  1.4708  0.3627 -1.3230
16622TIP3    H271282   7.205   5.898   3.861 -1.0493  1.5886  0.7795
16623TIP3   OH271283   0.477   6.587   3.485  0.0156 -0.2315 -0.1495
16623TIP3    H171284   0.502   6.529   3.413  0.2876 -1.3766  0.8494
16623TIP3    H271285   0.522   6.551   3.562  0.3459  1.4180  0.4618
16624TIP3   OH271286   1.155   1.606   4.021 -0.5057 -0.3120  0.1998
16624TIP3    H171287   1.158   1.632   3.929  2.5446 -0.0131  0.3062
16624TIP3    H271288   1.156   1.689   4.069 -0.7719 -0.4886  0.5107
16625TIP3   OH271289   2.281   0.167   3.346 -0.0713 -0.1132 -0.5517
16625TIP3    H171290   2.304   0.230   3.414  1.5486  1.1279 -2.1970
16625TIP3    H271291   2.248   0.091   3.394 -1.9460  1.8950  1.4937
16626TIP3   OH271292   0.795   7.260   3.135  0.4286  0.4257 -0.2628
16626TIP3    H171293   0.784   7.314   3.214  2.6830  0.0734  0.3288
16626TIP3    H271294   0.819   7.173   3.169 -1.0918 -0.4156 -1.2740
16627TIP3   OH271295   0.619   2.481   4.744 -0.3538 -0.3276  0.1461
16627TIP3    H171296   0.713   2.467   4.745 -0.4061 -0.7412 -1.1213
16627TIP3    H271297   0.582   2.401   4.706 -1.2095 -0.1240  0.5286
16628TIP3   OH271298   4.015   1.428   4.174  0.5848 -0.9310 -0.4497
16628TIP3    H171299   3.984   1.397   4.089 -1.8912  0.3879 -0.0849
16628TIP3    H271300   3.962   1.506   4.191 -0.8396 -2.6320  3.4728
16629TIP3   OH271301   6.639   3.027   4.755 -0.2300 -0.4755  0.1956
16629TIP3    H171302   6.718   3.029   4.809  0.7427  2.0493 -1.2831
16629TIP3    H271303   6.581   3.093   4.794 -0.2282  0.1082 -0.7705
16630TIP3   OH271304   6.578   0.995   1.407 -0.3407  0.0678 -0.2854
16630TIP3    H171305   6.493   0.952   1.416  0.2412 -0.4331  3.5440
16630TIP3    H271306   6.641   0.927   1.427  0.8176  1.3210  0.3692
16631TIP3   OH271307   2.222   1.244   4.552  0.5057 -0.5344  0.0466
16631TIP3    H171308   2.300   1.215   4.600  0.2536  0.4412  1.0787
16631TIP3    H271309   2.158   1.263   4.621 -0.5225 -0.9609 -0.7729
16632TIP3   OH271310   1.565   0.801   5.264 -0.2085 -0.2516  0.1216
16632TIP3    H171311   1.495   0.739   5.245 -0.7257  0.1972  0.5474
16632TIP3    H271312   1.586   0.841   5.180 -1.5783  0.7722  0.2413
16633TIP3   OH271313   1.265   6.143   4.435 -0.7914  0.0189 -0.2582
16633TIP3    H171314   1.214   6.218   4.467 -0.8043  0.2457 -0.8105
16633TIP3    H271315   1.338   6.135   4.497 -2.9956 -2.0415  2.2062
16634TIP3   OH271316   6.144   0.822   5.358  0.9066  0.5223 -0.1998
16634TIP3    H171317   6.118   0.785   5.442  0.4398 -1.2080 -1.0736
16634TIP3    H271318   6.238   0.805   5.352  0.6307 -0.9136 -0.7551
16635TIP3   OH271319   6.930   0.843   4.273 -0.0200 -0.5546 -0.6040
16635TIP3    H171320   6.935   0.847   4.178 -1.4333 -0.0009 -0.6673
16635TIP3    H271321   6.981   0.766   4.297 -0.0231 -0.9439 -1.8423
16636TIP3   OH271322   3.734   2.394   3.940 -0.2144  0.0789  0.7653
16636TIP3    H171323   3.690   2.309   3.935 -1.6971  0.7721  1.4505
16636TIP3    H271324   3.677   2.447   3.996  0.3951  1.6878 -0.0927
16637TIP3   OH271325   7.146   5.828   2.889  0.1220 -0.2592  0.0516
16637TIP3    H171326   7.085   5.801   2.820 -2.0901 -2.2066  2.6564
16637TIP3    H271327   7.226   5.778   2.871 -1.3725 -2.9020  0.4167
16638TIP3   OH271328   1.829   0.288   2.488  0.0833  0.2899  0.2744
16638TIP3    H171329   1.757   0.326   2.439 -0.1930  0.3486  0.7232
16638TIP3    H271330   1.823   0.328   2.575  0.3974 -0.0227  0.4421
16639TIP3   OH271331   1.015   1.066   5.465 -0.2614  0.0151  0.5345
16639TIP3    H171332   0.953   1.058   5.538 -1.8848 -0.8473 -0.8707
16639TIP3    H271333   0.978   1.135   5.410  0.8756  0.5653  0.4514
16640TIP3   OH271334   6.465   6.371   4.524 -0.1698 -1.0278 -0.1402
16640TIP3    H171335   6.478   6.436   4.454  0.4346 -1.7139 -0.6713
16640TIP3    H271336   6.552   6.339   4.544 -0.2236 -0.1100  1.6628
16641TIP3   OH271337   0.334   0.468   4.568  0.1869  0.4244  0.0681
16641TIP3    H171338   0.276   0.485   4.642 -0.9531  1.5611 -1.0655
16641TIP3    H271339   0.394   0.543   4.567  0.3352  0.3046 -0.0382
16642TIP3   OH271340   0.724   0.541   6.384 -0.4550  0.3270 -0.7730
16642TIP3    H171341   0.673   0.576   6.456  0.5377  1.0180 -0.3880
16642TIP3    H271342   0.724   0.611   6.319  1.1331  0.8675 -0.2047
16643TIP3   OH271343   1.752   1.620   5.123 -0.7713 -0.3234 -0.8982
16643TIP3    H171344   1.731   1.689   5.059  3.1132  1.5645 -0.3295
16643TIP3    H271345   1.799   1.554   5.072 -1.5203 -0.9243 -0.8102
16644TIP3   OH271346   0.769   5.739   3.711 -0.3171  0.3574  0.9758
16644TIP3    H171347   0.853   5.783   3.698 -1.3145  1.3495 -2.8082
16644TIP3    H271348   0.781   5.652   3.674 -0.8263  0.3294  0.8737
16645TIP3   OH271349   7.212   1.736   4.683 -0.4930  0.5404 -0.6604
16645TIP3    H171350   7.120   1.750   4.707 -0.3088  0.6568 -0.0048
16645TIP3    H271351   7.257   1.724   4.767  0.2419  1.4212 -0.9201
16646TIP3   OH271352   2.833   6.106   5.325 -0.1738 -0.4644  0.0739
16646TIP3    H171353   2.813   6.016   5.350 -0.7434  0.1868  2.0983
16646TIP3    H271354   2.892   6.137   5.394 -0.2840  0.8389 -0.4077
16647TIP3   OH271355   0.297   0.134   5.751  0.0131 -0.3308 -0.3575
16647TIP3    H171356   0.277   0.069   5.684  0.2697  0.4693 -1.2254
16647TIP3    H271357   0.362   0.092   5.807  0.7381 -0.5351 -1.3573
16648TIP3   OH271358   3.421   7.128   4.689 -0.2130  0.0919  0.1896
16648TIP3    H171359   3.383   7.081   4.763  1.1902 -0.7765  0.3778
16648TIP3    H271360   3.446   7.060   4.628  1.5175  0.6109  0.3011
16649TIP3   OH271361   0.382   6.609   2.243  0.3178 -0.2171 -0.1427
16649TIP3    H171362   0.298   6.643   2.274  0.0573  0.8983 -1.9990
16649TIP3    H271363   0.386   6.520   2.279 -3.4844 -1.7703 -3.1711
16650TIP3   OH271364   0.160   1.065   5.723  0.1958 -0.2295  0.8065
16650TIP3    H171365   0.147   1.106   5.637 -0.1663 -1.2175  0.3778
16650TIP3    H271366   0.193   0.977   5.702 -1.8920 -1.2334  1.6062
16651TIP3   OH271367   2.672   0.956   4.758  0.4229 -0.4525 -0.6886
16651TIP3    H171368   2.675   1.051   4.748 -1.1070 -0.3918 -0.7214
16651TIP3    H271369   2.691   0.941   4.851  2.6986 -0.2677 -1.0876
16652TIP3   OH271370   0.825   0.922   4.098  0.1238 -0.4808 -0.0869
16652TIP3    H171371   0.822   0.973   4.179  1.7818  1.4046 -1.1607
16652TIP3    H271372   0.891   0.854   4.115 -1.2224 -1.5508  0.9305
16653TIP3   OH271373   0.311   1.354   5.600 -0.2198  0.1825  0.0104
16653TIP3    H171374   0.364   1.275   5.605  0.9641  0.9037 -0.8407
16653TIP3    H271375   0.368   1.423   5.634 -1.0213  0.7705  0.1704
16654TIP3   OH271376   2.763   0.334   3.634 -0.0893 -0.7996  0.2862
16654TIP3    H171377   2.696   0.395   3.663 -0.0940 -0.9546  0.6034
16654TIP3    H271378   2.818   0.321   3.711  0.2347 -0.7638  0.0628
16655TIP3   OH271379   1.411   7.227   4.537 -0.3093 -0.0170  0.4373
16655TIP3    H171380   1.397   7.258   4.626 -1.0270 -0.4954  0.4962
16655TIP3    H271381   1.323   7.209   4.504 -0.0525  0.2312 -0.3942
16656TIP3   OH271382   0.489   6.862   4.752 -0.0050 -0.2562 -0.2100
16656TIP3    H171383   0.545   6.937   4.771  1.6958 -2.0687  2.2898
16656TIP3    H271384   0.410   6.877   4.804 -0.1679  0.3630 -0.6339
16657TIP3   OH271385   1.021   0.828   6.701  0.2524 -0.1273 -0.0967
16657TIP3    H171386   0.978   0.750   6.735 -0.7896  0.8050  0.7371
16657TIP3    H271387   1.042   0.880   6.778  0.7012  0.5416 -0.6587
16658TIP3   OH271388   0.282   1.788   2.587 -0.3933  0.1860  0.2370
16658TIP3    H171389   0.283   1.765   2.680 -0.5788  0.5746  0.3355
16658TIP3    H271390   0.198   1.832   2.574  0.6682  2.3351  0.4289
16659TIP3   OH271391   2.818   0.788   3.439 -0.1367  0.4998  0.4552
16659TIP3    H171392   2.800   0.882   3.443 -2.1116  0.2019 -0.8628
16659TIP3    H271393   2.836   0.770   3.347  0.7275 -0.3492  0.7709
16660TIP3   OH271394   1.732   0.509   3.046  0.0836 -0.0567 -0.6062
16660TIP3    H171395   1.700   0.580   2.990 -0.3602  1.0016  0.9767
16660TIP3    H271396   1.678   0.513   3.124  1.0140 -1.2295  0.1174
16661TIP3   OH271397   5.464   7.084   4.065  0.3341  0.0663  0.6147
16661TIP3    H171398   5.412   7.005   4.052  0.4895 -0.0740  0.8314
16661TIP3    H271399   5.554   7.057   4.047  0.1401  0.7313 -1.4643
16662TIP3   OH271400   6.591   1.678   6.153 -0.0812  0.2054 -0.3586
16662TIP3    H171401   6.598   1.762   6.107  0.1749 -0.9217 -2.4817
16662TIP3    H271402   6.679   1.641   6.149  0.3069  0.7399  2.4340
16663TIP3   OH271403   2.323   6.097   4.319 -0.4446  0.1459 -0.0435
16663TIP3    H171404   2.381   6.030   4.282  0.2287  1.2829 -1.0789
16663TIP3    H271405   2.281   6.054   4.393  0.0224 -1.4062 -0.6618
16664TIP3   OH271406   0.779   0.191   5.772  0.5673 -0.2867  0.3554
16664TIP3    H171407   0.711   0.223   5.832 -1.1042 -0.0347 -1.5987
16664TIP3    H271408   0.852   0.251   5.785 -0.5242  1.0011  0.7116
16665TIP3   OH271409   0.330   0.555   5.115  0.3153 -0.5325  0.3699
16665TIP3    H171410   0.275   0.490   5.159  0.9679 -1.0233  0.4684
16665TIP3    H271411   0.269   0.603   5.058 -0.6046  0.3672  2.0711
16666TIP3   OH271412   4.190   6.959   5.181 -0.0588 -0.4841 -0.6825
16666TIP3    H171413   4.149   7.032   5.135  0.8611  0.8923  0.6702
16666TIP3    H271414   4.201   6.892   5.113  1.2445  1.5080 -2.5037
16667TIP3   OH271415   3.241   7.007   5.298 -0.1843 -0.6975  0.0265
16667TIP3    H171416   3.216   7.096   5.322 -1.1338 -1.6387  2.8090
16667TIP3    H271417   3.161   6.967   5.265 -0.4834 -1.3327  1.4605
16668TIP3   OH271418   7.034   0.720   4.782 -0.1057  0.0938 -0.2812
16668TIP3    H171419   7.121   0.750   4.756 -0.6379  1.7686 -0.1831
16668TIP3    H271420   6.991   0.697   4.699 -0.5681  2.0562 -0.6152
16669TIP3   OH271421   1.468   1.657   3.596  0.1195  0.2501 -0.3808
16669TIP3    H171422   1.451   1.625   3.507  0.8924  0.1577 -0.5033
16669TIP3    H271423   1.417   1.738   3.602  0.5303  0.5790 -1.1330
16670TIP3   OH271424   0.630   1.144   5.980  0.4110  0.0813 -0.1748
16670TIP3    H171425   0.726   1.145   5.975  0.4061 -0.9248 -0.7132
16670TIP3    H271426   0.609   1.055   6.009 -0.4159 -0.0928 -1.2862
16671TIP3   OH271427   0.252   0.218   4.264  0.5028  0.5644  0.0674
16671TIP3    H171428   0.216   0.269   4.337  1.2919 -1.6537  2.0494
16671TIP3    H271429   0.345   0.213   4.282  0.1500 -3.5264  1.1857
16672TIP3   OH271430   6.933   2.091   5.624  0.8017 -0.3541 -0.0769
16672TIP3    H171431   7.015   2.062   5.664  1.5278  0.5695 -0.8962
16672TIP3    H271432   6.935   2.057   5.535  0.3375 -0.2296 -0.1406
16673TIP3   OH271433   2.178   1.491   5.500  0.5517 -0.1165  0.0777
16673TIP3    H171434   2.251   1.538   5.459  0.4877  0.3321  0.4573
16673TIP3    H271435   2.213   1.462   5.584  0.6409 -0.9024 -0.2353
16674TIP3   OH271436   0.569   3.271   3.603 -0.7785  0.3600 -0.1714
16674TIP3    H171437   0.493   3.328   3.602 -0.4506  0.8018 -0.1905
16674TIP3    H271438   0.644   3.331   3.608 -0.4605 -0.0928  0.6838
16675TIP3   OH271439   1.221   0.966   2.839 -0.8938 -0.5455 -1.0624
16675TIP3    H171440   1.134   0.944   2.873 -1.4844 -0.1132 -2.2335
16675TIP3    H271441   1.211   1.055   2.804  0.9173  0.8678  1.7921
16676TIP3   OH271442   0.807   1.327   1.815 -0.2789  0.3071  0.5220
16676TIP3    H171443   0.884   1.272   1.831  0.8194  1.8010  0.5444
16676TIP3    H271444   0.820   1.403   1.872 -0.5996  1.6709 -1.1893
16677TIP3   OH271445   0.853   3.296   4.488  0.0012 -0.2653 -0.0172
16677TIP3    H171446   0.822   3.206   4.489  0.1999 -0.3361 -0.0083
16677TIP3    H271447   0.926   3.297   4.551 -0.1952 -0.0293  0.2085
16678TIP3   OH271448   0.421   1.640   3.913 -0.2048  0.4305  0.4554
16678TIP3    H171449   0.492   1.628   3.850 -0.5143 -0.3232  0.2448
16678TIP3    H271450   0.348   1.590   3.876  0.1345 -1.4746  2.2817
16679TIP3   OH271451   0.792   1.819   5.453  0.0744 -0.6404 -0.1589
16679TIP3    H171452   0.751   1.873   5.520 -1.9998  0.8895 -2.5611
16679TIP3    H271453   0.740   1.738   5.452 -0.3660 -0.3545 -0.4314
16680TIP3   OH271454   6.817   6.238   4.314  0.2478  0.2794  0.4693
16680TIP3    H171455   6.736   6.195   4.286 -0.2279  1.4738 -0.0673
16680TIP3    H271456   6.850   6.280   4.234  2.3140 -1.5760  0.3020
16681TIP3   OH271457   0.930   0.486   5.239 -0.2942 -0.2166  0.1066
16681TIP3    H171458   0.993   0.480   5.167 -0.1491 -0.0304  0.2160
16681TIP3    H271459   0.941   0.405   5.288 -0.5253 -0.4265 -0.1886
16682TIP3   OH271460   1.867   0.187   3.924  0.0293  0.2642  0.5555
16682TIP3    H171461   1.802   0.257   3.918 -1.7189 -1.4236 -0.7610
16682TIP3    H271462   1.823   0.117   3.971  0.7324 -1.0814 -0.7597
16683TIP3   OH271463   0.548   2.055   3.515 -0.3808 -0.1639  0.1964
16683TIP3    H171464   0.589   2.115   3.578 -0.8815 -0.0157  0.3924
16683TIP3    H271465   0.603   1.977   3.516  0.8702  0.6935 -0.8342
16684TIP3   OH271466   6.108   1.506   1.685 -1.2161  0.4766  0.5409
16684TIP3    H171467   6.171   1.564   1.643 -0.3992 -0.6034  0.2504
16684TIP3    H271468   6.038   1.496   1.620  0.0883 -1.2651 -0.6657
16685TIP3   OH271469   2.075   0.864   3.739 -0.7416 -0.3411 -0.0675
16685TIP3    H171470   2.165   0.831   3.743 -1.0425 -1.4049 -1.7455
16685TIP3    H271471   2.062   0.907   3.824  1.1517 -0.6717  0.4163
16686TIP3   OH271472   7.198   1.769   4.978  0.1714 -0.9935 -0.2767
16686TIP3    H171473   7.248   1.849   4.995  0.3512 -1.0037 -0.7664
16686TIP3    H271474   7.250   1.699   5.019 -0.9464 -0.6230  1.8539
16687TIP3   OH271475   6.680   0.233   5.094  0.1112 -0.0927  0.4018
16687TIP3    H171476   6.591   0.260   5.117  0.1528 -0.0943  0.5650
16687TIP3    H271477   6.722   0.214   5.178  0.0930 -0.6300  0.2948
16688TIP3   OH271478   0.910   0.508   6.704 -1.0215 -0.4745 -0.4428
16688TIP3    H171479   0.825   0.479   6.670 -0.7512 -1.0583 -0.6216
16688TIP3    H271480   0.973   0.481   6.637 -0.7628  0.5018 -0.6000
16689TIP3   OH271481   2.315   0.062   4.116 -0.0359  0.1297  0.3807
16689TIP3    H171482   2.258   0.134   4.090 -3.2480 -2.4624 -0.1551
16689TIP3    H271483   2.377   0.054   4.044  0.1303  2.1032  0.2737
16690TIP3   OH271484   1.736   0.772   5.731  0.6711  0.1387  0.0680
16690TIP3    H171485   1.655   0.779   5.782  0.6967  1.2709 -0.0259
16690TIP3    H271486   1.707   0.759   5.641  0.6130 -0.6878  0.2018
16691TIP3   OH271487   4.125   4.890   3.073 -0.2431 -0.8459 -0.2561
16691TIP3    H171488   4.140   4.931   2.988  0.7521 -0.4720  0.0901
16691TIP3    H271489   4.212   4.862   3.102 -0.5703 -0.9822  0.6270
16692TIP3   OH271490   5.776   2.369   4.058  0.0678  0.0233  0.5492
16692TIP3    H171491   5.834   2.444   4.048 -0.2684  0.1266 -0.7418
16692TIP3    H271492   5.835   2.295   4.075  0.5703  0.1718 -0.5076
16693TIP3   OH271493   7.077   6.118   4.712 -0.1626  0.3438 -0.4712
16693TIP3    H171494   7.153   6.097   4.658  1.6575 -0.0034  2.1639
16693TIP3    H271495   7.107   6.188   4.769 -2.2373  1.0847 -0.2472
16694TIP3   OH271496   0.110   0.600   4.957  0.2915 -0.2553  0.1625
16694TIP3    H171497   0.041   0.665   4.976  0.5537 -0.9339  3.7332
16694TIP3    H271498   0.074   0.548   4.886 -2.0793  0.6368  0.6555
16695TIP3   OH271499   0.616   7.087   4.816 -0.7314  0.2320 -0.0073
16695TIP3    H171500   0.577   7.160   4.767 -2.3816 -1.9538 -2.0488
16695TIP3    H271501   0.705   7.080   4.782 -0.7060  1.0046 -0.1126
16696TIP3   OH271502   6.945   5.800   5.387  0.4117  0.5947  0.0422
16696TIP3    H171503   6.890   5.734   5.346  2.2454 -0.1479 -1.2957
16696TIP3    H271504   6.950   5.871   5.324 -0.1169  1.2469  0.7320
16697TIP3   OH271505   0.218   6.642   6.157 -0.8590  0.0708  0.4957
16697TIP3    H171506   0.300   6.617   6.114 -1.9355  0.1588 -1.7013
16697TIP3    H271507   0.214   6.737   6.146 -0.9921  0.1428  1.1253
16698TIP3   OH271508   0.547   0.921   3.307 -0.2532  0.5254  0.0784
16698TIP3    H171509   0.562   0.967   3.225 -0.5014  0.0404 -0.2426
16698TIP3    H271510   0.509   0.837   3.281  0.3207  0.0810  0.6449
16699TIP3   OH271511   6.107   6.987   2.673  0.1609  0.0062  0.0754
16699TIP3    H171512   6.088   7.062   2.617  1.2887 -0.4903 -0.9957
16699TIP3    H271513   6.040   6.990   2.741  0.0002  1.8025 -0.1384
16700TIP3   OH271514   3.388   1.993   5.429 -0.1733  0.3396  0.0531
16700TIP3    H171515   3.389   2.026   5.519 -1.8680 -0.2023  0.2837
16700TIP3    H271516   3.343   1.908   5.435  0.9723 -0.3774 -1.0829
16701TIP3   OH271517   0.153   0.950   6.252 -0.6790  0.6658 -0.2063
16701TIP3    H171518   0.223   0.992   6.201  0.9340 -1.2943  0.3306
16701TIP3    H271519   0.180   0.960   6.343  0.5466 -2.8480 -0.1311
16702TIP3   OH271520   5.620   5.300   3.525  0.1597 -0.2379 -0.0102
16702TIP3    H171521   5.567   5.367   3.481  0.3177  1.1417  1.8611
16702TIP3    H271522   5.565   5.268   3.596  0.0168 -2.2718 -0.9730
16703TIP3   OH271523   7.037   1.463   5.634 -0.7267 -0.4248 -0.2599
16703TIP3    H171524   6.972   1.393   5.632 -2.1765  0.7535  2.2895
16703TIP3    H271525   6.994   1.536   5.589 -0.3620 -0.2871 -0.3820
16704TIP3   OH271526   1.328   1.172   3.115 -0.4949  0.4349  0.1785
16704TIP3    H171527   1.323   1.203   3.025  0.2940 -0.7521 -0.2855
16704TIP3    H271528   1.238   1.150   3.138 -0.5785 -0.0603 -0.6141
16705TIP3   OH271529   6.570   1.295   3.822 -0.6490  0.0392  0.1734
16705TIP3    H171530   6.606   1.306   3.910  0.1776 -2.0547  0.1353
16705TIP3    H271531   6.628   1.345   3.765 -0.8329  0.9053  0.7438
16706TIP3   OH271532   1.407   0.419   4.325 -0.2522  0.4692  0.2283
16706TIP3    H171533   1.414   0.513   4.343 -0.0184  0.6250 -0.6995
16706TIP3    H271534   1.497   0.387   4.325 -0.3052  0.3191  0.0887
16707TIP3   OH271535   2.592   6.601   3.590 -0.5411  0.3350  0.3047
16707TIP3    H171536   2.592   6.505   3.593  3.4635  0.2191 -0.7048
16707TIP3    H271537   2.568   6.622   3.499 -1.1161  0.2929  0.4453
16708TIP3   OH271538   1.187   7.153   5.594 -0.3623 -0.1171  0.2809
16708TIP3    H171539   1.207   7.067   5.631 -0.3798 -1.2196 -2.1877
16708TIP3    H271540   1.114   7.185   5.648  1.4921 -0.3658  3.0222
16709TIP3   OH271541   0.120   0.854   3.711 -0.5035 -0.5941  0.0270
16709TIP3    H171542   0.121   0.773   3.660 -0.0090 -0.2048 -0.5833
16709TIP3    H271543   0.212   0.879   3.717 -0.5877 -0.4626  0.8399
16710TIP3   OH271544   1.575   6.381   4.298 -0.1238 -0.3212  0.0764
16710TIP3    H171545   1.620   6.465   4.297 -0.1837 -0.2947 -0.9795
16710TIP3    H271546   1.502   6.392   4.238 -0.3352 -1.0181  0.1966
16711TIP3   OH271547   6.694   0.760   4.957 -0.3287 -0.3481  0.5205
16711TIP3    H171548   6.751   0.694   4.917  0.1709  0.4321 -0.0738
16711TIP3    H271549   6.724   0.843   4.920 -0.7519  0.2490  1.4868
16712TIP3   OH271550   0.295   0.824   2.335  0.1797  0.3914 -0.3193
16712TIP3    H171551   0.335   0.738   2.322 -0.3051  0.3267 -1.5039
16712TIP3    H271552   0.303   0.841   2.429  1.6420 -0.2695 -0.3165
16713TIP3   OH271553   2.878   1.222   4.874 -0.0147  0.1581 -0.0560
16713TIP3    H171554   2.908   1.299   4.923 -1.0099 -0.3964  1.4569
16713TIP3    H271555   2.846   1.257   4.791  1.9105  1.0938 -0.4348
16714TIP3   OH271556   2.383   0.935   4.677 -0.4893  0.7320 -0.1155
16714TIP3    H171557   2.314   0.970   4.733  1.1741  3.0083  0.5922
16714TIP3    H271558   2.449   1.004   4.674  0.1740  0.0390 -3.6612
16715TIP3   OH271559   0.931   2.190   1.973 -0.2980  0.1653  0.2073
16715TIP3    H171560   0.916   2.116   2.033 -0.8952  1.2188  1.3856
16715TIP3    H271561   0.919   2.268   2.028 -1.1269  1.1665 -1.3630
16716TIP3   OH271562   2.501   7.197   3.117  0.2340  0.1727 -0.3905
16716TIP3    H171563   2.551   7.279   3.116 -0.4621  0.6213  0.6767
16716TIP3    H271564   2.555   7.136   3.068  2.2617  0.4161  1.4656
16717TIP3   OH271565   5.100   2.239   3.047  0.2364  0.1857 -0.1718
16717TIP3    H171566   5.088   2.246   3.142 -0.5282  1.8045 -0.3755
16717TIP3    H271567   5.189   2.268   3.032  1.1194 -2.1499  0.2535
16718TIP3   OH271568   1.198   1.046   4.876 -0.2525  0.4038  0.0722
16718TIP3    H171569   1.242   1.030   4.793  0.3031 -0.0238  0.4457
16718TIP3    H271570   1.177   0.959   4.909  0.1312  0.5547  0.7047
16719TIP3   OH271571   1.534   1.590   5.307  0.4064  1.2511  0.3941
16719TIP3    H171572   1.516   1.496   5.299  0.9089  1.1010  0.9978
16719TIP3    H271573   1.614   1.604   5.256  0.6398  1.2459  0.7517
16720TIP3   OH271574   5.404   1.055   4.307 -0.6005 -0.2278 -0.0294
16720TIP3    H171575   5.409   0.962   4.286 -0.6918 -0.6802  1.8731
16720TIP3    H271576   5.353   1.059   4.387 -0.2307  1.4334  0.1443
16721TIP3   OH271577   6.450   1.838   4.650 -0.4203 -0.0620 -0.0580
16721TIP3    H171578   6.419   1.752   4.680 -0.3592  0.3450  1.1877
16721TIP3    H271579   6.524   1.818   4.594 -0.7635 -0.8579 -0.2413
16722TIP3   OH271580   3.079   0.434   5.194  0.0923 -0.1604  0.5522
16722TIP3    H171581   3.153   0.484   5.159  0.5609  0.6280  2.6196
16722TIP3    H271582   3.002   0.487   5.174  0.2377 -0.2053 -0.1499
16723TIP3   OH271583   1.088   2.560   4.757  0.0386  0.0089 -0.7030
16723TIP3    H171584   1.042   2.494   4.809 -0.6888  1.7376  0.9619
16723TIP3    H271585   1.018   2.613   4.718  0.5931  0.8835 -0.5367
16724TIP3   OH271586   1.650   2.417   5.720  0.4877  0.8334  0.7178
16724TIP3    H171587   1.653   2.362   5.642  0.9202 -1.3853  2.2521
16724TIP3    H271588   1.563   2.457   5.717  1.0029  1.8643 -1.5871
16725TIP3   OH271589   7.112   1.733   3.488 -0.5738  0.7546  0.0857
16725TIP3    H171590   7.046   1.798   3.465 -1.2809 -0.4296 -1.2281
16725TIP3    H271591   7.066   1.650   3.490  0.3251  0.2663  1.7994
16726TIP3   OH271592   0.903   1.097   4.316  0.2494  0.6627  0.0244
16726TIP3    H171593   0.882   1.022   4.372 -1.2690  1.2350  0.2654
16726TIP3    H271594   0.867   1.173   4.364  0.3343  1.3397 -0.9708
16727TIP3   OH271595   2.942   3.213   4.880 -0.0482  0.2375 -0.0152
16727TIP3    H171596   2.854   3.177   4.887 -0.3600  0.7334 -1.1543
16727TIP3    H271597   2.999   3.145   4.916 -0.7664 -0.7364 -0.6870
16728TIP3   OH271598   7.252   5.388   4.997  0.2765 -0.1636  0.2798
16728TIP3    H171599   7.315   5.360   5.064 -0.8754  0.5133  1.6829
16728TIP3    H271600   7.171   5.402   5.045 -0.4469  0.8256 -1.1915
16729TIP3   OH271601   2.329   0.673   2.977  0.8725 -0.0067 -0.1655
16729TIP3    H171602   2.294   0.603   3.033  2.2988  0.6581  1.5944
16729TIP3    H271603   2.369   0.627   2.904  1.0242 -1.0064  0.5346
16730TIP3   OH271604   1.561   0.848   2.942 -0.1964 -0.3033 -0.3303
16730TIP3    H171605   1.637   0.814   2.895 -0.4750  0.3742 -1.2900
16730TIP3    H271606   1.596   0.871   3.029  1.3757  2.5358 -1.6081
16731TIP3   OH271607   2.038   1.091   3.018 -0.1518  0.3932 -0.2023
16731TIP3    H171608   2.039   1.187   3.024  2.6388  0.2988  1.9956
16731TIP3    H271609   2.101   1.072   2.949  1.9898  0.0851  1.7800
16732TIP3   OH271610   0.783   0.965   1.147 -0.3075 -0.3039  0.3093
16732TIP3    H171611   0.803   0.872   1.130  1.3810 -0.1279  1.1519
16732TIP3    H271612   0.829   1.012   1.077 -1.5686 -0.1303 -0.4013
16733TIP3   OH271613   6.006   1.652   4.387 -0.2953 -0.2620  0.1872
16733TIP3    H171614   5.984   1.701   4.307  1.0682  1.0237  0.5799
16733TIP3    H271615   5.926   1.656   4.440 -0.4051  1.0645 -0.0417
16734TIP3   OH271616   7.291   6.619   3.334  0.0446 -0.4762 -0.1074
16734TIP3    H171617   7.202   6.613   3.298  0.0948  2.0115 -0.7666
16734TIP3    H271618   7.306   6.713   3.344  2.4715 -0.8789  0.3564
16735TIP3   OH271619   1.647   6.620   3.316 -0.6401 -0.3456  0.3665
16735TIP3    H171620   1.717   6.588   3.373 -0.7488  0.6696  1.0697
16735TIP3    H271621   1.616   6.700   3.357 -0.5756  0.5310 -1.2412
16736TIP3   OH271622   0.983   3.204   5.207 -0.6654 -0.1406 -0.6403
16736TIP3    H171623   0.909   3.203   5.268 -0.6902  1.3633 -0.6365
16736TIP3    H271624   1.060   3.209   5.263 -0.3561 -4.2992 -0.5173
16737TIP3   OH271625   0.435   0.133   1.344 -0.4808  0.4646 -0.7443
16737TIP3    H171626   0.527   0.137   1.370 -0.4309  1.7276 -1.0913
16737TIP3    H271627   0.408   0.224   1.337 -1.7349  0.1003 -0.7529
16738TIP3   OH271628   2.418   0.877   3.328  0.3891  0.1073 -0.1252
16738TIP3    H171629   2.429   0.905   3.237 -0.0460  0.6344 -0.0176
16738TIP3    H271630   2.413   0.958   3.378 -2.7608 -0.0685 -0.0207
16739TIP3   OH271631   3.135   7.160   3.436  0.4357 -0.3097  1.2040
16739TIP3    H171632   3.182   7.101   3.376  0.1918  1.0849 -0.4085
16739TIP3    H271633   3.198   7.231   3.453 -0.2950  0.4542  0.7651
16740TIP3   OH271634   7.002   2.848   4.332  0.3497 -0.4949 -0.3652
16740TIP3    H171635   7.028   2.851   4.240  0.7371 -0.3883 -0.2550
16740TIP3    H271636   6.939   2.920   4.342 -1.7336 -2.1526 -1.1484
16741TIP3   OH271637   1.377   1.427   4.595  0.1185 -0.2739 -0.5471
16741TIP3    H171638   1.306   1.488   4.573  1.2727  1.0346 -0.7854
16741TIP3    H271639   1.376   1.422   4.690  0.3417  0.5491 -0.4950
16742TIP3   OH271640   0.829   1.629   4.618  0.7410  0.2295  0.3120
16742TIP3    H171641   0.762   1.696   4.602  1.2678  0.6918  0.0050
16742TIP3    H271642   0.905   1.679   4.651  0.7040 -0.3659  1.3188
16743TIP3   OH271643   1.273   2.077   5.083 -0.7464  0.2579  0.0637
16743TIP3    H171644   1.361   2.110   5.101  0.4443 -2.5539 -0.4218
16743TIP3    H271645   1.248   2.118   5.000  0.2307  0.7758  0.0198
16744TIP3   OH271646   1.660   5.355   2.569 -0.4231  1.0293  0.2666
16744TIP3    H171647   1.616   5.407   2.503 -2.8548 -1.4797 -0.2014
16744TIP3    H271648   1.718   5.296   2.520 -1.8104 -0.4498  0.3534
16745TIP3   OH271649   0.223   4.787   3.169 -0.0569  0.1329  0.7123
16745TIP3    H171650   0.198   4.781   3.261 -0.9110 -0.8991  0.4218
16745TIP3    H271651   0.212   4.698   3.135  2.5679 -0.0213  0.1888
16746TIP3   OH271652   2.249   1.611   4.843 -0.2472 -0.2486  0.2175
16746TIP3    H171653   2.315   1.637   4.907 -0.2600 -0.2540  0.2333
16746TIP3    H271654   2.264   1.669   4.768  1.6052 -2.1692 -0.9175
16747TIP3   OH271655   1.007   0.427   3.713  1.1278 -0.5830 -0.3920
16747TIP3    H171656   0.977   0.465   3.795  0.2163  0.2399 -1.0816
16747TIP3    H271657   0.935   0.369   3.685  1.9306 -1.7711 -0.0284
16748TIP3   OH271658   0.406   0.866   3.773 -0.2497 -0.0440 -0.4684
16748TIP3    H171659   0.472   0.931   3.795  0.1700 -0.5579 -0.1808
16748TIP3    H271660   0.455   0.797   3.727 -0.4681 -0.6935  0.2443
16749TIP3   OH271661   6.417   1.098   4.113 -0.1763 -0.2258 -0.1834
16749TIP3    H171662   6.505   1.094   4.149 -0.1743  1.5634  0.0554
16749TIP3    H271663   6.359   1.092   4.189 -0.2923 -2.5135 -0.4381
16750TIP3   OH271664   0.525   2.736   4.846 -0.1800 -0.5094 -0.1784
16750TIP3    H171665   0.609   2.690   4.840  0.0363 -0.4879  2.3058
16750TIP3    H271666   0.481   2.717   4.763  1.4421 -2.1495 -0.6873
16751TIP3   OH271667   1.706   0.316   5.444  0.3948 -0.5007 -0.0965
16751TIP3    H171668   1.713   0.295   5.351  1.2473  0.4668 -0.2575
16751TIP3    H271669   1.619   0.355   5.453  0.5771  0.0362 -0.6146
16752TIP3   OH271670   6.985   2.750   1.234 -0.0332 -0.0805  0.4767
16752TIP3    H171671   6.892   2.729   1.244  0.4491 -2.5486  0.0085
16752TIP3    H271672   6.989   2.807   1.158 -0.9490 -1.6844 -0.7915
16753TIP3   OH271673   0.096   1.318   5.863 -1.4929 -0.6127  0.4125
16753TIP3    H171674   0.073   1.322   5.770 -1.9298  0.0706  0.5531
16753TIP3    H271675   0.017   1.345   5.909 -1.1413 -0.5342  0.9735
16754TIP3   OH271676   6.480   1.264   5.316  0.2907  0.1726 -0.0241
16754TIP3    H171677   6.553   1.223   5.363 -1.7468 -1.9033  1.4290
16754TIP3    H271678   6.461   1.203   5.244 -2.6176 -1.4969  2.0240
16755TIP3   OH271679   1.542   2.067   5.625  0.4615 -0.1379 -0.5055
16755TIP3    H171680   1.504   2.022   5.550 -1.1319  0.9441 -0.3772
16755TIP3    H271681   1.580   2.147   5.588 -0.8765  0.7009 -0.0817
16756TIP3   OH271682   0.410   6.927   5.279  0.2944  0.2135  0.0451
16756TIP3    H171683   0.448   6.992   5.219 -0.0193 -0.2740 -0.6985
16756TIP3    H271684   0.484   6.874   5.307  0.3214 -0.1306 -0.6473
16757TIP3   OH271685   2.102   0.441   2.692  0.0949  0.0158  0.0493
16757TIP3    H171686   2.064   0.518   2.733  0.2928 -0.2681  0.7748
16757TIP3    H271687   2.129   0.386   2.765 -0.6323 -1.0320 -0.4616
16758TIP3   OH271688   0.072   2.807   4.701  0.7461  0.1439  0.6497
16758TIP3    H171689   0.028   2.850   4.628  0.6398 -1.1958 -0.0889
16758TIP3    H271690   0.154   2.776   4.665  1.2343  0.5168  1.4152
16759TIP3   OH271691   1.066   0.184   2.008  0.4825 -0.4238 -0.2571
16759TIP3    H171692   0.989   0.228   2.043 -0.6773 -1.1978 -1.8033
16759TIP3    H271693   1.070   0.211   1.916  1.8276 -0.6928 -0.2854
16760TIP3   OH271694   0.492   1.157   5.657  0.0648  0.0635 -0.5299
16760TIP3    H171695   0.455   1.187   5.740 -2.4947 -3.0643 -0.4651
16760TIP3    H271696   0.500   1.062   5.666 -0.5961 -0.4038 -3.9481
16761TIP3   OH271697   2.158   6.579   5.737 -0.4396 -0.5980  0.0601
16761TIP3    H171698   2.101   6.597   5.662  1.0196  1.2488 -0.6445
16761TIP3    H271699   2.247   6.586   5.702  0.2698 -2.5476  1.3383
16762TIP3   OH271700   1.472   0.819   3.625 -0.3170 -0.1652 -0.3838
16762TIP3    H171701   1.554   0.830   3.577  0.5707  0.1211  1.1470
16762TIP3    H271702   1.412   0.882   3.586  0.4999  0.3384 -0.8386
16763TIP3   OH271703   2.757   3.167   3.445 -0.5857 -0.0255 -0.9167
16763TIP3    H171704   2.820   3.115   3.396  0.0293  1.0025 -1.2429
16763TIP3    H271705   2.810   3.212   3.512 -0.8451  1.3881 -1.6310
16764TIP3   OH271706   7.240   5.902   5.092 -0.1066 -0.2400  0.5590
16764TIP3    H171707   7.320   5.888   5.042  0.2527 -1.3812  1.4353
16764TIP3    H271708   7.225   5.997   5.088  0.2930 -0.2261 -1.1054
16765TIP3   OH271709   1.106   7.038   4.159 -0.1200  0.6245  0.2761
16765TIP3    H171710   1.159   7.063   4.084  0.2219  2.1337  0.9971
16765TIP3    H271711   1.016   7.044   4.128  0.0509  0.2604 -0.2976
16766TIP3   OH271712   6.442   0.682   5.077 -0.5971 -0.2104  0.7091
16766TIP3    H171713   6.443   0.697   5.171  0.3696 -2.2154  1.0531
16766TIP3    H271714   6.523   0.721   5.046 -2.5893  3.6957  0.0990
16767TIP3   OH271715   0.955   0.673   6.224 -0.5558  0.5334 -0.3232
16767TIP3    H171716   0.882   0.734   6.212  0.2755  1.8571  1.2253
16767TIP3    H271717   1.003   0.707   6.300  2.2848  0.2532 -1.9304
16768TIP3   OH271718   0.407   1.735   5.286  0.9825  0.2224  0.1376
16768TIP3    H171719   0.359   1.810   5.321  0.6890 -0.4731  1.2573
16768TIP3    H271720   0.365   1.718   5.202  0.2429  0.5600  0.4271
16769TIP3   OH271721   6.798   0.929   3.317  0.6343 -0.1228  0.4462
16769TIP3    H171722   6.892   0.909   3.312  0.3118 -1.6500  0.2657
16769TIP3    H271723   6.789   1.011   3.268  1.5722 -1.0524 -1.3801
16770TIP3   OH271724   5.954   5.637   4.422 -0.2545  0.0347  0.2818
16770TIP3    H171725   6.024   5.674   4.476  0.0487  1.1706 -0.8609
16770TIP3    H271726   5.941   5.702   4.353 -0.9092 -1.2066 -0.7763
16771TIP3   OH271727   1.583   0.679   4.918  0.1295  0.2328  0.1356
16771TIP3    H171728   1.655   0.618   4.935 -0.0782  0.1944  0.8722
16771TIP3    H271729   1.601   0.712   4.830  2.3671  2.0602  1.2302
16772TIP3   OH271730   2.258   1.602   4.243 -0.4146  0.0214 -0.1392
16772TIP3    H171731   2.179   1.653   4.261 -0.4023 -0.1549  0.4155
16772TIP3    H271732   2.329   1.667   4.242 -0.0500 -0.2694  2.9591
16773TIP3   OH271733   1.259   0.504   6.204 -0.1688  0.0752 -0.0964
16773TIP3    H171734   1.287   0.542   6.286  0.6300  1.5536 -1.0345
16773TIP3    H271735   1.163   0.500   6.211 -0.1407  0.7206  0.6691
16774TIP3   OH271736   0.237   1.228   6.154 -0.5093 -0.7587 -0.0386
16774TIP3    H171737   0.193   1.309   6.179 -0.5188 -0.4991 -0.8815
16774TIP3    H271738   0.321   1.232   6.199 -0.7661 -0.5692  0.4205
16775TIP3   OH271739   1.078   0.293   5.893  0.1608 -0.1330  0.0332
16775TIP3    H171740   1.102   0.242   5.970  1.0209 -0.2275 -0.2971
16775TIP3    H271741   1.146   0.274   5.829 -0.2783  0.3375 -0.5800
16776TIP3   OH271742   1.552   1.574   2.435  0.3482  0.3211  0.1253
16776TIP3    H171743   1.617   1.644   2.435  0.1732  0.4864  0.4352
16776TIP3    H271744   1.557   1.536   2.348 -1.1299  2.2010 -0.8118
16777TIP3   OH271745   0.457   1.136   1.639 -0.1358  0.2568  0.3068
16777TIP3    H171746   0.387   1.103   1.694 -0.8510 -1.0903 -1.3445
16777TIP3    H271747   0.508   1.058   1.616  0.8581  0.9657  0.0635
16778TIP3   OH271748   1.168   1.898   4.905 -0.0642  0.4408 -0.1064
16778TIP3    H171749   1.208   1.947   4.977 -1.0432  1.5276 -0.2866
16778TIP3    H271750   1.078   1.930   4.902 -0.9712 -2.0018  0.3240
16779TIP3   OH271751   6.176   1.832   4.755 -0.6339  0.2196 -0.0522
16779TIP3    H171752   6.225   1.750   4.754 -0.0900  0.5545 -1.7024
16779TIP3    H271753   6.129   1.830   4.838  1.0112 -0.8002  0.8946
16780TIP3   OH271754   2.469   2.312   4.626  0.1381 -0.2206 -0.5017
16780TIP3    H171755   2.528   2.366   4.678  1.6952 -1.6575 -0.7551
16780TIP3    H271756   2.412   2.375   4.582  0.3309  1.1053  1.0993
16781TIP3   OH271757   1.226   1.465   5.443 -0.3088 -0.0745 -0.0597
16781TIP3    H171758   1.310   1.470   5.397  0.1146 -1.7409  0.4907
16781TIP3    H271759   1.184   1.549   5.425  1.1528  0.4900 -0.9627
16782TIP3   OH271760   1.468   1.186   6.202 -0.1308 -0.0576  0.0132
16782TIP3    H171761   1.431   1.171   6.289  0.3903  0.5244  0.3406
16782TIP3    H271762   1.460   1.281   6.189  0.6132 -0.0193 -0.1938
16783TIP3   OH271763   0.921   0.121   0.293  0.0317  0.0907  0.3332
16783TIP3    H171764   0.948   0.192   0.234  0.7877 -0.1250  0.4058
16783TIP3    H271765   0.980   0.048   0.271 -0.3840 -0.3411  0.6285
16784TIP3   OH271766   0.862   0.702   4.838 -0.2959 -0.7613  0.2111
16784TIP3    H171767   0.946   0.701   4.884 -0.6736 -2.2472  0.8876
16784TIP3    H271768   0.799   0.735   4.902 -0.4395 -0.7271  0.0553
16785TIP3   OH271769   1.431   0.008   5.500  0.1191  0.9079  0.0035
16785TIP3    H171770   1.457  -0.024   5.413  0.4969  0.2155  0.3616
16785TIP3    H271771   1.340  -0.020   5.510  0.2707  0.4394  0.0818
16786TIP3   OH271772   3.468   0.793   4.113  0.5609 -0.1678 -0.5237
16786TIP3    H171773   3.378   0.761   4.110 -0.1234  1.6705  0.1594
16786TIP3    H271774   3.460   0.888   4.116  2.4748 -0.0275  0.9620
16787TIP3   OH271775   1.369   7.189   4.171 -0.4921  0.4925  0.1227
16787TIP3    H171776   1.364   7.276   4.212  1.8463  0.1950  1.0840
16787TIP3    H271777   1.435   7.142   4.221  0.2878 -0.8989 -2.1374
16788TIP3   OH271778   1.131   1.486   2.308 -0.4224  0.0693  0.2607
16788TIP3    H171779   1.085   1.415   2.264 -0.3035  0.4091 -0.4224
16788TIP3    H271780   1.108   1.476   2.400  0.0201 -1.1822  0.2482
16789TIP3   OH271781   0.892   2.393   4.875  0.3259  0.5858  0.5078
16789TIP3    H171782   0.932   2.435   4.951  1.1668 -0.7579  0.8434
16789TIP3    H271783   0.883   2.301   4.901 -0.1565  0.2815 -0.7008
16790TIP3   OH271784   0.380   1.288   4.874 -0.4243  0.2969  0.0674
16790TIP3    H171785   0.392   1.247   4.960  2.3009  1.7440  0.4359
16790TIP3    H271786   0.461   1.336   4.859 -2.1040  2.6361 -1.9444
16791TIP3   OH271787   1.706   1.795   3.924 -0.0682 -0.0019  0.3853
16791TIP3    H171788   1.740   1.758   3.842  0.6212  3.2888 -0.8878
16791TIP3    H271789   1.612   1.801   3.909  0.1623  1.4355 -0.5358
16792TIP3   OH271790   1.947   0.694   5.186 -0.2148  0.4629 -0.6663
16792TIP3    H171791   1.934   0.774   5.237 -1.9916 -0.2642  0.0510
16792TIP3    H271792   2.042   0.686   5.178  0.0138  1.9551  0.3364
16793TIP3   OH271793   1.398   7.276   1.122 -0.4329  0.1917  0.3476
16793TIP3    H171794   1.373   7.313   1.207  0.1618 -1.1268  1.1168
16793TIP3    H271795   1.452   7.200   1.144 -0.2895 -0.1797 -1.2192
16794TIP3   OH271796   4.090   0.936   3.974 -0.1843 -0.1736 -0.1384
16794TIP3    H171797   4.081   1.000   3.903 -0.8041 -3.4166 -3.1251
16794TIP3    H271798   4.009   0.944   4.025 -1.1952 -0.0340 -1.7390
16795TIP3   OH271799   2.571   5.829   4.355 -0.0990 -0.0967  0.0942
16795TIP3    H171800   2.609   5.901   4.406  0.4104 -0.9866  0.9883
16795TIP3    H271801   2.492   5.805   4.403  1.5982 -2.4909  1.8186
16796TIP3   OH271802   7.196   6.369   3.672 -0.4621 -0.2984 -0.9664
16796TIP3    H171803   7.259   6.316   3.721 -1.0439 -1.0577 -1.0198
16796TIP3    H271804   7.238   6.454   3.663  0.1154 -0.4809 -0.1020
16797TIP3   OH271805   7.182   0.102   4.032  0.6767 -0.0726 -0.3940
16797TIP3    H171806   7.148   0.188   4.008  1.8241  0.2626 -0.8890
16797TIP3    H271807   7.151   0.087   4.120 -0.7518  0.2165 -0.8407
16798TIP3   OH271808   1.977   0.384   6.177 -0.3718 -0.4766 -0.1866
16798TIP3    H171809   1.921   0.383   6.254 -1.8252  0.9961 -1.1891
16798TIP3    H271810   1.931   0.328   6.113  0.7968 -1.6547 -0.0264
16799TIP3   OH271811   6.979   7.208   3.368 -0.6172  0.2254  0.6709
16799TIP3    H171812   6.927   7.253   3.302  0.7695  0.3723 -0.3411
16799TIP3    H271813   6.939   7.232   3.452 -2.8386 -0.5576 -0.1504
16800TIP3   OH271814   5.943   5.641   2.975  0.3314 -0.1797  0.4228
16800TIP3    H171815   5.909   5.716   2.926 -0.0190  1.2027  2.7014
16800TIP3    H271816   6.036   5.660   2.986  0.3969 -0.4560  0.3432
16801TIP3   OH271817   1.031   7.223   3.609  0.1246 -0.8752 -0.5521
16801TIP3    H171818   0.983   7.154   3.564 -1.3141  0.5826 -1.3224
16801TIP3    H271819   1.045   7.290   3.542  1.2176 -0.2639  0.2598
16802TIP3   OH271820   3.536   0.481   5.324  0.1472 -0.2342  0.0643
16802TIP3    H171821   3.473   0.422   5.364  1.6047 -1.5829  0.4396
16802TIP3    H271822   3.585   0.517   5.398  1.8929 -1.6323 -0.3699
16803TIP3   OH271823   2.051   0.147   4.798  1.0791  0.4888  0.0708
16803TIP3    H171824   2.115   0.077   4.786  0.7395  0.2231 -0.1977
16803TIP3    H271825   2.104   0.226   4.810  1.4602  0.2182  0.1898
16804TIP3   OH271826   0.121   1.087   3.157  0.7745 -0.2673  0.2513
16804TIP3    H171827   0.155   1.038   3.232  1.9432 -0.2395 -0.2450
16804TIP3    H271828   0.027   1.069   3.157  1.0387 -1.6879  0.6709
16805TIP3   OH271829   2.046   6.779   4.324 -0.2761 -0.1973  0.1034
16805TIP3    H171830   2.099   6.701   4.342 -0.7807 -0.5683  0.0075
16805TIP3    H271831   2.029   6.817   4.410 -0.9579 -0.8187  0.2500
16806TIP3   OH271832   6.250   6.896   5.361  0.0885  0.0966 -0.3014
16806TIP3    H171833   6.259   6.811   5.403 -1.6468  0.8710  1.7469
16806TIP3    H271834   6.327   6.904   5.306  1.0793 -2.1182  0.6992
16807TIP3   OH271835   0.510   2.031   4.601 -0.6513 -0.4020  0.0540
16807TIP3    H171836   0.497   2.064   4.690  0.8698 -2.1680  0.9770
16807TIP3    H271837   0.544   2.106   4.553  0.6316  0.0009  1.5376
16808TIP3   OH271838   7.019   6.814   6.327  0.5327 -0.3657  0.2865
16808TIP3    H171839   7.058   6.894   6.361 -0.0057  0.8704 -1.9422
16808TIP3    H271840   7.085   6.779   6.267  0.6753 -1.5061  1.0795
16809TIP3   OH271841   2.792   0.138   3.449  0.2660 -0.1804 -0.2996
16809TIP3    H171842   2.786   0.227   3.483 -2.5789  0.0261 -1.2379
16809TIP3    H271843   2.783   0.082   3.527  0.6040  0.3291  0.1060
16810TIP3   OH271844   2.150   2.574   5.250  0.1400 -0.2015 -0.7136
16810TIP3    H171845   2.157   2.599   5.342 -1.4751  0.0182 -0.6299
16810TIP3    H271846   2.115   2.485   5.252  0.4938 -0.3482 -1.1020
16811TIP3   OH271847   3.547   6.600   4.916 -0.0496 -0.0368 -0.3189
16811TIP3    H171848   3.603   6.543   4.969  0.0664 -0.1058 -0.5152
16811TIP3    H271849   3.489   6.643   4.979 -1.2572 -1.6170 -0.3114
16812TIP3   OH271850   1.120   3.656   5.609 -0.1191  0.2180  0.7179
16812TIP3    H171851   1.100   3.721   5.677 -0.1668 -0.1449  1.0483
16812TIP3    H271852   1.043   3.599   5.606  0.2458 -0.2919  0.9690
16813TIP3   OH271853   0.030   1.003   6.013  0.4526  0.0887 -0.0969
16813TIP3    H171854  -0.017   0.924   5.985 -3.5105  2.1212  0.4884
16813TIP3    H271855   0.065   0.981   6.099 -0.3212 -1.1290 -0.0811
16814TIP3   OH271856   1.978   0.832   5.572  0.0329  0.2656  0.2621
16814TIP3    H171857   2.029   0.751   5.568  0.8281  0.7188  0.9529
16814TIP3    H271858   1.887   0.803   5.580  0.1946 -0.5539 -0.7941
16815TIP3   OH271859   1.627   1.629   4.706  0.2835  0.1153 -0.3126
16815TIP3    H171860   1.659   1.698   4.765  0.6741 -0.1303 -0.2370
16815TIP3    H271861   1.532   1.630   4.718  0.2714  0.7404 -0.4196
16816TIP3   OH271862   0.527   1.349   1.776 -0.5802 -0.8969  0.5527
16816TIP3    H171863   0.620   1.361   1.759 -0.9385  1.9369  0.3017
16816TIP3    H271864   0.498   1.284   1.712  0.8445 -0.4215 -0.5932
16817TIP3   OH271865   0.382   0.745   4.492 -0.2922 -0.2751 -0.6172
16817TIP3    H171866   0.287   0.739   4.489 -0.2964  0.4210 -3.5131
16817TIP3    H271867   0.412   0.703   4.411  1.7935  0.2621 -0.1677
16818TIP3   OH271868   7.098   0.640   4.349 -0.1259  0.2530  0.6789
16818TIP3    H171869   7.106   0.546   4.368 -1.8588 -0.3063 -1.1730
16818TIP3    H271870   7.188   0.672   4.354  0.8876 -2.0592 -1.1985
16819TIP3   OH271871   0.699   1.776   3.497 -0.3872 -0.1606 -0.0153
16819TIP3    H171872   0.789   1.756   3.474  0.2116  2.2605  0.0677
16819TIP3    H271873   0.671   1.703   3.553  1.3900 -1.1012 -0.3404
16820TIP3   OH271874   2.184   0.264   3.644  0.1915  0.3036 -0.3494
16820TIP3    H171875   2.126   0.191   3.666  1.9347 -1.4926 -1.5143
16820TIP3    H271876   2.264   0.246   3.694  0.4230  1.7509 -0.1800
16821TIP3   OH271877   1.220   1.088   3.499 -0.4689 -0.5949  0.0394
16821TIP3    H171878   1.182   1.018   3.445  0.2018  0.0089 -1.2369
16821TIP3    H271879   1.260   1.148   3.436 -0.1401  0.4094  1.1861
16822TIP3   OH271880   2.256   6.346   4.301 -0.4029 -0.1750 -0.2548
16822TIP3    H171881   2.291   6.258   4.299  0.1188  0.0089  0.5884
16822TIP3    H271882   2.234   6.366   4.209 -0.0157 -0.9646 -0.5183
16823TIP3   OH271883   4.392   7.017   4.459 -0.2498 -0.3941  0.0372
16823TIP3    H171884   4.307   6.991   4.423 -0.4627 -0.8836  0.8837
16823TIP3    H271885   4.376   7.028   4.553  0.5905 -0.3632  0.1797
16824TIP3   OH271886   5.773   7.175   4.187 -0.3399  0.0798 -0.1382
16824TIP3    H171887   5.725   7.135   4.260 -1.1619 -0.7237 -1.1067
16824TIP3    H271888   5.864   7.176   4.216 -0.3481 -2.2024  0.0615
16825TIP3   OH271889   5.103   7.136   3.230 -0.4437  0.3624  0.4807
16825TIP3    H171890   5.166   7.208   3.225  0.1853 -0.1520  0.9596
16825TIP3    H271891   5.041   7.153   3.159 -0.8819  1.9333  1.2318
16826TIP3   OH271892   0.962   5.866   0.878 -0.4125  0.2681 -1.1828
16826TIP3    H171893   1.039   5.904   0.920  1.1637 -3.4863 -0.5393
16826TIP3    H271894   0.889   5.890   0.935  0.8258  0.4550  0.3387
16827TIP3   OH271895   3.291   1.199   3.773  0.4701 -0.2849 -0.3821
16827TIP3    H171896   3.248   1.120   3.741 -0.1499 -0.1206  0.0348
16827TIP3    H271897   3.263   1.268   3.713  0.3978 -0.2376 -0.2943
16828TIP3   OH271898   1.534   0.425   3.529  0.0937 -0.0651  0.7643
16828TIP3    H171899   1.608   0.397   3.583 -0.4084 -0.4431  1.2599
16828TIP3    H271900   1.463   0.441   3.592 -0.6855 -1.1013  0.1721
16829TIP3   OH271901   0.878   0.585   4.119  0.1696 -0.5677 -0.3128
16829TIP3    H171902   0.938   0.622   4.053  0.2618  0.3217  0.2633
16829TIP3    H271903   0.936   0.544   4.183  0.1968  0.6004  0.4313
16830TIP3   OH271904   1.259   5.611   5.104 -0.0332  0.4281 -0.3207
16830TIP3    H171905   1.340   5.659   5.089 -0.0516  0.5230 -0.1203
16830TIP3    H271906   1.264   5.584   5.196 -0.1677  0.3193 -0.3450
16831TIP3   OH271907   0.617   2.979   5.047  0.3613  0.2912  0.3732
16831TIP3    H171908   0.620   3.074   5.035 -0.4002  0.0238 -2.3962
16831TIP3    H271909   0.707   2.950   5.032  0.6318  0.5717  1.3996
16832TIP3   OH271910   0.399   3.701   4.946 -1.0988  0.3061 -0.0452
16832TIP3    H171911   0.339   3.659   4.885 -1.5162 -0.9167  1.1837
16832TIP3    H271912   0.342   3.741   5.012 -0.6046  0.4463  0.3022
16833TIP3   OH271913   0.863   1.546   5.236 -0.0349 -0.3568  0.4453
16833TIP3    H171914   0.801   1.512   5.300  0.0016 -2.2536 -0.4876
16833TIP3    H271915   0.936   1.579   5.289 -1.1145  0.4520  1.4728
16834TIP3   OH271916   6.518   6.667   5.323 -0.6424  0.1307  0.3842
16834TIP3    H171917   6.611   6.646   5.315 -1.3323 -1.9793 -3.3426
16834TIP3    H271918   6.510   6.754   5.284 -0.3177  0.0042  0.0315
16835TIP3   OH271919   1.244   1.087   2.448 -0.4811 -1.1465 -0.3797
16835TIP3    H171920   1.288   1.064   2.531  0.7630  1.5779 -0.2402
16835TIP3    H271921   1.185   1.158   2.471 -0.0130 -0.2616 -1.8661
16836TIP3   OH271922   1.475   1.456   6.221  0.5093  0.8885 -0.4644
16836TIP3    H171923   1.499   1.471   6.313 -0.3551  2.2130 -0.4381
16836TIP3    H271924   1.541   1.504   6.171  1.2030 -0.1457 -0.5598
16837TIP3   OH271925   4.387   0.752   4.669  0.3719  0.1875  0.3581
16837TIP3    H171926   4.325   0.812   4.709  0.4213  0.1685  0.4630
16837TIP3    H271927   4.354   0.665   4.690  1.9220  0.1403  2.7743
16838TIP3   OH271928   3.180   2.958   4.783  0.3849 -0.4379  0.2212
16838TIP3    H171929   3.163   2.971   4.876 -1.9412 -0.4593 -0.1649
16838TIP3    H271930   3.268   2.992   4.769  0.3233  0.5802  2.2072
16839TIP3   OH271931   3.613   6.807   4.201  0.0867  0.0970  0.4925
16839TIP3    H171932   3.616   6.882   4.261  0.1450 -0.2403  0.9160
16839TIP3    H271933   3.543   6.752   4.236  0.4280 -0.3214  0.5177
16840TIP3   OH271934   4.241   1.518   5.638 -0.0608  0.1030  0.7414
16840TIP3    H171935   4.293   1.597   5.653 -1.0436  0.7514  0.7652
16840TIP3    H271936   4.263   1.460   5.711  0.8479  0.2508  0.5937
16841TIP3   OH271937   0.674   1.363   5.843  0.1764 -0.0154  0.1925
16841TIP3    H171938   0.639   1.433   5.898 -1.0972 -0.8422  0.4688
16841TIP3    H271939   0.650   1.282   5.890 -1.3069 -0.7467 -1.7671
16842TIP3   OH271940   1.838   2.008   4.318 -0.3052 -0.0329 -0.3446
16842TIP3    H171941   1.781   2.080   4.341 -0.3914 -0.0122 -0.6246
16842TIP3    H271942   1.801   1.932   4.362  1.8521  0.7607  2.9910
16843TIP3   OH271943   4.378   1.915   3.901  0.7634 -0.1173  0.2555
16843TIP3    H171944   4.328   1.840   3.870  0.7610  1.0504 -2.7645
16843TIP3    H271945   4.312   1.983   3.916  1.1226  0.5956 -1.2162
16844TIP3   OH271946   4.013   1.679   3.996 -0.3762 -0.3997 -0.4939
16844TIP3    H171947   3.986   1.766   4.025 -0.6027 -0.2280 -1.2090
16844TIP3    H271948   4.101   1.668   4.030 -0.8126 -0.3843  0.6521
16845TIP3   OH271949   1.850   0.107   5.572 -0.0312 -0.6244  0.4546
16845TIP3    H171950   1.898   0.166   5.631  1.6398 -1.3480 -0.1589
16845TIP3    H271951   1.786   0.163   5.530 -1.0748 -0.0177  2.7433
16846TIP3   OH271952   4.225   7.089   5.654 -0.0375  0.4698 -0.1744
16846TIP3    H171953   4.312   7.069   5.687 -0.3481  1.7153  1.4375
16846TIP3    H271954   4.232   7.177   5.617 -0.1014 -0.2625 -1.9734
16847TIP3   OH271955   3.204   2.678   4.757 -0.2898 -0.1428  0.5967
16847TIP3    H171956   3.189   2.773   4.754  0.0004 -0.0952  0.6928
16847TIP3    H271957   3.119   2.642   4.782 -0.2881  0.1230  0.9849
16848TIP3   OH271958   1.284   1.335   3.346  0.1027  0.0835  0.3047
16848TIP3    H171959   1.337   1.415   3.345  0.2981 -0.0457 -0.7852
16848TIP3    H271960   1.289   1.302   3.256 -0.8636 -0.5709  0.4788
16849TIP3   OH271961   4.104   3.470   1.171  0.0601 -0.1354 -0.0590
16849TIP3    H171962   4.186   3.480   1.218 -0.2078  0.4202  0.2918
16849TIP3    H271963   4.051   3.413   1.226 -0.5652  1.1810  0.7295
16850TIP3   OH271964   0.606   2.311   2.076 -0.1826 -0.4061  0.0307
16850TIP3    H171965   0.587   2.235   2.022  2.2638 -1.0960  0.0829
16850TIP3    H271966   0.644   2.375   2.016 -1.2179  0.3577  0.1867
16851TIP3   OH271967   2.115   0.473   5.871  0.2928 -0.0197 -0.2551
16851TIP3    H171968   2.112   0.433   5.958  0.9617 -0.2833 -0.3502
16851TIP3    H271969   2.041   0.534   5.870  0.9366  0.8107  0.9034
16852TIP3   OH271970   5.242   7.226   5.080  0.1361  0.2095  0.0690
16852TIP3    H171971   5.182   7.181   5.019 -0.4260  2.5766 -1.1786
16852TIP3    H271972   5.323   7.175   5.076 -1.4463 -2.4892  1.0384
16853TIP3   OH271973   1.884   7.187   5.421  0.0215  0.0850 -0.4103
16853TIP3    H171974   1.849   7.125   5.485 -1.4726 -1.7364 -2.9243
16853TIP3    H271975   1.889   7.270   5.468 -1.3029 -1.1471  1.9748
16854TIP3   OH271976   4.197   2.427   3.662 -0.4501 -0.4651  0.5028
16854TIP3    H171977   4.215   2.434   3.756 -1.2859 -1.3850  0.7383
16854TIP3    H271978   4.273   2.467   3.621  0.9244 -1.9309  1.5375
16855TIP3   OH271979   2.039   0.333   5.641  0.5484  0.4200 -0.2596
16855TIP3    H171980   2.000   0.402   5.588 -1.3471 -0.2729  0.1933
16855TIP3    H271981   2.041   0.369   5.730 -2.4572 -0.8340  0.3923
16856TIP3   OH271982   4.391   5.821   4.496 -0.0439  0.2060 -0.2132
16856TIP3    H171983   4.406   5.734   4.458 -1.2653 -0.6709  1.2033
16856TIP3    H271984   4.469   5.871   4.474  0.6440 -1.2275 -1.1494
16857TIP3   OH271985   0.555   6.315   5.186  0.2023 -0.0687 -0.4593
16857TIP3    H171986   0.490   6.385   5.176 -0.9205 -0.8955  0.8241
16857TIP3    H271987   0.639   6.359   5.174 -0.5032  1.4298 -0.0830
16858TIP3   OH271988   1.651   1.253   4.934  0.6375 -0.3857  0.4070
16858TIP3    H171989   1.688   1.321   4.878  1.2281 -1.4953 -0.5739
16858TIP3    H271990   1.694   1.266   5.019  0.0930  1.0007  0.4878
16859TIP3   OH271991   0.916   2.723   3.802  0.0047 -0.5876 -0.2455
16859TIP3    H171992   0.993   2.716   3.858  0.8026  0.7808 -1.1526
16859TIP3    H271993   0.877   2.808   3.826 -0.0964 -0.3600 -1.1880
16860TIP3   OH271994   2.408   1.307   5.169  0.1972  0.7960 -0.1731
16860TIP3    H171995   2.451   1.391   5.184  0.1532  1.0225 -1.2994
16860TIP3    H271996   2.377   1.311   5.079 -1.4767  0.3160  0.3568
16861TIP3   OH271997   2.676   7.095   5.810 -0.6062 -0.8338 -0.3016
16861TIP3    H171998   2.638   7.149   5.878  0.5155 -1.1572  0.6053
16861TIP3    H271999   2.674   7.006   5.846  0.2453 -0.9685 -0.5713
16862TIP3   OH272000   1.963   2.522   4.503 -0.0398  0.1872 -0.0868
16862TIP3    H172001   2.048   2.564   4.518 -0.5192  0.3460  2.4823
16862TIP3    H272002   1.918   2.531   4.587 -1.9008 -1.5003 -0.8881
16863TIP3   OH272003   3.727   1.321   4.033 -0.2574 -0.1714 -0.9328
16863TIP3    H172004   3.807   1.347   3.986 -0.5431  3.2867  0.3111
16863TIP3    H272005   3.657   1.337   3.970 -0.1843 -0.9738 -1.2269
16864TIP3   OH272006   2.577   1.748   5.253 -0.0771 -0.4620  0.1719
16864TIP3    H172007   2.608   1.836   5.276 -0.1960 -1.0372  2.7110
16864TIP3    H272008   2.656   1.702   5.223  0.0294  0.4121 -0.9442
16865TIP3   OH272009   4.616   0.305   6.082  0.0482 -0.0592  0.0906
16865TIP3    H172010   4.546   0.242   6.068  0.5886 -0.9237  1.1921
16865TIP3    H272011   4.572   0.390   6.077 -1.0247 -0.5783  0.4557
16866TIP3   OH272012   2.964   0.387   4.144 -0.0336 -0.4675  0.6127
16866TIP3    H172013   2.889   0.412   4.198  0.4960 -0.6583  1.4431
16866TIP3    H272014   3.026   0.347   4.205  0.0117 -1.9050 -0.3544
16867TIP3   OH272015   2.994   6.008   3.102 -0.6022 -0.5216 -0.2557
16867TIP3    H172016   3.048   5.985   3.026  1.7888 -1.2704  1.6014
16867TIP3    H272017   2.987   6.103   3.098 -2.3219 -0.7189 -2.5888
16868TIP3   OH272018   4.922   0.224   3.896 -0.3236 -0.1733 -0.2034
16868TIP3    H172019   4.965   0.307   3.914  1.1321 -0.6408 -1.3632
16868TIP3    H272020   4.986   0.158   3.923 -2.0286 -0.9546  2.0706
16869TIP3   OH272021   2.313   1.042   5.262  0.0868 -0.1027 -0.1613
16869TIP3    H172022   2.361   1.125   5.262 -1.2969  0.7301  1.6023
16869TIP3    H272023   2.318   1.011   5.352 -0.8585 -1.0685 -0.4293
16870TIP3   OH272024   3.579   1.431   5.580  0.6881  0.2860  0.7281
16870TIP3    H172025   3.555   1.492   5.510 -0.5343  0.9265  1.6758
16870TIP3    H272026   3.521   1.356   5.568  0.2794  0.5201  1.2115
16871TIP3   OH272027   2.575   7.158   5.331 -0.2098 -0.0519  0.0802
16871TIP3    H172028   2.523   7.229   5.369  1.5032  0.7168  1.0437
16871TIP3    H272029   2.575   7.177   5.237  0.4858  1.4121  0.3638
16872TIP3   OH272030   3.023   1.823   5.650 -0.3786  0.1529 -0.3141
16872TIP3    H172031   3.050   1.794   5.737  1.9984  0.5004 -0.9033
16872TIP3    H272032   3.026   1.918   5.654 -3.6180  0.2863  0.2092
16873TIP3   OH272033   1.893   2.659   4.118 -0.7090 -0.3527 -0.3074
16873TIP3    H172034   1.844   2.679   4.038 -0.8436 -0.5280 -0.2677
16873TIP3    H272035   1.830   2.616   4.175 -0.9456  0.9001  0.3825
16874TIP3   OH272036   1.785   5.008   5.471  0.3722 -0.3628  0.0521
16874TIP3    H172037   1.802   5.087   5.522  1.5460 -0.6175  0.0630
16874TIP3    H272038   1.848   5.011   5.400  1.4275 -2.0193  0.8817
16875TIP3   OH272039   4.198   1.191   4.167 -0.9709  0.0479  0.8487
16875TIP3    H172040   4.228   1.191   4.258  0.2949  0.7013  0.4416
16875TIP3    H272041   4.115   1.239   4.170 -0.5329  0.7774  1.5388
16876TIP3   OH272042   3.556   1.841   4.662 -0.4616  0.2807 -0.4805
16876TIP3    H172043   3.592   1.913   4.714 -0.4000 -0.5884  0.6888
16876TIP3    H272044   3.552   1.876   4.573 -1.8366  2.2546  0.3091
16877TIP3   OH272045   3.079   2.564   4.341 -0.0584  0.1411  0.3641
16877TIP3    H172046   3.103   2.505   4.413  0.6359  0.5778  0.4916
16877TIP3    H272047   2.995   2.600   4.367  0.2211  0.3483  0.9911
16878TIP3   OH272048   3.807   1.370   4.389 -0.5339  0.4652 -0.9587
16878TIP3    H172049   3.720   1.411   4.387 -0.9096 -0.3482 -1.9980
16878TIP3    H272050   3.829   1.357   4.297 -0.2810 -1.3330 -0.6576
16879TIP3   OH272051   1.344   0.323   5.445  0.4886  0.2979  0.6107
16879TIP3    H172052   1.285   0.398   5.439 -0.6745 -0.5196  1.5667
16879TIP3    H272053   1.340   0.297   5.537 -0.6499 -2.1333 -0.0876
16880TIP3   OH272054   3.314   1.502   4.942  0.1531  0.5097  0.2395
16880TIP3    H172055   3.277   1.416   4.920  1.0279  0.3061 -0.4493
16880TIP3    H272056   3.267   1.529   5.020 -2.4580  0.8638 -1.3791
16881TIP3   OH272057   0.961   2.223   4.251  0.3372  0.2657 -0.0625
16881TIP3    H172058   0.945   2.273   4.171 -1.3573  0.8422  0.6160
16881TIP3    H272059   0.978   2.290   4.318 -2.2237 -0.0165  0.9146
16882TIP3   OH272060   3.874   3.246   5.204 -0.2468  0.1257  0.3457
16882TIP3    H172061   3.827   3.280   5.281 -0.9182 -1.3800  0.6104
16882TIP3    H272062   3.916   3.323   5.166 -1.2399  1.1538  1.2951
16883TIP3   OH272063   2.446   1.781   4.115 -0.7685  0.1753  0.4208
16883TIP3    H172064   2.539   1.775   4.133 -0.7891 -0.6396  0.2519
16883TIP3    H272065   2.440   1.826   4.031 -0.3994 -2.7507 -1.2178
16884TIP3   OH272066   1.237   0.745   3.413 -0.2266 -0.4258  0.1238
16884TIP3    H172067   1.282   0.698   3.483 -1.8757 -1.3283  0.6020
16884TIP3    H272068   1.156   0.696   3.400 -1.1220  1.2354 -0.6425
16885TIP3   OH272069   3.639   0.726   6.151  0.3385 -0.4893 -0.3395
16885TIP3    H172070   3.553   0.764   6.133  0.0115 -0.6016  0.9144
16885TIP3    H272071   3.636   0.640   6.111  1.6864  1.3402 -4.7158
16886TIP3   OH272072   3.126   7.263   5.320  0.0282 -0.2564  0.0495
16886TIP3    H172073   3.148   7.295   5.407  2.5753  0.3822 -0.7850
16886TIP3    H272074   3.049   7.314   5.294  0.5804  1.1006  1.0439
16887TIP3   OH272075   7.208   1.888   3.847  0.2591 -0.8972 -0.0843
16887TIP3    H172076   7.282   1.925   3.798  0.3595 -2.8405 -1.4262
16887TIP3    H272077   7.211   1.934   3.931  0.3163  2.2228 -1.7120
16888TIP3   OH272078   2.514   3.354   4.266  0.4810 -0.7524  0.8721
16888TIP3    H172079   2.497   3.438   4.224 -0.0291 -1.2279  0.1185
16888TIP3    H272080   2.585   3.372   4.327 -0.1858  0.4041  1.3101
16889TIP3   OH272081   3.955   1.554   4.534 -0.4360  0.2616  0.9063
16889TIP3    H172082   3.898   1.570   4.610 -0.5540  0.6680  0.7323
16889TIP3    H272083   3.915   1.479   4.490 -1.6571  1.4113 -0.0044
16890TIP3   OH272084   3.911   2.765   5.737 -0.3644 -0.1830 -0.2410
16890TIP3    H172085   3.855   2.701   5.692  0.0780 -0.1412 -0.8517
16890TIP3    H272086   3.968   2.712   5.792 -2.4562 -0.1193  2.0624
16891TIP3   OH272087   2.777   1.383   5.181 -0.1786  0.1949  0.3925
16891TIP3    H172088   2.863   1.341   5.187 -0.7335 -1.1280 -0.6605
16891TIP3    H272089   2.752   1.400   5.272  1.4177  1.0709  0.6877
16892TIP3   OH272090   0.581   0.455   5.070  0.3374 -0.0760  0.4835
16892TIP3    H172091   0.641   0.510   5.121  0.2794  0.2844  0.1693
16892TIP3    H272092   0.494   0.486   5.096  0.2961 -0.3430  0.6597
16893TIP3   OH272093   3.355   0.391   5.709 -0.4068  0.5904  0.2935
16893TIP3    H172094   3.314   0.316   5.751  0.9826  0.7135  1.9231
16893TIP3    H272095   3.290   0.461   5.715  0.0895  0.8505  3.0356
16894TIP3   OH272096   5.617   7.182   5.102  0.4152  0.9118 -0.1746
16894TIP3    H172097   5.607   7.090   5.076 -0.6615  1.2533 -1.0321
16894TIP3    H272098   5.586   7.186   5.192 -1.8414  0.8559 -0.9095
16895TIP3   OH272099   2.913   6.668   3.341 -0.5389  0.2241  0.1958
16895TIP3    H172100   2.966   6.683   3.263 -0.6049  2.9588  0.6173
16895TIP3    H272101   2.926   6.746   3.394 -2.8745 -0.2576  1.5515
16896TIP3   OH272102   2.549   0.336   4.354  0.5469  0.3688  0.6629
16896TIP3    H172103   2.525   0.421   4.316 -2.3328 -0.2336  1.0287
16896TIP3    H272104   2.539   0.348   4.448 -0.1082 -0.4385  0.6999
16897TIP3   OH272105   2.134   0.277   4.007  0.2531  0.2314 -0.1997
16897TIP3    H172106   2.053   0.261   3.958  0.4825 -1.5243 -0.0484
16897TIP3    H272107   2.106   0.324   4.085 -0.6057 -0.1693 -0.2586
16898TIP3   OH272108   3.154   0.255   4.315  0.0978 -0.0561 -0.1946
16898TIP3    H172109   3.115   0.168   4.305  0.8126 -0.1815 -1.9061
16898TIP3    H272110   3.248   0.239   4.323  0.2689  0.5796 -0.8637
16899TIP3   OH272111   2.757   2.435   6.055 -0.4879 -0.6530  0.1049
16899TIP3    H172112   2.811   2.502   6.097 -0.9714 -0.9688  1.2469
16899TIP3    H272113   2.668   2.454   6.085 -1.1853  0.4546 -2.5198
16900TIP3   OH272114   3.481   0.075   5.829 -0.2353  0.1110  0.3066
16900TIP3    H172115   3.532   0.151   5.802  0.5388 -0.1418  1.0449
16900TIP3    H272116   3.390   0.106   5.833  0.4966  1.9751  4.1855
16901TIP3   OH272117   3.052   6.864   5.652 -0.2943  0.1212  0.6439
16901TIP3    H172118   2.999   6.790   5.681 -1.2387  0.5750  0.0743
16901TIP3    H272119   3.123   6.824   5.602 -0.8228 -0.4059  0.3105
16902TIP3   OH272120   0.132   0.721   5.883  0.2125 -0.0056  0.0833
16902TIP3    H172121   0.160   0.809   5.905  0.0808 -0.0365  0.3845
16902TIP3    H272122   0.047   0.711   5.927  0.3369 -0.3629  0.2474
16903TIP3   OH272123   3.330   1.001   5.031 -0.1342 -0.3959  0.0311
16903TIP3    H172124   3.388   1.048   5.091  1.2790 -0.7209 -1.0476
16903TIP3    H272125   3.277   0.945   5.088  1.2644 -0.7815  0.9659
16904TIP3   OH272126   2.307   1.278   2.747  0.6731  0.1287  0.9577
16904TIP3    H172127   2.377   1.250   2.806  0.5003 -1.8146  0.2893
16904TIP3    H272128   2.244   1.207   2.750  0.1476  0.4992 -0.7286
16905TIP3   OH272129   2.475   2.136   5.045 -0.1792 -0.6746  0.1871
16905TIP3    H172130   2.547   2.196   5.064 -0.5832 -0.1580  0.0728
16905TIP3    H272131   2.472   2.078   5.121  1.4785 -1.8066 -0.5527
16906TIP3   OH272132   0.520   1.213   3.339  0.4485 -0.1520 -0.4477
16906TIP3    H172133   0.470   1.267   3.278  0.3355 -2.2558 -2.2869
16906TIP3    H272134   0.585   1.169   3.285  2.1221 -0.0484  1.3925
16907TIP3   OH272135   2.844   7.255   5.405 -0.4892  0.5498  0.2776
16907TIP3    H172136   2.768   7.312   5.412 -0.1421  0.8399  1.9504
16907TIP3    H272137   2.878   7.250   5.495  1.4579  0.4374 -0.4549
16908TIP3   OH272138   0.616   2.105   5.195  0.3416  0.1364 -0.2581
16908TIP3    H172139   0.521   2.091   5.187 -0.1108  2.1626  1.2192
16908TIP3    H272140   0.632   2.186   5.148  1.1934  0.3143  0.3346
16909TIP3   OH272141   0.695   1.010   2.686  0.4995 -0.1814  0.0389
16909TIP3    H172142   0.709   0.926   2.641  1.2633  0.7748 -1.5360
16909TIP3    H272143   0.604   1.005   2.715  0.2003 -1.1282 -0.9899
16910TIP3   OH272144   3.746   0.499   5.162 -0.4185 -0.2927  0.3465
16910TIP3    H172145   3.806   0.426   5.173  0.2320  0.2685  0.5569
16910TIP3    H272146   3.677   0.484   5.226 -1.2162 -1.6449 -0.7883
16911TIP3   OH272147   3.547   0.499   6.024  0.7179  0.0455 -0.0366
16911TIP3    H172148   3.471   0.493   6.081 -0.6976  1.2323 -1.7245
16911TIP3    H272149   3.563   0.409   5.996 -0.5878 -0.1122 -0.3164
16912TIP3   OH272150   3.172   0.089   4.093 -0.4062  0.3514 -0.1068
16912TIP3    H172151   3.227   0.167   4.086  1.3402 -0.7797  0.8260
16912TIP3    H272152   3.233   0.017   4.109 -2.1573 -0.8755  1.2772
16913TIP3   OH272153   3.466   1.639   6.356 -0.0109  0.5503  0.2017
16913TIP3    H172154   3.532   1.592   6.305 -1.5052 -0.3050 -0.9939
16913TIP3    H272155   3.468   1.728   6.321  0.8734  0.6679  0.5401
16914TIP3   OH272156   2.006   1.288   5.436 -0.3551  0.0336  0.5349
16914TIP3    H172157   2.025   1.281   5.530  0.6980 -2.0012  0.2064
16914TIP3    H272158   2.031   1.377   5.413  2.4312 -0.4239  1.5505
16915TIP3   OH272159   2.285   0.159   4.460  0.1479  0.3468 -0.0917
16915TIP3    H172160   2.360   0.217   4.450 -1.2671  1.7947 -2.7774
16915TIP3    H272161   2.221   0.211   4.508 -0.4025  0.3221 -0.7998
16916TIP3   OH272162   3.689   0.118   4.677  0.4439 -0.6764 -0.1375
16916TIP3    H172163   3.752   0.167   4.729  1.3846 -1.4814 -0.5162
16916TIP3    H272164   3.603   0.151   4.706  0.9872 -0.4505  1.2276
16917TIP3   OH272165   3.264   0.029   3.720 -0.5018  0.2964  0.0722
16917TIP3    H172166   3.338   0.079   3.754  0.1487 -1.8249  1.8962
16917TIP3    H272167   3.280   0.023   3.626  2.0391 -0.6905  0.5316
16918TIP3   OH272168   2.425   1.355   4.367  0.4205 -0.0434  0.3447
16918TIP3    H172169   2.379   1.407   4.301  0.5745 -0.4214 -0.0629
16918TIP3    H272170   2.481   1.418   4.413  1.2896 -0.0051 -0.7487
16919TIP3   OH272171   2.659   4.408   5.378  0.5250  0.4376 -0.1755
16919TIP3    H172172   2.595   4.430   5.310 -1.0770  1.4321  1.6066
16919TIP3    H272173   2.713   4.339   5.339 -1.2738 -0.0239 -1.9237
16920TIP3   OH272174   3.219   6.762   3.526 -0.1319 -0.3458 -0.3363
16920TIP3    H172175   3.273   6.796   3.597  0.0241 -0.4931 -0.3831
16920TIP3    H272176   3.270   6.688   3.491 -1.5846 -2.2334  1.3616
16921TIP3   OH272177   3.114   0.435   4.585  0.7107 -0.2957 -0.4077
16921TIP3    H172178   3.174   0.488   4.638  1.0096  0.2287 -1.2681
16921TIP3    H272179   3.166   0.405   4.511  0.2932 -1.0361 -0.4074
16922TIP3   OH272180   4.211   0.229   5.003  0.2374 -0.2534 -0.3693
16922TIP3    H172181   4.175   0.242   5.091  1.3046 -0.9578  0.1900
16922TIP3    H272182   4.296   0.187   5.018 -0.3165 -1.9598 -1.8048
16923TIP3   OH272183   1.265   0.578   1.682 -0.2079 -0.4057  0.1239
16923TIP3    H172184   1.312   0.497   1.702 -0.9733 -0.8477  0.1717
16923TIP3    H272185   1.221   0.601   1.764 -0.3878 -0.2082 -0.0268
16924TIP3   OH272186   3.539   2.132   4.073  0.1972 -0.7352  0.1871
16924TIP3    H172187   3.571   2.180   4.149 -0.0908 -0.0877 -0.0979
16924TIP3    H272188   3.450   2.106   4.097  0.5131 -1.5272  0.5213
16925TIP3   OH272189   1.644   0.745   4.654  0.2973  0.0442 -0.3050
16925TIP3    H172190   1.640   0.834   4.691 -1.3214 -0.2205  0.2051
16925TIP3    H272191   1.734   0.737   4.622  0.1290  2.3087 -1.4865
16926TIP3   OH272192   2.965   0.896   5.556  0.2290  0.5394 -0.4494
16926TIP3    H172193   2.928   0.821   5.602  1.1759 -1.5164 -2.9522
16926TIP3    H272194   2.888   0.945   5.526 -0.3904  0.9548  1.6905
16927TIP3   OH272195   0.830   1.292   4.902 -0.4051  0.5209 -0.2177
16927TIP3    H172196   0.785   1.357   4.955 -0.3089  0.9124 -0.6142
16927TIP3    H272197   0.887   1.343   4.844  0.6394  0.0268  0.3597
16928TIP3   OH272198   3.173   0.721   4.119 -0.1541  0.0648  0.7091
16928TIP3    H172199   3.171   0.634   4.081  1.6261  0.0693  0.5340
16928TIP3    H272200   3.150   0.708   4.211 -0.7544 -0.4640  0.4818
16929TIP3   OH272201   4.818   1.727   5.255 -0.0954 -0.0132  0.2699
16929TIP3    H172202   4.812   1.742   5.161  0.6180 -1.6233 -0.0533
16929TIP3    H272203   4.744   1.775   5.292 -1.8294 -1.3691 -1.3596
16930TIP3   OH272204   4.724   1.602   4.393 -0.0674 -0.2501  0.0946
16930TIP3    H172205   4.667   1.678   4.404  0.7742  0.5519 -1.0158
16930TIP3    H272206   4.696   1.541   4.462  1.4171  2.3606  3.1527
16931TIP3   OH272207   2.414   1.132   4.082 -0.9156  0.4025 -0.3599
16931TIP3    H172208   2.396   1.063   4.018  0.3811  0.8230 -1.2144
16931TIP3    H272209   2.417   1.213   4.030 -1.0922  0.9132  0.4202
16932TIP3   OH272210   2.034   0.436   4.227  0.2948 -0.4236  0.1195
16932TIP3    H172211   2.015   0.530   4.217  0.7269 -0.3494 -0.0102
16932TIP3    H272212   1.948   0.396   4.241 -0.1643 -0.3452 -2.3014
16933TIP3   OH272213   1.441   1.538   2.101  0.0909 -0.0609 -0.4637
16933TIP3    H172214   1.517   1.562   2.047  1.0248 -0.4724  0.6580
16933TIP3    H272215   1.384   1.615   2.097 -0.5721 -0.6435 -3.2619
16934TIP3   OH272216   2.978   7.102   6.438 -0.2718 -0.3167 -0.5243
16934TIP3    H172217   2.941   7.021   6.403  0.8369 -1.5950  1.1793
16934TIP3    H272218   2.906   7.142   6.487 -0.4838 -0.9048 -0.3464
16935TIP3   OH272219   1.971   1.639   5.576  0.0956  0.1129  0.8628
16935TIP3    H172220   2.059   1.604   5.563  0.1520  0.5663 -0.0475
16935TIP3    H272221   1.948   1.679   5.492 -2.0726 -2.3723  0.1922
16936TIP3   OH272222   2.447   1.361   3.938  0.0690  0.4894  0.6271
16936TIP3    H172223   2.370   1.381   3.991 -0.6755 -1.2967  0.2628
16936TIP3    H272224   2.420   1.381   3.849 -0.0969 -0.4667  0.4608
16937TIP3   OH272225   3.732   3.075   5.454 -0.2516 -0.0768 -0.6359
16937TIP3    H172226   3.811   3.049   5.407 -0.0088  1.9050 -1.3915
16937TIP3    H272227   3.732   3.171   5.449 -2.9673 -0.0484 -1.1200
16938TIP3   OH272228   4.894   2.480   4.383  0.0302 -0.0242 -0.3577
16938TIP3    H172229   4.988   2.493   4.373  0.5214 -2.9926  0.1066
16938TIP3    H272230   4.886   2.414   4.452 -2.3506 -0.6227 -1.1572
16939TIP3   OH272231   1.920   0.520   5.492  0.3631 -0.0524 -0.8077
16939TIP3    H172232   1.881   0.447   5.444 -0.1804 -1.2494  1.3505
16939TIP3    H272233   1.855   0.589   5.489 -0.8491 -1.1050  0.5273
16940TIP3   OH272234   4.380   2.196   3.537  0.8317  0.5183  0.4533
16940TIP3    H172235   4.417   2.284   3.541  1.1217  0.4806 -1.0251
16940TIP3    H272236   4.294   2.204   3.578  1.5955  1.0807  1.9603
16941TIP3   OH272237   1.508   1.011   4.271  0.1538 -0.4108  0.0158
16941TIP3    H172238   1.445   1.002   4.342 -0.1422  1.9956  0.0791
16941TIP3    H272239   1.477   0.948   4.205 -1.5884 -0.1716  0.5630
16942TIP3   OH272240   6.792   0.398   4.543 -0.0222  0.1152 -0.0744
16942TIP3    H172241   6.878   0.379   4.580  0.5631 -0.2071 -1.5813
16942TIP3    H272242   6.767   0.481   4.582  0.4512 -0.3557  1.2647
16943TIP3   OH272243   1.401   0.190   5.226 -0.9783 -0.0463 -0.2302
16943TIP3    H172244   1.448   0.261   5.181 -1.2757 -0.2158 -0.8102
16943TIP3    H272245   1.383   0.225   5.313  0.8828 -0.2614  0.2528
16944TIP3   OH272246   1.921   0.594   3.887  0.1012  0.1640 -0.2584
16944TIP3    H172247   1.876   0.640   3.816  0.6486  1.5631  0.2842
16944TIP3    H272248   2.005   0.568   3.850 -0.3550 -0.7618 -0.6791
16945TIP3   OH272249   2.674   7.001   5.548  0.7952  0.3382  0.1140
16945TIP3    H172250   2.644   7.061   5.480  1.4457  0.0935 -0.3980
16945TIP3    H272251   2.686   7.056   5.625  0.3935  0.6828 -0.0686
16946TIP3   OH272252   2.240   0.592   4.375 -0.4046  0.1886  0.2766
16946TIP3    H172253   2.206   0.586   4.286 -1.7009 -0.1489  0.7792
16946TIP3    H272254   2.263   0.684   4.386 -0.2869  0.2413 -0.3847
16947TIP3   OH272255   2.454   0.519   5.989 -0.4121 -0.0960 -0.3673
16947TIP3    H172256   2.379   0.476   6.030  0.5661 -1.3731  0.1269
16947TIP3    H272257   2.481   0.585   6.053 -0.6412 -0.1626 -0.2005
16948TIP3   OH272258   4.981   6.905   3.830 -0.3152 -0.4704 -0.4368
16948TIP3    H172259   4.971   6.860   3.747 -2.1887 -0.2301 -0.3740
16948TIP3    H272260   5.057   6.961   3.819 -2.0256  1.4781 -2.8913
16949TIP3   OH272261   3.736   7.260   5.007  0.4763 -0.0282  0.0420
16949TIP3    H172262   3.734   7.210   4.925  1.2417  0.2212 -0.1307
16949TIP3    H272263   3.778   7.201   5.070 -1.3503 -0.7436  0.6148
16950TIP3   OH272264   2.857   0.787   6.202 -0.7264  0.2762 -0.1673
16950TIP3    H172265   2.856   0.863   6.260  1.9381  1.0291 -1.0197
16950TIP3    H272266   2.826   0.715   6.256 -1.0680  1.5176  1.3251
16951TIP3   OH272267   3.204   0.354   4.900 -0.0117  0.1840  0.0771
16951TIP3    H172268   3.171   0.365   4.989  1.6909  0.3598  0.6979
16951TIP3    H272269   3.188   0.438   4.857 -1.8666 -0.2618 -0.1419
16952TIP3   OH272270   1.880   0.932   4.639 -0.5421  0.0382  0.0373
16952TIP3    H172271   1.792   0.968   4.636 -0.4824  0.1189 -1.4685
16952TIP3    H272272   1.925   0.974   4.565  0.9830  0.5818  1.2361
16953TIP3   OH272273   2.805   2.650   5.093 -0.2850 -0.3947 -0.2255
16953TIP3    H172274   2.715   2.683   5.082  1.1553  3.5106 -1.0910
16953TIP3    H272275   2.821   2.655   5.187  0.0336  1.8234 -0.3789
16954TIP3   OH272276   7.234   1.442   5.161 -0.0800 -0.6839  0.1325
16954TIP3    H172277   7.158   1.385   5.160 -0.1915 -0.6471  2.3446
16954TIP3    H272278   7.284   1.418   5.083 -1.7535 -1.5244 -0.7030
16955TIP3   OH272279   4.921   0.450   5.207 -0.1704 -0.4352  0.2823
16955TIP3    H172280   4.981   0.465   5.280 -1.3509  0.4634  1.0870
16955TIP3    H272281   4.856   0.520   5.214 -0.1884 -0.2094 -1.7592
16956TIP3   OH272282   3.529   0.440   4.180 -0.0588  0.3343 -0.4578
16956TIP3    H172283   3.481   0.505   4.231  0.8594 -0.7183  1.7757
16956TIP3    H272284   3.621   0.459   4.197  0.2318 -2.6491  1.7224
16957TIP3   OH272285   2.135   0.928   4.816 -0.3905  0.3850 -0.0569
16957TIP3    H172286   2.123   0.887   4.730  1.1321 -0.5901  0.1747
16957TIP3    H272287   2.101   1.016   4.805  1.9846  1.0736 -2.3939
16958TIP3   OH272288   1.981   1.631   4.791 -0.2201  0.6166 -0.1738
16958TIP3    H172289   2.075   1.621   4.805 -0.2544  0.0076 -0.3407
16958TIP3    H272290   1.970   1.622   4.696 -0.9507 -4.1391  0.2279
16959TIP3   OH272291   5.816   3.095   5.041  0.4773  0.0828 -0.2968
16959TIP3    H172292   5.871   3.024   5.009  0.9129  0.4378 -0.3517
16959TIP3    H272293   5.794   3.071   5.130 -2.2315 -1.7917 -1.4084
16960TIP3   OH272294   4.349   0.915   5.830 -0.4350 -0.5678  0.0876
16960TIP3    H172295   4.317   0.859   5.901 -0.3216  1.6878  1.9679
16960TIP3    H272296   4.329   1.004   5.859  0.5801  0.4575 -2.2501
16961TIP3   OH272297   2.554   4.611   5.933  0.3065  0.0120 -0.1651
16961TIP3    H172298   2.628   4.666   5.959  1.3834 -1.4402 -0.0807
16961TIP3    H272299   2.487   4.628   5.999  0.5675  1.3350 -0.2354
16962TIP3   OH272300   2.591   3.769   5.739  0.3796 -0.2336  0.1706
16962TIP3    H172301   2.639   3.729   5.667  1.4566  0.8693  0.2579
16962TIP3    H272302   2.653   3.831   5.778 -0.2708 -0.6137  1.8736
16963TIP3   OH272303   2.769   4.521   4.183 -0.2001 -0.0207  0.2313
16963TIP3    H172304   2.801   4.438   4.148  0.5718  0.4119 -0.0959
16963TIP3    H272305   2.827   4.587   4.145  0.3122  0.5011  1.8793
16964TIP3   OH272306   3.384   1.724   6.617 -0.6991  0.3019  0.0290
16964TIP3    H172307   3.415   1.668   6.546 -1.3340 -0.2652  0.1923
16964TIP3    H272308   3.406   1.813   6.590  0.9123 -0.0719  0.0570
16965TIP3   OH272309   4.306   2.338   5.239  0.0292 -0.2323 -0.0499
16965TIP3    H172310   4.355   2.272   5.288 -0.7532 -1.0909 -0.4135
16965TIP3    H272311   4.217   2.333   5.274 -0.2195  0.0833 -0.6231
16966TIP3   OH272312   1.955   1.503   3.426  0.0752 -0.3283  0.4000
16966TIP3    H172313   2.016   1.523   3.497  0.1590 -0.7256  0.4444
16966TIP3    H272314   1.877   1.469   3.471 -0.8374  1.7583  0.4477
16967TIP3   OH272315   2.583   1.134   6.071  0.6281 -0.1607 -0.3677
16967TIP3    H172316   2.556   1.068   6.135 -0.0747 -0.5434 -1.0394
16967TIP3    H272317   2.654   1.182   6.113  0.1358 -0.3741  0.7091
16968TIP3   OH272318   4.373   2.149   4.092  0.1219  0.6778  0.5125
16968TIP3    H172319   4.425   2.092   4.148 -0.0790  0.2965  0.3066
16968TIP3    H272320   4.293   2.165   4.142 -0.1247  0.2110  0.2650
16969TIP3   OH272321   4.810   1.972   4.863  0.5603 -0.2429 -0.0432
16969TIP3    H172322   4.823   2.000   4.954 -0.7598  3.1186 -0.8439
16969TIP3    H272323   4.802   2.053   4.813 -4.0432 -1.9904 -2.3993
16970TIP3   OH272324   1.510   0.736   5.876 -0.0243 -0.1584 -1.0189
16970TIP3    H172325   1.474   0.797   5.941  1.6288 -0.4812  0.2133
16970TIP3    H272326   1.458   0.657   5.886 -0.7911  0.3140 -1.1764
16971TIP3   OH272327   2.923   1.564   5.599 -0.3207  0.4519 -0.0815
16971TIP3    H172328   2.895   1.612   5.677 -0.6838  0.3993 -0.1797
16971TIP3    H272329   3.018   1.552   5.611 -0.4581 -0.0045  0.5952
16972TIP3   OH272330   2.592   1.041   5.620  0.1253 -0.6165  0.1328
16972TIP3    H172331   2.652   1.098   5.573 -0.6742 -0.1930 -0.3784
16972TIP3    H272332   2.514   1.094   5.634 -0.0649 -1.1001  0.9638
16973TIP3   OH272333   6.066   0.575   4.362  0.0268  0.7491  0.7254
16973TIP3    H172334   5.998   0.523   4.319 -0.8490  0.7126  2.0906
16973TIP3    H272335   6.145   0.522   4.357 -0.7041 -0.4321  1.5101
16974TIP3   OH272336   3.152   4.719   5.028 -0.4802  0.1114 -0.1710
16974TIP3    H172337   3.074   4.743   5.079 -1.4496  1.2125 -2.1057
16974TIP3    H272338   3.221   4.777   5.059 -0.9327  0.4483  0.2069
16975TIP3   OH272339   4.420   0.503   4.258 -0.1947  0.2369 -0.3010
16975TIP3    H172340   4.340   0.535   4.215 -1.5912  0.2416  2.1679
16975TIP3    H272341   4.424   0.410   4.236 -1.6398 -0.0648  0.5912
16976TIP3   OH272342   1.959   6.953   5.091 -0.4577  0.3288 -1.1173
16976TIP3    H172343   2.045   6.950   5.049 -0.0275 -0.5913 -0.1890
16976TIP3    H272344   1.937   7.047   5.094  0.8602  0.6301 -0.6706
16977TIP3   OH272345   3.295   2.128   4.548 -0.4584  0.2026 -0.3049
16977TIP3    H172346   3.374   2.120   4.496 -0.6203 -0.0283 -0.5176
16977TIP3    H272347   3.274   2.038   4.574 -0.9931  0.1914 -0.7575
16978TIP3   OH272348   2.589   6.752   5.621 -0.5759  0.0313 -0.1814
16978TIP3    H172349   2.614   6.832   5.574 -2.4073  1.0773  0.5465
16978TIP3    H272350   2.672   6.709   5.642  0.4681  1.9925 -0.1545
16979TIP3   OH272351   1.119   2.779   5.181  0.2171 -0.2761 -0.1415
16979TIP3    H172352   1.151   2.775   5.271 -0.7155 -1.9598  0.1375
16979TIP3    H272353   1.195   2.756   5.127  0.2527 -1.2501  0.3261
16980TIP3   OH272354   4.016   0.708   5.528 -0.4342  0.1044 -0.2357
16980TIP3    H172355   3.968   0.638   5.484  0.0672  0.1330 -0.8421
16980TIP3    H272356   3.965   0.787   5.509 -0.3718  0.0748 -0.5342
16981TIP3   OH272357   2.680   6.035   4.489 -0.4684  0.0983 -0.0926
16981TIP3    H172358   2.740   6.059   4.418  0.3775  1.0422  0.9198
16981TIP3    H272359   2.625   6.113   4.501  1.0584  0.9196  1.9590
16982TIP3   OH272360   1.721   0.699   5.473 -0.1104  0.3488  0.3879
16982TIP3    H172361   1.638   0.656   5.494 -0.3265  0.3080 -0.5185
16982TIP3    H272362   1.708   0.735   5.385  0.2907  1.7241  0.8849
16983TIP3   OH272363   2.846   0.596   5.111  0.4816 -0.5256 -0.5360
16983TIP3    H172364   2.851   0.663   5.180 -1.2409 -2.3372  1.4069
16983TIP3    H272365   2.755   0.598   5.082  0.0444 -2.9588  0.5332
16984TIP3   OH272366   3.800   6.585   4.320 -0.5378  0.1298 -0.0996
16984TIP3    H172367   3.832   6.570   4.231  0.1460  0.4120  0.0897
16984TIP3    H272368   3.864   6.541   4.376  0.2773  1.8364  0.3577
16985TIP3   OH272369   1.417   6.013   4.167 -0.0745 -0.5842  0.1693
16985TIP3    H172370   1.399   6.085   4.227  0.2908  0.0071 -0.4202
16985TIP3    H272371   1.359   5.943   4.195 -0.1925 -0.1708  0.9598
16986TIP3   OH272372   2.332   0.440   5.449  0.1382 -0.1012  0.0578
16986TIP3    H172373   2.407   0.389   5.481 -1.3567 -1.3280  1.6529
16986TIP3    H272374   2.302   0.393   5.371 -1.4182 -1.8760  1.6900
16987TIP3   OH272375   2.769   0.200   4.256 -0.4469  0.5975 -0.4124
16987TIP3    H172376   2.715   0.261   4.305 -0.6790 -0.1877  0.3312
16987TIP3    H272377   2.822   0.156   4.323 -1.8991 -1.6163 -0.6488
16988TIP3   OH272378   2.980   1.734   4.046 -0.6214  0.0955  0.4772
16988TIP3    H172379   3.003   1.661   4.103 -3.7035 -1.6956 -0.4711
16988TIP3    H272380   3.034   1.721   3.968 -0.0019 -0.2539  0.9551
16989TIP3   OH272381   2.622   1.334   4.138  0.4618  0.6161 -0.3148
16989TIP3    H172382   2.554   1.314   4.202  1.9375 -3.0152  0.2748
16989TIP3    H272383   2.575   1.338   4.054 -0.9922  2.0892  0.5272
16990TIP3   OH272384   4.522   3.749   2.772  0.2375  0.5509 -0.2430
16990TIP3    H172385   4.612   3.735   2.799  0.0951  1.3139  0.6728
16990TIP3    H272386   4.492   3.664   2.740  1.0506  0.1297  0.1138
16991TIP3   OH272387   1.058   1.456   4.776 -0.0613 -0.7634  0.2568
16991TIP3    H172388   1.129   1.475   4.837 -0.5239 -1.5709  1.0665
16991TIP3    H272389   1.081   1.504   4.696 -0.2339  1.5796  1.5721
16992TIP3   OH272390   3.527   2.387   5.588  0.0099 -0.6896  0.4180
16992TIP3    H172391   3.435   2.365   5.603 -0.4498  1.2314  0.6427
16992TIP3    H272392   3.566   2.388   5.675 -0.2867  0.5836  0.5563
16993TIP3   OH272393   2.996   0.083   4.962  0.4998 -0.4512 -0.1954
16993TIP3    H172394   2.956   0.153   5.014  1.7038 -0.3039  0.5400
16993TIP3    H272395   2.983   0.111   4.871 -0.5486 -0.1217  0.0478
16994TIP3   OH272396   5.359   2.696   4.133  0.3897 -0.2795 -0.3078
16994TIP3    H172397   5.324   2.608   4.145  0.0231  0.0257  0.9183
16994TIP3    H272398   5.451   2.690   4.159  0.0241 -0.0012  1.0657
16995TIP3   OH272399   3.019   0.691   5.943  0.0476 -0.1279 -0.9707
16995TIP3    H172400   2.994   0.675   5.852 -1.0655 -1.4965 -0.4422
16995TIP3    H272401   2.938   0.683   5.992  0.8431 -0.6429  0.2920
16996TIP3   OH272402   0.661   0.747   4.630  0.2473  0.5520 -0.0404
16996TIP3    H172403   0.732   0.764   4.692  0.0849 -0.2048  0.3554
16996TIP3    H272404   0.634   0.657   4.648 -0.1783  0.5167 -0.8319
16997TIP3   OH272405   3.543   1.894   5.198 -0.7849 -0.7332 -0.4013
16997TIP3    H172406   3.500   1.957   5.140 -0.4585 -0.6326 -0.5370
16997TIP3    H272407   3.498   1.904   5.282  0.9140  1.4991  0.2939
16998TIP3   OH272408   4.292   1.392   3.808 -0.0375  0.2686  0.3226
16998TIP3    H172409   4.357   1.462   3.803  0.9417 -0.4306  2.6811
16998TIP3    H272410   4.305   1.342   3.727  1.1000  1.2155 -0.0956
16999TIP3   OH272411   0.883   0.831   3.629 -0.1986 -0.4968 -0.2534
16999TIP3    H172412   0.792   0.804   3.616 -0.1054 -0.9332  0.0003
16999TIP3    H272413   0.877   0.910   3.682 -0.4547 -0.2049 -0.7094
17000TIP3   OH272414   3.785   1.083   3.658  0.4491  0.1626  0.0626
17000TIP3    H172415   3.792   1.035   3.575  1.1307  0.1293  0.1363
17000TIP3    H272416   3.725   1.155   3.639  0.4520  0.0444 -0.4066
17001TIP3   OH272417   0.449   0.225   4.547 -0.5458  0.1582 -0.0819
17001TIP3    H172418   0.493   0.242   4.463 -0.6332 -0.2647 -0.2121
17001TIP3    H272419   0.382   0.293   4.553  1.7964  2.4661  1.3262
17002TIP3   OH272420   2.890   0.664   5.689  0.1428  0.0364 -0.1502
17002TIP3    H172421   2.804   0.627   5.670  0.1911  1.0082 -2.4438
17002TIP3    H272422   2.953   0.601   5.654  0.3425  0.0902  0.1015
17003TIP3   OH272423   3.267   0.635   5.802  0.2089  0.1750 -0.1831
17003TIP3    H172424   3.229   0.658   5.886 -0.4500 -1.0761 -0.1266
17003TIP3    H272425   3.192   0.618   5.745  0.6600 -0.4462 -0.6076
17004TIP3   OH272426   3.083   2.033   3.978 -0.7383 -0.4706  0.1323
17004TIP3    H172427   3.010   2.092   3.995  0.8008  0.7295  3.2142
17004TIP3    H272428   3.159   2.078   4.016  1.7638 -1.3260 -3.5677
17005TIP3   OH272429   4.320   5.733   5.481 -0.7851 -0.6167 -0.2855
17005TIP3    H172430   4.282   5.775   5.558 -0.1058 -0.8563  0.1894
17005TIP3    H272431   4.276   5.649   5.474 -1.1632 -0.4072 -0.4209
17006TIP3   OH272432   5.366   1.258   5.417 -0.7235  0.3107 -0.3139
17006TIP3    H172433   5.338   1.331   5.473 -2.1999 -0.5189  0.0664
17006TIP3    H272434   5.305   1.259   5.343 -2.1138 -1.7779  0.7291
17007TIP3   OH272435   2.840   7.289   5.675 -0.1350  0.3134  0.2732
17007TIP3    H172436   2.800   7.232   5.741 -1.6634  1.2790  0.2026
17007TIP3    H272437   2.890   7.353   5.726 -0.2099  0.2386  0.4425
17008TIP3   OH272438   1.385   1.662   5.998  0.4912 -0.0696  0.0167
17008TIP3    H172439   1.461   1.605   5.991  0.9853  0.3944  1.4557
17008TIP3    H272440   1.337   1.629   6.074  1.5848  2.3229  1.8157
17009TIP3   OH272441   3.670   7.169   5.414 -0.3462 -1.0281  0.0290
17009TIP3    H172442   3.656   7.125   5.498 -0.1696 -0.2409  0.4657
17009TIP3    H272443   3.586   7.211   5.395  0.1147  0.1573  0.6011
17010TIP3   OH272444   3.407   6.219   3.396 -0.5006  0.3584 -0.0037
17010TIP3    H172445   3.473   6.153   3.379 -0.8698  0.2234 -0.9097
17010TIP3    H272446   3.375   6.198   3.484  2.3263  1.8570  1.4590
17011TIP3   OH272447   1.462   1.292   4.189 -0.1718  0.5456 -0.0877
17011TIP3    H172448   1.472   1.318   4.281  1.0600  0.2320 -0.1219
17011TIP3    H272449   1.453   1.197   4.193  0.0862  0.5118 -0.3024
17012TIP3   OH272450   1.554   0.389   4.602  0.5014  0.1263 -0.2994
17012TIP3    H172451   1.643   0.412   4.627  1.3137 -2.4314 -0.7297
17012TIP3    H272452   1.562   0.304   4.560 -2.1647 -0.1965 -0.2302
17013TIP3   OH272453   3.861   0.973   6.227  0.0331  0.1751 -0.2301
17013TIP3    H172454   3.775   0.931   6.225  0.7085 -1.2864  0.4965
17013TIP3    H272455   3.920   0.909   6.188  0.7977  1.1954 -0.7861
17014TIP3   OH272456   3.051   7.087   2.892 -0.1511 -0.4683 -0.3059
17014TIP3    H172457   2.993   7.146   2.939  0.2994  1.4510 -2.0631
17014TIP3    H272458   3.076   7.021   2.956 -0.4054  1.4414  1.8228
17015TIP3   OH272459   2.658   0.246   5.310 -0.0845 -0.1314 -0.7839
17015TIP3    H172460   2.751   0.227   5.295 -0.4508 -2.7209  0.0501
17015TIP3    H272461   2.657   0.291   5.395  0.4541  0.5446 -1.1245
17016TIP3   OH272462   5.931   1.167   5.114  0.2706  0.0084  0.8300
17016TIP3    H172463   5.970   1.170   5.201 -1.9925 -0.2904  1.8869
17016TIP3    H272464   5.929   1.074   5.091 -0.5130 -0.0466  1.1099
17017TIP3   OH272465   1.850   5.071   4.807 -0.0558 -0.1191 -0.0007
17017TIP3    H172466   1.798   5.074   4.727 -1.8901 -0.5793  1.1564
17017TIP3    H272467   1.903   4.992   4.799  0.5664  0.3987 -1.2160
17018TIP3   OH272468   1.710   1.912   6.068 -0.0252  0.0036 -0.0087
17018TIP3    H172469   1.740   1.957   5.989 -1.5633  1.4584  0.2015
17018TIP3    H272470   1.654   1.842   6.036 -2.2657  1.8201 -0.1933
17019TIP3   OH272471   0.039   1.233   5.000 -0.4081 -0.8616 -0.7669
17019TIP3    H172472  -0.013   1.166   4.956 -1.6085 -0.5974  0.2199
17019TIP3    H272473   0.090   1.186   5.065 -0.8218 -0.8833 -0.4608
17020TIP3   OH272474   3.091   1.945   5.244 -0.2774  0.0301  0.2086
17020TIP3    H172475   3.069   1.981   5.158  1.4204  0.2725 -0.1418
17020TIP3    H272476   3.104   2.021   5.300 -1.5097 -0.1287  0.7333
17021TIP3   OH272477   3.634   1.506   5.848 -0.0090  0.6644 -0.4812
17021TIP3    H172478   3.618   1.472   5.760 -1.0118  2.9869 -1.2261
17021TIP3    H272479   3.578   1.453   5.904 -0.1161 -0.1752 -1.3640
17022TIP3   OH272480   5.016   6.532   4.580 -0.0244  0.2209 -0.1405
17022TIP3    H172481   5.002   6.615   4.534 -0.4323 -0.2510 -0.8845
17022TIP3    H272482   4.948   6.529   4.646 -0.9853 -0.2216 -1.1280
17023TIP3   OH272483   0.385   2.969   4.827 -0.2143  0.2680 -0.4464
17023TIP3    H172484   0.342   2.900   4.777 -0.8518  0.5795 -0.3296
17023TIP3    H272485   0.469   2.931   4.854 -1.2593 -1.0455  1.0405
17024TIP3   OH272486   0.878   2.685   4.663  0.4575 -0.2629 -0.0696
17024TIP3    H172487   0.856   2.717   4.750  0.8379  0.6534 -0.3017
17024TIP3    H272488   0.843   2.752   4.604  2.8749  0.6789 -0.4948
17025TIP3   OH272489   1.897   2.157   3.937 -0.3823 -0.1165  0.0525
17025TIP3    H172490   1.848   2.217   3.880 -0.6314 -0.1210  0.2650
17025TIP3    H272491   1.898   2.075   3.888 -0.2094  0.0034 -0.1507
17026TIP3   OH272492   3.742   3.120   4.498 -0.1290  0.3134 -0.1045
17026TIP3    H172493   3.750   3.208   4.535  0.8012  0.2919 -0.2377
17026TIP3    H272494   3.816   3.113   4.438  0.2807 -0.8534  0.5289
17027TIP3   OH272495   2.726   2.348   5.346 -0.4657  0.2557  0.0742
17027TIP3    H172496   2.675   2.429   5.342 -1.6446 -0.3574  2.0132
17027TIP3    H272497   2.790   2.364   5.415  1.0040  0.4506 -1.3041
17028TIP3   OH272498   3.139   0.241   5.545  0.3485 -0.6534  0.6092
17028TIP3    H172499   3.162   0.199   5.628  0.0829 -0.2118  0.9161
17028TIP3    H272500   3.219   0.238   5.493  0.6692 -0.4755  1.0819
17029TIP3   OH272501   1.969   1.061   4.408 -0.3615 -0.3974  0.2789
17029TIP3    H172502   2.043   1.114   4.379 -0.7781 -0.1802 -0.3913
17029TIP3    H272503   1.906   1.066   4.336 -1.2377 -0.1659  1.0474
17030TIP3   OH272504   1.545   0.557   3.818  0.0797  0.3613  0.3176
17030TIP3    H172505   1.522   0.584   3.729  0.9906  0.4537  0.0998
17030TIP3    H272506   1.575   0.638   3.860  1.6793 -0.0718  0.0386
17031TIP3   OH272507   5.234   1.326   4.365 -0.3069 -0.1284  0.2209
17031TIP3    H172508   5.327   1.305   4.367 -0.3231 -0.2476 -0.1998
17031TIP3    H272509   5.194   1.266   4.428 -0.3213 -1.2165 -0.7972
17032TIP3   OH272510   4.125   6.238   0.291 -0.0941  0.1094  0.3161
17032TIP3    H172511   4.129   6.200   0.378 -3.4187 -2.3418 -0.5179
17032TIP3    H272512   4.122   6.332   0.306 -0.9947 -0.2912  2.8454
17033TIP3   OH272513   2.485   6.874   2.267  0.0648  0.1118  0.2530
17033TIP3    H172514   2.443   6.823   2.197 -0.2411 -0.4521  0.8444
17033TIP3    H272515   2.571   6.834   2.277  0.9315  1.5577 -1.2729
17034TIP3   OH272516   4.164   2.971   4.377  0.1794 -0.3694 -0.1276
17034TIP3    H172517   4.228   2.913   4.419  0.5233 -0.3654 -0.6393
17034TIP3    H272518   4.215   3.021   4.313 -0.1948  0.1871  0.0031
17035TIP3   OH272519   2.561   0.642   4.323 -0.1499 -0.6608 -0.0969
17035TIP3    H172520   2.474   0.679   4.308  0.6799  1.7715  0.8228
17035TIP3    H272521   2.584   0.669   4.412  1.8011 -0.7625 -0.5446
17036TIP3   OH272522   3.641   7.151   5.954  0.3295  0.2019  0.3152
17036TIP3    H172523   3.611   7.138   6.044 -1.6132 -0.0380 -0.3453
17036TIP3    H272524   3.582   7.217   5.918 -0.5466 -1.5285 -1.5473
17037TIP3   OH272525   2.549   0.327   5.599  0.2702 -0.3771  0.1435
17037TIP3    H172526   2.548   0.243   5.644  1.2367 -0.1187  0.6631
17037TIP3    H272527   2.586   0.388   5.663 -0.0302  0.3576 -0.3766
17038TIP3   OH272528   4.688   2.894   4.632 -0.0014  0.2783 -0.3142
17038TIP3    H172529   4.733   2.811   4.649  0.6474  0.9566  1.3876
17038TIP3    H272530   4.737   2.933   4.560  1.2403  0.3260  0.5379
17039TIP3   OH272531   2.751   3.533   3.310  0.0673 -0.4005  0.4850
17039TIP3    H172532   2.659   3.521   3.331 -0.0455 -3.2185 -1.4077
17039TIP3    H272533   2.753   3.611   3.254 -0.9372  0.5862  1.7950
17040TIP3   OH272534   4.330   2.780   5.538  0.4137 -0.4704 -0.5768
17040TIP3    H172535   4.320   2.759   5.631  1.0152 -1.4849 -0.7306
17040TIP3    H272536   4.376   2.705   5.501 -1.2859 -0.8363 -2.0369
17041TIP3   OH272537   2.000   6.853   3.504 -0.2673  0.8059 -0.2753
17041TIP3    H172538   2.078   6.844   3.559 -0.0089  0.5166 -0.6844
17041TIP3    H272539   1.980   6.947   3.506 -1.0214  0.6213  1.3415
17042TIP3   OH272540   1.775   3.037   4.823 -0.2488  0.1641  0.0575
17042TIP3    H172541   1.829   2.966   4.858 -1.3784 -0.4654  0.5747
17042TIP3    H272542   1.712   2.993   4.766  1.0499  1.1014 -2.1795
17043TIP3   OH272543   3.990   1.334   3.922  0.2825  0.4075 -0.3515
17043TIP3    H172544   4.055   1.379   3.868  2.5695 -0.6622  1.4524
17043TIP3    H272545   3.995   1.243   3.895  0.4135  0.1114  0.6412
17044TIP3   OH272546   1.795   0.243   6.004 -0.6853  0.1450 -0.9966
17044TIP3    H172547   1.713   0.198   6.022 -1.2351  0.8938 -1.6562
17044TIP3    H272548   1.848   0.178   5.957  0.0143 -1.1557  1.4472
17045TIP3   OH272549   2.017   0.059   3.748  0.3135 -0.1388 -0.4977
17045TIP3    H172550   1.944   0.032   3.693  0.6509  0.0576 -1.0434
17045TIP3    H272551   1.977   0.110   3.819 -0.1027 -0.2576 -0.6486
17046TIP3   OH272552   4.738   0.415   4.857 -0.2671  0.0315  0.3061
17046TIP3    H172553   4.655   0.436   4.900 -0.1147  0.8993  0.1900
17046TIP3    H272554   4.762   0.496   4.811 -1.3595 -1.4409 -3.0162
17047TIP3   OH272555   2.090   0.381   5.299 -0.1027 -0.5441  0.1816
17047TIP3    H172556   2.146   0.428   5.238  2.4121 -2.1095  1.1725
17047TIP3    H272557   2.059   0.448   5.361  3.4050 -0.0970  1.5748
17048TIP3   OH272558   3.619   1.104   5.665  0.1740 -0.4918 -0.0864
17048TIP3    H172559   3.580   1.072   5.584 -0.6931 -0.9976  0.5155
17048TIP3    H272560   3.545   1.140   5.714  0.9888  1.5680 -0.3394
17049TIP3   OH272561   5.324   6.849   4.078 -0.0214 -0.3744  0.2026
17049TIP3    H172562   5.256   6.783   4.069 -1.5685  1.1616  0.2589
17049TIP3    H272563   5.296   6.903   4.152  1.0306  0.5363 -0.0395
17050TIP3   OH272564   0.295   2.552   3.832  1.0090  0.4126 -0.0194
17050TIP3    H172565   0.360   2.616   3.801  1.2570  1.1617  1.9739
17050TIP3    H272566   0.245   2.599   3.898 -0.3217 -0.7745 -0.1537
17051TIP3   OH272567   3.872   6.305   5.208 -0.2689  0.6588  0.4568
17051TIP3    H172568   3.890   6.273   5.297 -0.5689  0.8139  0.5744
17051TIP3    H272569   3.873   6.226   5.154 -2.0354  0.3059  0.9105
17052TIP3   OH272570   5.828   0.098   5.302 -0.2058 -0.1725 -0.6761
17052TIP3    H172571   5.845   0.171   5.362  0.2944  1.2684 -2.5356
17052TIP3    H272572   5.737   0.073   5.320 -0.2332  0.6043  0.2916
17053TIP3   OH272573   3.768   2.494   3.652  0.6627 -0.0158  0.0106
17053TIP3    H172574   3.775   2.508   3.747  0.2647 -1.6892  0.3007
17053TIP3    H272575   3.677   2.468   3.639  0.8241 -0.1722 -0.7958
17054TIP3   OH272576   4.850   1.120   4.616 -0.0851 -0.3828  0.1103
17054TIP3    H172577   4.794   1.187   4.578 -0.5779 -1.8154 -1.7846
17054TIP3    H272578   4.789   1.057   4.656  0.4220  1.1040  3.3729
17055TIP3   OH272579   3.065   7.283   4.388  0.2629  0.3652  0.1685
17055TIP3    H172580   3.033   7.219   4.324  0.9328  1.0026 -0.8034
17055TIP3    H272581   2.986   7.326   4.420 -0.0578  0.1928 -0.3859
17056TIP3   OH272582   5.117   1.162   4.567 -0.0486  0.3220 -0.4514
17056TIP3    H172583   5.148   1.149   4.657  0.3683  0.5706 -0.5603
17056TIP3    H272584   5.024   1.139   4.571 -0.2476  1.2221  0.2534
17057TIP3   OH272585   5.905   7.137   5.295 -0.3993 -0.0184 -0.3990
17057TIP3    H172586   5.986   7.132   5.246  0.8984 -2.2162  1.8019
17057TIP3    H272587   5.883   7.230   5.297  1.2129  0.4382 -2.3449
17058TIP3   OH272588   6.232   1.455   4.993 -0.3976 -0.0360 -0.0679
17058TIP3    H172589   6.242   1.452   5.089 -1.0287  2.8435  0.1324
17058TIP3    H272590   6.306   1.507   4.963  0.5455 -2.0364 -1.3262
17059TIP3   OH272591   4.633   6.449   5.592  0.5151 -0.2943  0.1877
17059TIP3    H172592   4.660   6.375   5.646  1.8779 -0.0835 -0.1837
17059TIP3    H272593   4.607   6.516   5.655  2.4388  0.0803  0.6227
17060TIP3   OH272594   6.646   4.931   5.084  0.1027  0.4153 -0.3469
17060TIP3    H172595   6.653   4.980   5.166  0.6874  0.4728 -0.4260
17060TIP3    H272596   6.642   4.998   5.016 -0.1533  0.3653 -0.3796
17061TIP3   OH272597   4.093   5.941   3.405 -0.0078 -0.4058 -0.0185
17061TIP3    H172598   4.078   5.899   3.489  0.2691 -1.8200 -0.6607
17061TIP3    H272599   4.079   6.034   3.422  1.1010 -0.5534  1.8348
17062TIP3   OH272600   5.281   1.002   2.901 -0.3296 -0.1196 -0.1143
17062TIP3    H172601   5.363   0.994   2.950  0.8161 -1.3362 -2.2054
17062TIP3    H272602   5.258   0.912   2.877 -0.6468  0.5005 -2.1842
17063TIP3   OH272603   3.735   2.510   5.063 -0.1425  0.5518  0.3210
17063TIP3    H172604   3.676   2.439   5.037  2.4121 -1.1010 -1.1415
17063TIP3    H272605   3.680   2.588   5.059 -2.4633 -1.0284 -0.1626
17064TIP3   OH272606   4.298   1.061   5.331  0.2483  0.7502  0.4385
17064TIP3    H172607   4.254   1.142   5.358  1.2574  0.7790  2.0859
17064TIP3    H272608   4.358   1.042   5.403  2.5181  0.3853 -1.4942
17065TIP3   OH272609   3.390   0.943   5.803 -0.1205 -0.1508 -0.4924
17065TIP3    H172610   3.451   0.909   5.869 -2.9589  0.1758  2.4660
17065TIP3    H272611   3.392   1.038   5.814 -2.4805 -0.2179  0.9977
17066TIP3   OH272612   6.957   2.598   4.705  0.4303 -0.0327  0.2141
17066TIP3    H172613   6.922   2.679   4.668  0.3861 -0.0409  0.2375
17066TIP3    H272614   7.031   2.576   4.649 -0.1836 -0.5245 -0.4163
17067TIP3   OH272615   4.581   2.939   4.312 -0.1275  0.4142 -0.5100
17067TIP3    H172616   4.572   2.930   4.217  3.0538  0.3522 -0.8660
17067TIP3    H272617   4.517   2.877   4.348  0.7525 -1.8211 -2.6492
17068TIP3   OH272618   5.548   0.420   5.610 -0.1433 -0.1784  0.0511
17068TIP3    H172619   5.517   0.385   5.526  0.4232 -2.2468  0.6753
17068TIP3    H272620   5.469   0.433   5.661 -0.6014  2.2597 -1.2088
17069TIP3   OH272621   4.227   6.104   5.139 -0.1219 -0.3880  0.0648
17069TIP3    H172622   4.239   6.011   5.156  1.0014 -0.0466  1.1731
17069TIP3    H272623   4.190   6.107   5.050 -1.1615 -1.9272  0.4106
17070TIP3   OH272624   4.005   6.790   4.811 -0.0709  0.5818  0.0967
17070TIP3    H172625   3.998   6.856   4.742  2.3370  0.1903 -0.5717
17070TIP3    H272626   3.959   6.827   4.886 -0.1212  2.3193 -0.7843
17071TIP3   OH272627   4.846   2.988   4.435 -0.3020  0.2464 -0.0614
17071TIP3    H172628   4.807   2.949   4.357  0.6418 -2.4224  0.7490
17071TIP3    H272629   4.852   3.081   4.414 -0.6186 -0.3143 -2.9386
17072TIP3   OH272630   5.289   0.368   5.705 -0.6918 -0.1793  0.2237
17072TIP3    H172631   5.259   0.459   5.711 -3.0758 -1.0016  1.4764
17072TIP3    H272632   5.248   0.335   5.625 -1.0588 -0.5537  0.5601
17073TIP3   OH272633   4.972   1.737   4.346 -0.2444  0.6862  0.2408
17073TIP3    H172634   4.985   1.719   4.439  1.1538 -0.7859 -0.2190
17073TIP3    H272635   4.885   1.703   4.327 -1.0887  2.1827  1.2745
17074TIP3   OH272636   5.622   0.321   4.469  0.1320 -0.2552  0.8262
17074TIP3    H172637   5.578   0.317   4.384  1.0870 -0.7300  0.3452
17074TIP3    H272638   5.686   0.250   4.466  1.2201  0.6806  1.3422
17075TIP3   OH272639   2.141   1.050   5.497  0.2227  0.1932 -0.7423
17075TIP3    H172640   2.078   0.986   5.529  0.5687  0.1346 -0.1592
17075TIP3    H272641   2.095   1.097   5.428  0.1943 -1.1113 -1.6233
17076TIP3   OH272642   4.149   3.373   4.184 -0.0973  0.3197  0.5297
17076TIP3    H172643   4.148   3.277   4.177 -0.9777  0.4339 -0.9811
17076TIP3    H272644   4.234   3.399   4.151  0.0035  0.0826  0.6013
17077TIP3   OH272645   6.494   6.850   5.568  0.5066 -0.4942 -0.4251
17077TIP3    H172646   6.433   6.815   5.632  0.3138 -0.5143 -0.6222
17077TIP3    H272647   6.574   6.800   5.581  0.1704 -1.1442 -0.8371
17078TIP3   OH272648   6.011   0.297   3.319  0.5138  0.3467  0.0080
17078TIP3    H172649   5.957   0.360   3.272  1.2916  0.3318 -0.9449
17078TIP3    H272650   5.972   0.212   3.298  0.1519  0.4290  0.3515
17079TIP3   OH272651   2.413   6.870   5.132  0.3893 -0.0291  0.2344
17079TIP3    H172652   2.323   6.897   5.145  0.6291  1.7291 -1.4003
17079TIP3    H272653   2.449   6.860   5.220 -0.9127  0.9629  0.8866
17080TIP3   OH272654   6.557   0.440   4.399  0.3262  0.2531 -0.3581
17080TIP3    H172655   6.646   0.413   4.422 -0.1031 -0.1378  0.9333
17080TIP3    H272656   6.564   0.532   4.377  0.8776  0.5171  0.8670
17081TIP3   OH272657   4.332   0.643   5.167  0.0437  0.4427  0.3408
17081TIP3    H172658   4.280   0.722   5.151 -0.9128 -0.4648 -1.2191
17081TIP3    H272659   4.274   0.586   5.217 -0.1501 -0.2183 -0.6256
17082TIP3   OH272660   0.019   6.862   3.415  0.3472 -0.4363 -0.2172
17082TIP3    H172661   0.084   6.932   3.416  0.9635 -0.9959 -0.6154
17082TIP3    H272662  -0.063   6.905   3.390  0.4824  0.3371  0.6686
17083TIP3   OH272663   4.247   0.782   4.433 -0.3142  0.2742 -0.2546
17083TIP3    H172664   4.318   0.775   4.497  0.8658 -1.1920 -1.6554
17083TIP3    H272665   4.279   0.732   4.357 -1.5245  2.1951 -2.0984
17084TIP3   OH272666   6.271   7.175   5.333 -0.2676 -0.3507 -0.2478
17084TIP3    H172667   6.230   7.095   5.367 -0.0611 -0.1667  0.4557
17084TIP3    H272668   6.232   7.246   5.385  0.4486 -0.1105 -0.0302
17085TIP3   OH272669   2.257   0.826   5.053 -0.3955  0.1442 -0.1160
17085TIP3    H172670   2.252   0.907   5.103  1.4716 -0.2513  0.7786
17085TIP3    H272671   2.204   0.843   4.975 -2.2481  1.2450  1.3235
17086TIP3   OH272672   6.397   0.674   5.341  0.0549  0.3194  0.8456
17086TIP3    H172673   6.328   0.618   5.376 -1.1045  1.6904  0.8184
17086TIP3    H272674   6.444   0.706   5.418 -0.2434  0.5174  0.9445
17087TIP3   OH272675   4.412   1.198   4.827  0.2645  0.8207  0.1140
17087TIP3    H172676   4.398   1.248   4.747  2.4966  2.5931  0.7884
17087TIP3    H272677   4.325   1.163   4.849 -0.6748  1.6451 -2.1771
17088TIP3   OH272678   5.299   0.801   3.699  0.8989 -0.2909  0.3770
17088TIP3    H172679   5.374   0.788   3.642 -0.7604 -0.9832 -1.7195
17088TIP3    H272680   5.250   0.719   3.694 -0.0834  0.1896  1.6224
17089TIP3   OH272681   5.404   6.537   5.272  0.3936 -0.2461  0.2277
17089TIP3    H172682   5.485   6.519   5.319  0.6452 -0.7656 -0.3927
17089TIP3    H272683   5.395   6.464   5.212 -1.0665 -0.6986  0.9912
17090TIP3   OH272684   3.770   2.708   2.963  0.4028  0.0905  0.0344
17090TIP3    H172685   3.733   2.786   3.004  1.4379  1.8838 -2.3808
17090TIP3    H272686   3.845   2.685   3.019  1.3161  2.0502 -0.3376
17091TIP3   OH272687   4.668   1.799   5.750  0.5594  0.1182 -0.0497
17091TIP3    H172688   4.739   1.753   5.795 -0.2044 -0.5734  0.4668
17091TIP3    H272689   4.691   1.892   5.758  1.2178 -0.0814  0.4359
17092TIP3   OH272690   1.662   5.833   3.315 -0.1799 -0.2618  0.1765
17092TIP3    H172691   1.572   5.857   3.337  0.1404  0.4344  0.7383
17092TIP3    H272692   1.695   5.790   3.394  0.3262  0.4414  0.3449
17093TIP3   OH272693   6.261   0.529   4.666  0.1576  0.1103 -0.6784
17093TIP3    H172694   6.245   0.469   4.593  0.5180  1.4036 -1.8387
17093TIP3    H272695   6.179   0.531   4.714 -0.1830 -0.4989 -1.2236
17094TIP3   OH272696   6.199   1.440   5.585 -0.3904  0.2439 -0.2293
17094TIP3    H172697   6.223   1.347   5.590 -0.3740  0.3040  0.9325
17094TIP3    H272698   6.106   1.439   5.566 -0.4653 -0.0233  0.1275
17095TIP3   OH272699   4.469   1.988   5.246 -0.2310  0.5569  0.0095
17095TIP3    H172700   4.493   1.901   5.279 -0.0031  0.7309  0.2965
17095TIP3    H272701   4.420   1.969   5.166 -1.8889  0.1111  1.1253
17096TIP3   OH272702   1.548   2.894   5.903 -0.5132 -0.1876  0.3099
17096TIP3    H172703   1.599   2.936   5.973 -3.1399  1.1410  1.4835
17096TIP3    H272704   1.528   2.807   5.936 -0.3009 -0.1686  0.4885
17097TIP3   OH272705   7.065   2.324   5.758  0.6458  0.2138  0.0361
17097TIP3    H172706   7.104   2.257   5.815  0.5200 -0.3990 -0.5947
17097TIP3    H272707   7.118   2.321   5.678 -1.0347 -1.0134 -1.0481
17098TIP3   OH272708   4.658   1.165   5.760 -0.4268 -0.3332 -0.5062
17098TIP3    H172709   4.648   1.125   5.674 -1.9451 -1.0211 -0.0513
17098TIP3    H272710   4.635   1.257   5.748 -0.8353 -0.4742 -0.8021
17099TIP3   OH272711   3.017   3.153   3.592  0.3235 -0.2913  0.3844
17099TIP3    H172712   3.018   3.090   3.520  1.4021  0.7054 -0.4974
17099TIP3    H272713   3.103   3.144   3.633  0.7608  1.1140 -0.2099
17100TIP3   OH272714   5.923   1.411   5.562  0.3744 -0.0781 -0.3845
17100TIP3    H172715   5.865   1.483   5.539  0.5935  0.7446  1.5764
17100TIP3    H272716   5.867   1.348   5.608  0.5023 -0.4866 -0.7758
17101TIP3   OH272717   4.346   3.136   4.230 -0.1064 -0.0824  0.0578
17101TIP3    H172718   4.424   3.162   4.278 -0.1682  0.0233  0.1036
17101TIP3    H272719   4.332   3.207   4.166 -0.0912 -0.1639 -0.0368
17102TIP3   OH272720   4.474   4.369   5.318  0.5168  0.2025 -0.2787
17102TIP3    H172721   4.476   4.358   5.222  0.1156  1.4214 -0.4315
17102TIP3    H272722   4.405   4.309   5.347  0.1960  0.2996 -0.8187
17103TIP3   OH272723   0.281   0.079   3.786  0.7588  0.2062  0.1413
17103TIP3    H172724   0.216   0.149   3.792 -1.2131 -1.5463 -0.2525
17103TIP3    H272725   0.293   0.049   3.876  0.5273  0.0989  0.1374
17104TIP3   OH272726   3.072   1.013   6.362  0.1971  0.0757  0.0102
17104TIP3    H172727   2.978   1.016   6.347  0.4735 -0.1276 -1.8539
17104TIP3    H272728   3.096   1.103   6.383 -0.5249 -0.0188  1.2960
17105TIP3   OH272729   3.553   3.732   5.272 -0.2444 -0.3166 -0.1727
17105TIP3    H172730   3.483   3.787   5.237 -0.9380 -2.8054 -2.9222
17105TIP3    H272731   3.519   3.701   5.356 -0.6081  1.9112  0.5215
17106TIP3   OH272732   4.453   6.656   4.284  0.0370 -0.0237  0.1322
17106TIP3    H172733   4.534   6.654   4.234 -0.1329 -1.5682 -0.1245
17106TIP3    H272734   4.481   6.659   4.376  0.3763  0.0281  0.0253
17107TIP3   OH272735   4.567   0.398   3.213 -0.7630 -0.1719 -0.0876
17107TIP3    H172736   4.591   0.360   3.297  0.9934  2.1479  0.5248
17107TIP3    H272737   4.591   0.332   3.148 -1.4868 -1.6914  1.1802
17108TIP3   OH272738   4.186   0.254   4.712 -0.0960 -0.2566 -0.1660
17108TIP3    H172739   4.218   0.335   4.672  1.0285 -1.1540 -1.1191
17108TIP3    H272740   4.188   0.271   4.806  1.1194  0.4725 -0.3189
17109TIP3   OH272741   4.009   0.190   4.281  0.8226  0.0115  0.3500
17109TIP3    H172742   3.917   0.176   4.304  0.5176  1.2147 -0.1406
17109TIP3    H272743   4.027   0.123   4.215  0.3425 -0.3248  0.5560
17110TIP3   OH272744   6.089   4.219   4.822 -0.6782  0.4476  0.0766
17110TIP3    H172745   6.117   4.234   4.732 -0.6082  0.5508  0.1152
17110TIP3    H272746   6.095   4.124   4.834  1.1188  0.5964  0.5588
17111TIP3   OH272747   4.317   7.168   5.285 -0.0468  0.1022  0.5454
17111TIP3    H172748   4.290   7.077   5.275 -0.5631  0.5863 -3.2733
17111TIP3    H272749   4.401   7.164   5.330  0.3488 -2.3491 -0.3316
17112TIP3   OH272750   4.498   7.137   5.472 -0.3049 -0.1773  0.0125
17112TIP3    H172751   4.500   7.077   5.546  3.0722 -0.1228  0.0208
17112TIP3    H272752   4.519   7.083   5.396 -1.0941  0.2897 -0.5576
17113TIP3   OH272753   6.312   1.163   5.598 -0.1238  0.7617 -0.5031
17113TIP3    H172754   6.223   1.131   5.607  0.9212 -1.9578  0.8732
17113TIP3    H272755   6.353   1.105   5.534  0.8065  1.6570 -0.7485
17114TIP3   OH272756   3.720   1.833   4.388  0.2999 -0.0940  0.0537
17114TIP3    H172757   3.798   1.873   4.425  0.4226 -0.0032 -0.3031
17114TIP3    H272758   3.744   1.742   4.371  0.5980  0.1443 -0.8441
17115TIP3   OH272759   5.695   2.615   5.246  0.2027  0.2613 -0.8121
17115TIP3    H172760   5.604   2.622   5.216  0.2888  0.0622 -1.1250
17115TIP3    H272761   5.694   2.653   5.334 -0.2036  0.1701 -0.7744
17116TIP3   OH272762   6.570   5.699   3.443  0.3602 -0.2483  0.5056
17116TIP3    H172763   6.652   5.747   3.436 -0.0471  0.3091 -0.6916
17116TIP3    H272764   6.596   5.608   3.454  1.1574 -0.3264 -1.7253
17117TIP3   OH272765   4.994   0.005   3.002  0.0798 -0.0139 -0.1034
17117TIP3    H172766   5.008  -0.017   2.910 -1.5921 -0.8486 -0.1883
17117TIP3    H272767   5.025   0.095   3.011  3.5666 -1.0766 -0.6428
17118TIP3   OH272768   2.166   6.691   4.043  0.0755 -0.0162 -0.0793
17118TIP3    H172769   2.179   6.767   3.986  3.7352 -0.9830 -0.6574
17118TIP3    H272770   2.173   6.726   4.132 -2.1726  0.9159 -0.2355
17119TIP3   OH272771   5.526   7.118   5.358  0.3090 -0.5103  0.0422
17119TIP3    H172772   5.549   7.117   5.451 -0.6465  1.0439  0.2990
17119TIP3    H272773   5.487   7.032   5.342  0.7397 -0.8898  0.9942
17120TIP3   OH272774   3.419   7.049   3.262  0.0031  0.0848 -0.2601
17120TIP3    H172775   3.435   6.996   3.340 -0.4643  2.1073  1.2542
17120TIP3    H272776   3.338   7.015   3.225  0.3627 -1.0482 -0.0168
17121TIP3   OH272777   5.374   0.334   5.119  0.2068  0.1421  0.2197
17121TIP3    H172778   5.296   0.282   5.101 -0.3307  1.0269  0.0006
17121TIP3    H272779   5.447   0.275   5.097 -0.3794 -0.8097  0.7763
17122TIP3   OH272780   5.477   1.194   4.732  0.4494  0.5376 -0.1321
17122TIP3    H172781   5.484   1.226   4.642  0.7942 -1.1997 -0.7323
17122TIP3    H272782   5.383   1.197   4.751  0.3084  0.2462 -0.7872
17123TIP3   OH272783   4.384   1.008   3.740  0.5663 -0.7275 -0.6791
17123TIP3    H172784   4.350   0.922   3.766 -1.8058 -0.4806 -2.7147
17123TIP3    H272785   4.387   1.058   3.822  0.2320 -2.1794  0.2492
17124TIP3   OH272786   6.097   0.018   4.549  0.4071 -0.1764 -0.9758
17124TIP3    H172787   6.119  -0.054   4.491 -0.9487 -2.2435  0.9937
17124TIP3    H272788   6.182   0.048   4.582  1.0499 -0.1829 -2.5759
17125TIP3   OH272789   4.499   1.636   5.999 -0.4926  0.0918 -0.4946
17125TIP3    H172790   4.581   1.588   5.988 -0.8078 -0.7593  0.7277
17125TIP3    H272791   4.501   1.704   5.931  1.4905  0.4705 -0.0708
17126TIP3   OH272792   5.620   6.690   3.397  0.0296  0.2186  0.2721
17126TIP3    H172793   5.553   6.622   3.395 -0.6305  0.8599  0.0407
17126TIP3    H272794   5.699   6.648   3.362 -0.8379  0.0576 -1.5730
17127TIP3   OH272795   4.640   0.005   4.755 -0.2121 -0.0945 -0.2388
17127TIP3    H172796   4.550  -0.022   4.738 -0.7585  0.9226  0.9699
17127TIP3    H272797   4.656  -0.022   4.846  1.8360 -3.2864 -1.4483
17128TIP3   OH272798   4.002   0.720   3.558 -0.2533 -0.7850 -0.2221
17128TIP3    H172799   3.979   0.730   3.650 -0.6598  0.1842 -0.4227
17128TIP3    H272800   3.992   0.808   3.521  2.8738 -0.5145 -0.5252
17129TIP3   OH272801   1.892   2.350   4.248  0.2003 -0.2404  0.5821
17129TIP3    H172802   1.920   2.361   4.339 -1.0451 -1.3491  1.1306
17129TIP3    H272803   1.967   2.309   4.205 -0.2417 -2.4985  1.8507
17130TIP3   OH272804   4.864   2.316   4.638 -0.1654  0.3798 -0.2505
17130TIP3    H172805   4.853   2.224   4.614 -0.8404  0.9984 -2.3945
17130TIP3    H272806   4.898   2.313   4.727 -0.8112 -1.9323 -0.0479
17131TIP3   OH272807   5.322   7.302   5.940  0.3508  0.4848  0.1139
17131TIP3    H172808   5.410   7.338   5.950  0.2741  0.7454 -0.1573
17131TIP3    H272809   5.329   7.241   5.866  0.8298 -1.1745  1.4891
17132TIP3   OH272810   5.674   1.068   4.332 -0.2619  0.2523  0.3286
17132TIP3    H172811   5.590   1.065   4.287  0.4281 -2.9300 -0.8577
17132TIP3    H272812   5.656   1.038   4.420 -0.5136  0.4763  0.3551
17133TIP3   OH272813   4.983   2.349   5.483 -0.4615 -0.1080 -0.4657
17133TIP3    H172814   4.926   2.291   5.431 -2.9726 -0.4413  2.4890
17133TIP3    H272815   4.930   2.370   5.560  2.3783  2.0202  0.9564
17134TIP3   OH272816   4.775   2.454   5.193  0.0087 -0.2003  0.8453
17134TIP3    H172817   4.766   2.452   5.288  4.7694  0.6809  1.4115
17134TIP3    H272818   4.751   2.544   5.169  1.0441  0.2567  1.4977
17135TIP3   OH272819   2.412   7.051   4.922  0.4991  0.3282 -1.0311
17135TIP3    H172820   2.394   7.127   4.978  1.4738  0.1249 -0.4215
17135TIP3    H272821   2.429   6.980   4.984 -0.0566 -0.3001 -1.5998
17136TIP3   OH272822   3.854   0.907   5.158 -0.1267 -0.0226  0.8303
17136TIP3    H172823   3.779   0.850   5.140 -1.3903  2.0726 -0.8078
17136TIP3    H272824   3.834   0.989   5.112  2.6954  0.9578  1.2140
17137TIP3   OH272825   5.224   1.768   5.285  0.7925  0.0301  0.1797
17137TIP3    H172826   5.312   1.731   5.295 -0.1462 -1.6099  2.9957
17137TIP3    H272827   5.170   1.694   5.257 -0.1050  0.5006  0.6492
17138TIP3   OH272828   5.712   0.367   4.737  0.1326  0.2661 -0.0725
17138TIP3    H172829   5.629   0.394   4.776 -0.0534  0.1848 -0.4187
17138TIP3    H272830   5.697   0.370   4.643  0.2362 -0.6552 -0.1193
17139TIP3   OH272831   5.820   0.372   5.756 -0.3376 -0.0701  0.1280
17139TIP3    H172832   5.885   0.318   5.802 -0.2616 -0.4239 -0.3836
17139TIP3    H272833   5.739   0.320   5.759  0.1730 -1.0407 -1.9049
17140TIP3   OH272834   4.513   2.669   3.379  0.2429  0.1855  0.0248
17140TIP3    H172835   4.476   2.725   3.311  0.3419  1.1910  0.7825
17140TIP3    H272836   4.608   2.673   3.364  0.2326 -0.0309 -0.1047
17141TIP3   OH272837   6.226   2.311   2.879  0.5270  0.5655  0.4307
17141TIP3    H172838   6.240   2.246   2.949  0.3113 -0.7006 -0.6705
17141TIP3    H272839   6.177   2.381   2.921  0.1800 -0.2918  1.4921
17142TIP3   OH272840   4.180   0.900   4.818 -0.9969  0.0216  0.2683
17142TIP3    H172841   4.096   0.871   4.782 -1.0614  2.3619 -1.6308
17142TIP3    H272842   4.163   0.913   4.911 -2.7328  0.3902 -0.0802
17143TIP3   OH272843   2.523   1.446   5.604  0.0925 -0.1005  0.2529
17143TIP3    H172844   2.570   1.448   5.687  0.3470 -0.5747  0.1247
17143TIP3    H272845   2.486   1.357   5.600 -1.8098  0.6197  0.9004
17144TIP3   OH272846   4.611   2.232   5.066 -0.3844  0.0336 -0.3391
17144TIP3    H172847   4.541   2.204   5.124 -0.6675  2.0773  0.3535
17144TIP3    H272848   4.643   2.314   5.106  1.0195  0.1833 -1.7480
17145TIP3   OH272849   4.884   2.999   5.692 -0.3062 -0.4801  0.4929
17145TIP3    H172850   4.829   2.935   5.737 -0.4299 -0.1758  0.7776
17145TIP3    H272851   4.974   2.975   5.716 -0.3363 -0.7171  0.3705
17146TIP3   OH272852   3.454   1.077   3.394 -0.2855  0.4447  0.8247
17146TIP3    H172853   3.457   1.016   3.467  1.6529  0.0595  0.4638
17146TIP3    H272854   3.377   1.050   3.343  1.1845 -2.5085  0.0257
17147TIP3   OH272855   4.525   0.087   5.589 -1.0857 -0.2079 -0.1357
17147TIP3    H172856   4.614   0.096   5.622 -0.7928  0.3542 -1.0508
17147TIP3    H272857   4.524   0.002   5.545 -0.2526  0.8804 -2.3348
17148TIP3   OH272858   6.755   3.221   2.586  0.4027  0.4981 -0.5695
17148TIP3    H172859   6.778   3.290   2.524 -1.2870  2.3756  0.7690
17148TIP3    H272860   6.659   3.227   2.593  0.4021 -0.8301  0.8717
17149TIP3   OH272861   4.978   2.710   6.158 -0.0756 -0.2146  0.3492
17149TIP3    H172862   4.905   2.671   6.206  0.0142  0.0831  0.7267
17149TIP3    H272863   5.019   2.636   6.112  0.2299 -0.6034  1.2324
17150TIP3   OH272864   6.222   3.045   2.903  0.2894 -0.2771 -0.6161
17150TIP3    H172865   6.288   2.978   2.918  0.8703 -0.2318 -2.8430
17150TIP3    H272866   6.253   3.121   2.952  1.3679 -0.5842 -0.8077
17151TIP3   OH272867   3.156   6.783   4.777  0.4504  0.0786  0.2015
17151TIP3    H172868   3.195   6.859   4.818 -0.3576 -0.4906  2.1182
17151TIP3    H272869   3.074   6.815   4.738  0.7101  0.4214 -0.0587
17152TIP3   OH272870   4.193   1.533   4.379  0.1343 -0.7490  0.3021
17152TIP3    H172871   4.134   1.488   4.319 -0.2314  0.6819 -0.4470
17152TIP3    H272872   4.143   1.539   4.461  1.4572 -4.6353  1.4904
17153TIP3   OH272873   4.557   0.782   6.121  0.4480  0.8793 -0.3058
17153TIP3    H172874   4.470   0.743   6.125  0.2494  1.3829  0.4692
17153TIP3    H272875   4.617   0.711   6.142  0.0874  0.9722  1.1363
17154TIP3   OH272876   5.667   0.936   2.784  0.5345 -0.5902 -0.0599
17154TIP3    H172877   5.697   0.889   2.706  1.8245  0.5489 -0.2634
17154TIP3    H272878   5.721   0.902   2.855  3.2302  2.2981 -0.6219
17155TIP3   OH272879   5.031   1.670   3.692  0.0036  0.2357 -0.7466
17155TIP3    H172880   5.127   1.673   3.690 -0.0164  0.6909 -0.9197
17155TIP3    H272881   5.003   1.746   3.643 -0.4558  1.6263  1.5889
17156TIP3   OH272882   6.393   0.853   4.000  0.7680  0.4094  0.2100
17156TIP3    H172883   6.413   0.942   4.029  0.7897  0.1392  1.0563
17156TIP3    H272884   6.303   0.838   4.030  1.3591 -0.4544  1.5900
17157TIP3   OH272885   6.628   5.306   4.414 -0.0335 -0.0341  0.3468
17157TIP3    H172886   6.591   5.392   4.435  0.3102  0.4846 -1.1015
17157TIP3    H272887   6.557   5.260   4.369  0.2061 -0.0326 -0.0305
17158TIP3   OH272888   4.694   0.350   5.810  0.1216 -0.0404 -0.0532
17158TIP3    H172889   4.650   0.372   5.892  1.8934  0.8581  0.6752
17158TIP3    H272890   4.654   0.409   5.745 -1.3481 -0.8214  0.1214
17159TIP3   OH272891   4.765   2.402   3.477 -0.4752 -0.2578  0.6351
17159TIP3    H172892   4.708   2.336   3.518 -1.3440  0.4264  0.5342
17159TIP3    H272893   4.819   2.435   3.549 -0.1607 -0.9503  0.7206
17160TIP3   OH272894   6.231   0.072   4.956  0.0113 -0.6003 -1.0047
17160TIP3    H172895   6.248   0.151   4.904 -0.3857 -0.1413 -0.4285
17160TIP3    H272896   6.137   0.072   4.970  0.0211 -1.1378 -0.9386
17161TIP3   OH272897   3.873   6.923   5.024  0.3612  0.2712 -0.3790
17161TIP3    H172898   3.887   6.975   5.103  1.0290 -0.5992  0.0893
17161TIP3    H272899   3.790   6.877   5.041  0.6463 -0.1293 -0.0639
17162TIP3   OH272900   6.956   0.439   4.797  0.0685  0.1686  0.1667
17162TIP3    H172901   6.905   0.482   4.865  0.1218  3.6301 -1.8784
17162TIP3    H272902   7.039   0.486   4.796  0.4008 -0.4113 -1.6819
17163TIP3   OH272903   4.626   2.741   5.662  0.1475 -0.5491 -0.1146
17163TIP3    H172904   4.572   2.750   5.741  0.1140  0.1921 -0.2192
17163TIP3    H272905   4.575   2.783   5.593  0.3983 -0.7598 -0.4306
17164TIP3   OH272906   3.392   0.803   6.066 -0.2583  0.3223  0.1482
17164TIP3    H172907   3.379   0.737   5.997 -0.5073 -1.2359  1.6440
17164TIP3    H272908   3.304   0.821   6.099 -0.3087  2.2526 -0.9917
17165TIP3   OH272909   4.746   1.026   5.497  0.2518 -0.1670  0.3636
17165TIP3    H172910   4.833   1.057   5.522  1.0603 -1.7762 -0.4080
17165TIP3    H272911   4.756   1.001   5.405 -0.4618 -2.4023  0.8771
17166TIP3   OH272912   6.678   5.953   4.643 -0.5525  1.1097 -0.4087
17166TIP3    H172913   6.749   5.935   4.581  0.4817  0.8327  0.8253
17166TIP3    H272914   6.599   5.921   4.600  0.4981 -1.3452 -0.5757
17167TIP3   OH272915   6.261   1.583   3.843  0.0778  0.3773 -0.2643
17167TIP3    H172916   6.328   1.522   3.873 -0.9279  0.0174  1.2842
17167TIP3    H272917   6.197   1.586   3.914 -1.1143  1.3824 -1.3525
17168TIP3   OH272918   5.008   0.548   4.710  0.0514  0.6858 -0.2800
17168TIP3    H172919   5.046   0.544   4.798  0.0102 -1.8010 -0.3394
17168TIP3    H272920   5.061   0.613   4.664  0.3916  1.6428  1.4325
17169TIP3   OH272921   5.018   0.890   4.508  0.4213  0.6946  0.3946
17169TIP3    H172922   4.949   0.873   4.444  0.9427  2.3886 -0.6551
17169TIP3    H272923   4.981   0.957   4.566  1.5974  2.5350 -0.9274
17170TIP3   OH272924   4.801   0.660   4.022  0.7065  0.2917 -0.0112
17170TIP3    H172925   4.714   0.682   4.055  0.5994 -1.4633  0.9670
17170TIP3    H272926   4.851   0.741   4.030 -0.7023  1.1996 -0.1670
17171TIP3   OH272927   3.789   2.886   4.964 -0.3202  0.2561  0.4711
17171TIP3    H172928   3.753   2.852   4.883 -0.3802  1.3530  0.0229
17171TIP3    H272929   3.863   2.941   4.937 -0.0922  0.3170  1.1856
17172TIP3   OH272930   4.380   1.749   5.652 -0.4352 -0.1090 -0.0644
17172TIP3    H172931   4.362   1.821   5.591 -1.1577  1.2020  1.6873
17172TIP3    H272932   4.464   1.772   5.691 -1.0005  0.1453  1.0090
17173TIP3   OH272933   3.492   0.986   4.740 -0.1280 -0.0824  0.0512
17173TIP3    H172934   3.429   0.949   4.801  0.3084 -0.6013  0.1900
17173TIP3    H272935   3.479   1.081   4.747 -0.2174 -0.1469  0.8089
17174TIP3   OH272936   5.368   1.655   6.324 -0.8178 -0.5645  0.1256
17174TIP3    H172937   5.277   1.677   6.307 -0.1766  1.1705 -1.3177
17174TIP3    H272938   5.410   1.656   6.238  0.5633 -1.3288  0.7671
17175TIP3   OH272939   5.275   6.198   3.596  0.5124  0.3277 -0.5977
17175TIP3    H172940   5.356   6.229   3.637 -0.2741  0.2689  1.0688
17175TIP3    H272941   5.211   6.202   3.667 -0.1293 -2.9424 -0.9618
17176TIP3   OH272942   2.575   2.536   4.771  0.6295  0.4231 -0.0513
17176TIP3    H172943   2.518   2.567   4.841 -0.0813 -1.0797  0.0498
17176TIP3    H272944   2.593   2.615   4.719 -1.0642  1.0424  0.2460
17177TIP3   OH272945   5.067   2.482   5.764 -0.2486  0.8865  0.0246
17177TIP3    H172946   4.979   2.445   5.755 -0.4007  1.1685  0.3589
17177TIP3    H272947   5.058   2.573   5.738  0.4285  0.3379 -2.2415
17178TIP3   OH272948   3.756   1.141   2.887  0.0402  0.0775 -0.8428
17178TIP3    H172949   3.685   1.123   2.825 -0.2050  1.8036 -1.0805
17178TIP3    H272950   3.736   1.087   2.963 -2.1979  1.4631 -0.4144
17179TIP3   OH272951   4.960   1.729   5.562 -0.1892 -0.2224  0.3164
17179TIP3    H172952   4.933   1.654   5.508  0.3688  1.1718 -1.9525
17179TIP3    H272953   5.035   1.696   5.611  1.8514 -0.4059 -2.7423
17180TIP3   OH272954   3.679   0.829   4.614  0.6257 -0.2175 -0.1611
17180TIP3    H172955   3.696   0.923   4.620  2.0637 -0.6243  3.6481
17180TIP3    H272956   3.593   0.818   4.653  0.7872 -0.5678  0.0924
17181TIP3   OH272957   4.165   1.150   4.932 -0.1391  0.2939  0.1159
17181TIP3    H172958   4.197   1.227   4.978  0.5991  0.0070  0.0891
17181TIP3    H272959   4.101   1.184   4.870  1.4514  1.0881 -1.1039
17182TIP3   OH272960   3.419   7.218   5.531 -0.6446 -0.6116 -0.4672
17182TIP3    H172961   3.454   7.246   5.615  0.5111 -1.7510 -0.5633
17182TIP3    H272962   3.336   7.175   5.553 -0.3292 -0.9334  0.0819
17183TIP3   OH272963   3.632   2.137   5.543  0.2350 -0.2632 -0.2823
17183TIP3    H172964   3.586   2.062   5.505  1.4265 -1.0294 -0.2638
17183TIP3    H272965   3.578   2.213   5.523 -0.6771 -1.0616 -0.8423
17184TIP3   OH272966   5.679   6.793   4.239  0.0281 -0.1501  0.7270
17184TIP3    H172967   5.761   6.768   4.196  0.1192 -0.4440  1.0746
17184TIP3    H272968   5.629   6.838   4.170 -0.2985 -1.6104 -0.0113
17185TIP3   OH272969   6.317   0.540   4.169 -0.5685 -0.5825 -0.0728
17185TIP3    H172970   6.364   0.479   4.226  0.2591 -0.2438 -0.3747
17185TIP3    H272971   6.318   0.623   4.216  0.4727 -0.2024 -0.7446
17186TIP3   OH272972   5.455   0.533   5.927 -0.3095 -0.7142  0.4251
17186TIP3    H172973   5.439   0.440   5.914 -0.5521 -0.7617  1.0369
17186TIP3    H272974   5.389   0.559   5.991 -0.8155  0.0649 -0.4014
17187TIP3   OH272975   4.898   0.179   5.384  0.1329  0.2916 -0.4592
17187TIP3    H172976   4.920   0.238   5.457 -0.8983 -1.4747  1.3386
17187TIP3    H272977   4.803   0.185   5.377  0.2588  0.7007 -1.9190
17188TIP3   OH272978   4.563   1.431   5.767  0.6085 -0.1668  0.1475
17188TIP3    H172979   4.475   1.406   5.797  0.8184 -1.2512 -0.1143
17188TIP3    H272980   4.610   1.454   5.847  0.4285 -0.6811  0.4041
17189TIP3   OH272981   4.529   1.698   5.304  0.1832 -0.3344 -0.2361
17189TIP3    H172982   4.439   1.694   5.336  0.5531 -0.3551  0.8096
17189TIP3    H272983   4.568   1.615   5.332  0.8265  0.1135  0.2239
17190TIP3   OH272984   3.107   0.496   5.615 -0.0890 -0.1873 -0.3742
17190TIP3    H172985   3.092   0.403   5.597 -0.8198 -0.1120 -0.1706
17190TIP3    H272986   3.154   0.528   5.539 -0.1831 -0.6398 -0.6255
17191TIP3   OH272987   4.869   2.278   3.972  0.5578 -0.1049 -0.0692
17191TIP3    H172988   4.920   2.353   4.004  0.8854 -0.9922  1.5341
17191TIP3    H272989   4.799   2.268   4.036  1.6650 -2.3799  0.8261
17192TIP3   OH272990   3.154   6.687   5.077  0.6640 -0.8226 -0.7207
17192TIP3    H172991   3.086   6.743   5.113  1.1235 -1.9315  2.0146
17192TIP3    H272992   3.144   6.695   4.982 -0.1856  2.7208 -0.4198
17193TIP3   OH272993   4.441   0.036   6.122  0.3203 -0.2678 -0.4758
17193TIP3    H172994   4.383   0.108   6.100 -0.6943 -0.4520  1.4900
17193TIP3    H272995   4.448  -0.015   6.041 -1.0135  0.5968 -1.1549
17194TIP3   OH272996   4.183   0.717   5.953 -0.3159  0.5588  0.2466
17194TIP3    H172997   4.159   0.674   5.871 -0.4929 -1.1466  1.1786
17194TIP3    H272998   4.100   0.745   5.991 -0.4771 -1.1295  1.1763
17195TIP3   OH272999   5.579   0.104   5.986  0.3642  0.6633 -0.6315
17195TIP3    H173000   5.635   0.090   5.910  0.6217 -0.3710 -0.2639
17195TIP3    H273001   5.640   0.106   6.060  0.2034  2.5118 -0.5334
17196TIP3   OH273002   3.115   0.874   4.647 -0.4977  0.0678 -0.3832
17196TIP3    H173003   3.038   0.894   4.701 -0.1778 -0.3708  0.2399
17196TIP3    H273004   3.140   0.958   4.609 -0.9885  0.3028 -0.1936
17197TIP3   OH273005   3.876   0.276   4.814  0.0700 -0.0067 -0.4918
17197TIP3    H173006   3.898   0.362   4.779 -1.8768  0.2575 -1.1297
17197TIP3    H273007   3.958   0.243   4.851  1.0074  1.7866 -0.9333
17198TIP3   OH273008   5.548   0.911   4.988  0.3511 -0.1828 -0.2577
17198TIP3    H173009   5.589   0.910   5.074 -0.3496  0.5845  0.0889
17198TIP3    H273010   5.460   0.876   5.004 -0.3523  1.5101 -0.3644
17199TIP3   OH273011   4.454   2.190   5.419 -0.1512 -0.0055  0.3263
17199TIP3    H173012   4.450   2.099   5.390  1.3517  0.3733 -1.2145
17199TIP3    H273013   4.414   2.190   5.505 -0.5611 -2.0496  0.1646
17200TIP3   OH273014   3.359   0.166   5.430  0.0526 -0.1350  0.3625
17200TIP3    H173015   3.395   0.140   5.345  0.6036  0.3905  0.4368
17200TIP3    H273016   3.383   0.094   5.489 -1.3994 -1.0976 -0.1919
17201TIP3   OH273017   4.007   3.653   5.401  0.2095 -0.0341  0.3292
17201TIP3    H173018   3.920   3.627   5.430  0.3991 -1.5140 -0.3660
17201TIP3    H273019   4.053   3.570   5.385  0.6580  0.7125 -2.5285
17202TIP3   OH273020   2.401   2.421   4.150 -0.4340 -0.4399 -0.8753
17202TIP3    H173021   2.372   2.380   4.232  0.2114 -1.1632 -0.9993
17202TIP3    H273022   2.401   2.349   4.086  0.1435 -0.1173 -1.2376
17203TIP3   OH273023   3.820   3.118   4.779  0.1311 -0.1028 -0.2942
17203TIP3    H173024   3.915   3.116   4.770  0.2907  1.3947  0.7869
17203TIP3    H273025   3.786   3.120   4.689  1.2587  3.2571 -0.7194
17204TIP3   OH273026   7.050   2.151   3.986  0.2479 -0.2327  0.0068
17204TIP3    H173027   6.990   2.099   4.039 -1.5489  1.4384 -0.3420
17204TIP3    H273028   7.036   2.121   3.896  0.8865 -0.7394  0.0701
17205TIP3   OH273029   5.250   1.496   5.502  0.5913 -0.2966  0.4858
17205TIP3    H173030   5.175   1.535   5.456 -0.5861 -2.3969  0.5763
17205TIP3    H273031   5.240   1.527   5.592  1.1330  1.2721  0.0241
17206TIP3   OH273032   5.108   2.446   5.056  0.3876  1.1040  0.0681
17206TIP3    H173033   5.107   2.520   5.118  0.9146  0.5883  0.7015
17206TIP3    H273034   5.015   2.430   5.038  0.2736  2.0747 -0.2629
17207TIP3   OH273035   6.891   6.978   3.972  0.4169 -0.0764 -0.7439
17207TIP3    H173036   6.913   6.996   4.063  0.5747  0.4846 -0.8889
17207TIP3    H273037   6.950   6.907   3.947  1.6523  0.9927 -0.9367
17208TIP3   OH273038   5.631   0.880   5.255 -0.3163 -0.1114  0.3918
17208TIP3    H173039   5.682   0.916   5.328  0.5789 -0.1684 -0.1981
17208TIP3    H273040   5.559   0.834   5.297 -0.1294  0.3389  1.2285
17209TIP3   OH273041   6.440   1.669   5.147 -0.2297 -0.2433 -0.2208
17209TIP3    H173042   6.393   1.751   5.137  0.5037  0.5492  2.4173
17209TIP3    H273043   6.450   1.658   5.242  1.9496 -2.0641 -0.6071
17210TIP3   OH273044   5.635   0.876   3.891  0.5863  0.3671  0.3199
17210TIP3    H173045   5.543   0.902   3.896  0.5305  0.3285 -0.5493
17210TIP3    H273046   5.664   0.903   3.804  1.2667 -0.0636  0.4067
17211TIP3   OH273047   5.985   4.773   4.000  0.3372  0.8236  0.5677
17211TIP3    H173048   6.015   4.692   4.042  1.4767  1.8284  1.7418
17211TIP3    H273049   6.044   4.785   3.926 -0.8594 -0.2710 -0.5711
17212TIP3   OH273050   5.780   1.890   4.971  0.9253  0.0600  0.0405
17212TIP3    H173051   5.752   1.940   5.048  1.4956  0.5756 -0.0764
17212TIP3    H273052   5.713   1.909   4.905 -0.3424 -1.5205  0.8321
17213TIP3   OH273053   2.941   1.632   4.534  0.1209  0.0742  0.2766
17213TIP3    H173054   2.860   1.682   4.537 -0.5436 -0.8355 -1.7715
17213TIP3    H273055   3.006   1.693   4.499  0.1154  0.5208  1.0364
17214TIP3   OH273056   0.258   6.748   4.340 -0.0053  0.0540 -0.9403
17214TIP3    H173057   0.202   6.762   4.263 -0.8821  1.9334  0.0105
17214TIP3    H273058   0.291   6.836   4.361  1.4240 -0.6843 -0.0627
17215TIP3   OH273059   2.869   2.100   5.397 -0.3289 -0.1936 -0.1620
17215TIP3    H173060   2.832   2.156   5.329  2.6646  1.1020 -0.7757
17215TIP3    H273061   2.893   2.020   5.352  2.5403  1.0301 -0.8736
17216TIP3   OH273062   6.328   4.492   4.944  0.0409  0.0438  0.2075
17216TIP3    H173063   6.305   4.583   4.926  1.4113  0.2320 -0.7270
17216TIP3    H273064   6.250   4.454   4.983 -1.2205  1.1007 -1.2235
17217TIP3   OH273065   6.442   6.156   3.988 -0.2099  0.3755 -0.3012
17217TIP3    H173066   6.472   6.242   4.016  2.1379 -0.1999 -0.8648
17217TIP3    H273067   6.379   6.130   4.055 -0.3466  2.1939  0.3063
17218TIP3   OH273068   4.092   0.890   5.728  0.1562  0.2299 -0.2948
17218TIP3    H173069   4.087   0.806   5.682 -0.0125  0.1225 -0.0779
17218TIP3    H273070   4.185   0.910   5.731  0.1225  0.6256 -1.3970
17219TIP3   OH273071   6.661   4.772   5.821  0.2178 -0.6662 -0.0130
17219TIP3    H173072   6.668   4.867   5.827 -1.3686 -0.6247  1.5981
17219TIP3    H273073   6.640   4.755   5.729  0.8883  0.4965 -0.3903
17220TIP3   OH273074   2.641   5.858   5.233  0.0823  0.3430 -0.2618
17220TIP3    H173075   2.577   5.860   5.305  0.4584 -0.0818  0.0875
17220TIP3    H273076   2.622   5.937   5.182  1.7799  2.2833  2.0151
17221TIP3   OH273077   6.549   0.423   5.473  0.3648 -0.1715 -0.0814
17221TIP3    H173078   6.507   0.338   5.474  0.6842 -0.3419 -1.3396
17221TIP3    H273079   6.491   0.479   5.526 -0.4440 -0.8622 -0.2330
17222TIP3   OH273080   6.670   1.204   5.015  0.0975  0.0699  0.1449
17222TIP3    H173081   6.744   1.162   5.058  0.6763 -0.3008 -1.2003
17222TIP3    H273082   6.640   1.140   4.950  0.5204  1.4003 -1.4081
17223TIP3   OH273083   4.235   0.042   5.583 -0.1801 -0.4871 -0.0128
17223TIP3    H173084   4.250   0.090   5.665 -1.1282 -1.6771  0.8791
17223TIP3    H273085   4.264   0.102   5.514  1.4143  0.2096  1.2341
17224TIP3   OH273086   4.976   6.961   4.830  0.5673 -0.0984  0.2781
17224TIP3    H173087   4.993   7.055   4.835  0.8472 -0.2286  2.0482
17224TIP3    H273088   4.943   6.938   4.916  0.2539 -1.5845 -0.2293
17225TIP3   OH273089   5.982   6.894   6.048  0.2361 -0.3287  0.6156
17225TIP3    H173090   5.997   6.805   6.014 -1.9890 -0.6917  0.4859
17225TIP3    H273091   6.053   6.908   6.110  1.3788 -1.6901 -0.3413
17226TIP3   OH273092   4.743   6.240   3.905 -0.1877 -0.2596  0.1403
17226TIP3    H173093   4.660   6.276   3.875  0.3579  0.6032 -0.3180
17226TIP3    H273094   4.803   6.314   3.908  0.8906 -1.0731 -0.6332
17227TIP3   OH273095   1.620   0.170   4.108  0.0029  0.1489 -0.4651
17227TIP3    H173096   1.667   0.119   4.174  1.3539 -0.4649 -1.8574
17227TIP3    H273097   1.663   0.255   4.109 -0.3225  0.3092 -0.1841
17228TIP3   OH273098   6.103   2.471   3.352 -0.3058 -0.2659  0.1968
17228TIP3    H173099   6.044   2.547   3.356  1.6749  1.5158 -2.2637
17228TIP3    H273100   6.155   2.478   3.432 -0.3887  0.7635  0.1769
17229TIP3   OH273101   3.591   2.442   4.156 -0.3234 -0.2651  0.0472
17229TIP3    H173102   3.523   2.507   4.174 -0.4367 -0.3541 -0.0617
17229TIP3    H273103   3.578   2.375   4.222 -1.1702 -0.9290 -0.7870
17230TIP3   OH273104   4.328   3.879   5.230  0.2716  0.1848 -0.4622
17230TIP3    H173105   4.307   3.919   5.314  0.7827  0.7792 -0.6131
17230TIP3    H273106   4.245   3.874   5.184  0.4233  2.5041 -1.0491
17231TIP3   OH273107   5.084   0.542   4.987 -0.4441 -0.1719 -0.5515
17231TIP3    H173108   5.033   0.501   5.057 -0.8819  1.0107 -0.1664
17231TIP3    H273109   5.161   0.576   5.032  0.4407 -1.4798 -1.0438
17232TIP3   OH273110   4.746   1.928   5.498 -0.3833  0.0466  0.4212
17232TIP3    H173111   4.720   1.988   5.568  1.4901  0.1967  1.0279
17232TIP3    H273112   4.816   1.876   5.537  0.6705  0.1262 -1.3291
17233TIP3   OH273113   6.026   4.997   4.175 -0.5365  0.0836  0.1041
17233TIP3    H173114   6.002   4.952   4.095  1.5119 -0.2495 -0.3610
17233TIP3    H273115   6.080   5.071   4.146 -0.2836  0.3152  1.1255
17234TIP3   OH273116   7.041   2.580   3.498 -0.1930  0.2500  0.1640
17234TIP3    H173117   6.968   2.574   3.436 -0.5894  0.8896  0.5683
17234TIP3    H273118   7.018   2.517   3.567 -1.0658  1.4733  1.0085
17235TIP3   OH273119   2.963   6.547   4.463 -0.1106  0.7498  0.0308
17235TIP3    H173120   3.001   6.631   4.437 -0.1283  0.7824  0.1135
17235TIP3    H273121   2.889   6.535   4.403  0.8863  0.0086 -1.0944
17236TIP3   OH273122   0.312   2.810   2.849  0.0364  0.1155 -0.0185
17236TIP3    H173123   0.218   2.790   2.842  0.2417 -0.4626 -1.2576
17236TIP3    H273124   0.354   2.724   2.855  0.3508  0.4225  2.4999
17237TIP3   OH273125   6.111   1.463   4.190  0.6580 -0.0335 -0.7107
17237TIP3    H173126   6.076   1.498   4.271  0.5433 -0.0275 -0.7627
17237TIP3    H273127   6.034   1.444   4.137  0.7337 -0.0022 -0.8322
17238TIP3   OH273128   4.636   2.352   4.454  0.1325 -0.5108  0.3731
17238TIP3    H173129   4.637   2.439   4.493 -1.0914  0.0569 -0.8326
17238TIP3    H273130   4.707   2.305   4.499 -0.5336  0.4444  2.4662
17239TIP3   OH273131   2.046   2.212   4.967 -0.1503  0.5919 -0.1539
17239TIP3    H173132   2.000   2.161   4.900  0.2218  0.6488 -0.4564
17239TIP3    H273133   1.997   2.295   4.971  0.0776  0.7532 -0.6623
17240TIP3   OH273134   5.771   1.526   4.933  0.0374 -0.2023  0.3062
17240TIP3    H173135   5.692   1.579   4.936 -0.7426 -1.3414  0.4178
17240TIP3    H273136   5.830   1.567   4.996  0.4485  2.0402 -1.4710
17241TIP3   OH273137   4.761   2.084   5.713 -0.2467 -0.1778 -0.0448
17241TIP3    H173138   4.825   2.156   5.715 -1.9203  1.2924  1.7624
17241TIP3    H273139   4.678   2.125   5.735 -1.7754 -2.1744 -1.8892
17242TIP3   OH273140   6.242   4.043   5.326  0.1806 -0.3655 -0.0821
17242TIP3    H173141   6.172   4.098   5.360  1.1556  0.3253  0.8545
17242TIP3    H273142   6.321   4.096   5.336  1.1761 -2.0032  1.0063
17243TIP3   OH273143   6.072   0.487   4.847 -0.4363  0.7699  0.2009
17243TIP3    H173144   6.118   0.496   4.930 -1.1089 -0.2078  0.6841
17243TIP3    H273145   5.987   0.449   4.870  0.7971 -3.1069 -1.3218
17244TIP3   OH273146   7.028   5.555   4.046 -0.2227  0.1564  0.4785
17244TIP3    H173147   7.043   5.461   4.055  1.0187  0.3490  0.4853
17244TIP3    H273148   6.947   5.571   4.096 -0.0560 -0.7865  1.0677
17245TIP3   OH273149   3.947   7.287   4.116  0.5261 -0.0191 -0.2815
17245TIP3    H173150   3.886   7.315   4.047 -1.1025 -1.0203  0.7269
17245TIP3    H273151   4.001   7.220   4.075 -0.6401 -0.8306 -0.4945
17246TIP3   OH273152   4.658   6.763   4.077  0.1496 -0.4770  0.1318
17246TIP3    H173153   4.662   6.852   4.113 -2.4554  0.0521 -0.7990
17246TIP3    H273154   4.565   6.747   4.062  0.6506 -3.1013 -0.3910
17247TIP3   OH273155   5.250   0.070   3.158  0.6641  0.0722  0.4172
17247TIP3    H173156   5.342   0.079   3.134  0.2698 -1.8899 -2.0417
17247TIP3    H273157   5.213   0.157   3.144  1.4670  0.0991 -1.7322
17248TIP3   OH273158   4.101   2.918   5.476 -0.1418 -0.3669 -0.6275
17248TIP3    H173159   4.035   2.861   5.513 -1.2060  0.9600 -0.4575
17248TIP3    H273160   4.182   2.867   5.480 -0.5988 -0.9642  1.7504
17249TIP3   OH273161   5.363   0.773   3.203  0.2502 -0.1912 -0.0421
17249TIP3    H173162   5.330   0.824   3.128 -0.8728 -1.3650 -0.3670
17249TIP3    H273163   5.290   0.774   3.265  0.4260 -0.9467  0.1730
17250TIP3   OH273164   5.539   1.665   4.539  0.0545  0.5144 -0.1766
17250TIP3    H173165   5.610   1.660   4.476  0.2529 -2.1108  0.2051
17250TIP3    H273166   5.460   1.643   4.488  0.2486 -1.8592  0.4878
17251TIP3   OH273167   5.404   0.600   5.113 -0.1596 -0.2472  0.0620
17251TIP3    H173168   5.377   0.509   5.111 -1.6705  0.2194 -1.6138
17251TIP3    H273169   5.495   0.598   5.144 -0.2578 -2.2757  0.2331
17252TIP3   OH273170   4.564   0.513   5.623  0.4764  0.2993  0.2021
17252TIP3    H173171   4.486   0.458   5.622 -0.3618  1.4399  0.7733
17252TIP3    H273172   4.562   0.560   5.540  0.9389 -0.2040 -0.0897
17253TIP3   OH273173   7.064   5.431   5.227  0.3144  0.0205  0.5659
17253TIP3    H173174   7.045   5.524   5.213  0.1705  0.1322  1.4578
17253TIP3    H273175   6.992   5.400   5.280  0.8861 -0.3593  1.1265
17254TIP3   OH273176   6.397   1.466   4.523  0.2869 -0.3721  0.2459
17254TIP3    H173177   6.487   1.436   4.509 -0.3408 -1.7636 -0.8836
17254TIP3    H273178   6.342   1.396   4.488 -1.2475  0.4004  1.0550
17255TIP3   OH273179   2.721   6.392   6.557 -0.1271  0.1532 -0.5402
17255TIP3    H173180   2.795   6.361   6.504 -0.2368 -0.6444 -0.2350
17255TIP3    H273181   2.690   6.470   6.512 -0.5036 -0.7729 -1.9201
17256TIP3   OH273182   4.240   0.506   5.393  0.1348  0.2012 -0.6463
17256TIP3    H173183   4.307   0.482   5.457  0.6095 -1.0007 -1.5733
17256TIP3    H273184   4.167   0.540   5.446  1.5205  1.6717  0.3662
17257TIP3   OH273185   5.906   1.062   3.403 -0.3241 -0.2110  0.2988
17257TIP3    H173186   5.895   1.157   3.403 -1.9330 -0.3365  2.4733
17257TIP3    H273187   5.998   1.048   3.424 -0.0580  0.8748 -0.1187
17258TIP3   OH273188   5.476   0.459   4.852  0.0901 -0.4058  0.3933
17258TIP3    H173189   5.464   0.410   4.933 -0.6185  0.3189  0.7392
17258TIP3    H273190   5.389   0.458   4.810 -0.0854  1.0180  0.6807
17259TIP3   OH273191   5.153   1.622   5.727  0.1326 -0.1719  0.5076
17259TIP3    H173192   5.203   1.673   5.790  1.1002 -1.0810  0.4901
17259TIP3    H273193   5.088   1.575   5.780  0.9577 -0.9498  0.8458
17260TIP3   OH273194   0.041   6.617   3.616 -0.1899  0.4552 -0.3381
17260TIP3    H173195   0.021   6.711   3.614  1.3004  0.8532  1.6472
17260TIP3    H273196   0.042   6.591   3.524 -1.5864  2.1739 -0.8639
17261TIP3   OH273197   1.363   1.007   4.642 -0.5581  0.0391 -0.2060
17261TIP3    H173198   1.299   1.072   4.611 -0.2804 -0.3528 -1.6579
17261TIP3    H273199   1.365   0.941   4.572  0.5174 -0.5843  0.4069
17262TIP3   OH273200   0.138   1.704   5.111 -0.0006 -0.2568  0.3175
17262TIP3    H173201   0.158   1.635   5.048 -1.2616 -1.1107  0.8229
17262TIP3    H273202   0.099   1.658   5.186 -1.6791  1.0854  0.3025
17263TIP3   OH273203   6.193   1.245   4.564 -0.7019 -0.3561 -0.0897
17263TIP3    H173204   6.097   1.249   4.562 -0.8835 -3.4556  0.1892
17263TIP3    H273205   6.214   1.243   4.658 -0.3014  0.9511 -0.1408
17264TIP3   OH273206   5.451   2.273   2.112 -0.6476  0.0374 -0.6072
17264TIP3    H173207   5.450   2.294   2.206  2.4328 -1.3620 -0.1828
17264TIP3    H273208   5.459   2.178   2.109  1.4852  0.2337 -2.2351
17265TIP3   OH273209   6.195   3.222   4.879  0.3176 -0.1284  0.1394
17265TIP3    H173210   6.208   3.260   4.792  1.2717 -1.1015 -0.1653
17265TIP3    H273211   6.135   3.282   4.923  0.6136  0.9084 -0.8363
17266TIP3   OH273212   6.386   3.533   4.586  0.1937  0.6777 -0.0539
17266TIP3    H173213   6.414   3.619   4.616  0.3345  0.7287 -0.3337
17266TIP3    H273214   6.314   3.510   4.644 -0.7460  1.5731 -0.8445
17267TIP3   OH273215   6.956   1.620   2.858  0.3539 -0.4733  0.2324
17267TIP3    H173216   7.013   1.579   2.923  0.0561 -1.1608  0.0592
17267TIP3    H273217   6.886   1.660   2.909  0.2333 -0.8342  0.3473
17268TIP3   OH273218   0.612   1.212   5.421 -0.2671 -0.0392 -0.1852
17268TIP3    H173219   0.580   1.192   5.509  1.4000  0.7281  0.6329
17268TIP3    H273220   0.694   1.260   5.436 -0.0235  0.2088 -2.1582
17269TIP3   OH273221   0.412   0.892   4.221 -0.7992  0.6901 -0.8237
17269TIP3    H173222   0.351   0.915   4.151 -0.7209  1.0853 -0.7620
17269TIP3    H273223   0.365   0.911   4.302 -0.7858  0.5026 -0.7714
17270TIP3   OH273224   5.624   0.590   3.877  0.7269 -0.0026 -0.0237
17270TIP3    H173225   5.617   0.677   3.917  0.6139  0.3646 -0.8171
17270TIP3    H273226   5.686   0.603   3.805 -0.1859 -0.3105 -0.8762
17271TIP3   OH273227   6.281   0.315   3.245  0.6460 -0.5800 -0.2067
17271TIP3    H173228   6.199   0.312   3.294  0.1518 -0.3553 -1.0083
17271TIP3    H273229   6.306   0.407   3.244  1.1077 -0.6948  0.3523
17272TIP3   OH273230   4.916   0.247   5.666  0.4234 -0.5091 -0.7531
17272TIP3    H173231   4.827   0.268   5.695  0.2767 -1.3548 -0.5852
17272TIP3    H273232   4.955   0.201   5.740  0.2461 -2.1305 -1.6468
17273TIP3   OH273233   0.089   7.095   5.084  0.4872  0.1830 -0.1257
17273TIP3    H173234   0.119   7.148   5.157 -0.9287  0.5110  0.2460
17273TIP3    H273235   0.048   7.019   5.125  0.5781 -0.1178 -0.5944
17274TIP3   OH273236   6.088   1.571   3.600  0.1033  0.3680  0.0876
17274TIP3    H173237   6.109   1.484   3.567  0.1357  0.8201 -1.0863
17274TIP3    H273238   6.173   1.613   3.612  0.0305  0.6751 -0.5126
17275TIP3   OH273239   6.585   3.426   5.432 -0.2950  0.0990 -0.3628
17275TIP3    H173240   6.658   3.432   5.494  0.8967  0.9335 -1.7941
17275TIP3    H273241   6.615   3.477   5.356 -2.7898  1.3016 -0.5853
17276TIP3   OH273242   0.441   0.811   5.400 -0.4117 -0.3011 -0.2080
17276TIP3    H173243   0.514   0.841   5.347 -2.1810  1.2648 -1.8685
17276TIP3    H273244   0.438   0.716   5.386  0.5566 -0.2105 -1.0919
17277TIP3   OH273245   0.436   7.158   4.054 -0.4224 -0.2036 -0.4470
17277TIP3    H173246   0.406   7.248   4.058 -1.5626 -0.6345  1.6951
17277TIP3    H273247   0.376   7.115   3.992  0.8613  0.7315 -2.3878
17278TIP3   OH273248   6.457   1.485   3.452  0.4939 -0.4582  0.1256
17278TIP3    H173249   6.465   1.555   3.517  0.4543  0.3088 -0.6882
17278TIP3    H273250   6.372   1.444   3.472  0.2211  0.1347  0.2060
17279TIP3   OH273251   7.000   2.273   2.900  0.7157  0.3865 -0.6309
17279TIP3    H173252   6.915   2.249   2.936  0.3473  2.0706 -0.3221
17279TIP3    H273253   7.003   2.230   2.814 -0.4731  0.3501 -0.6592
17280TIP3   OH273254   7.010   7.267   4.849 -0.0617  0.3303 -0.0886
17280TIP3    H173255   7.102   7.277   4.874 -0.0350  2.0573 -0.8261
17280TIP3    H273256   6.965   7.339   4.892 -0.4587  1.7123 -2.7326
17281TIP3   OH273257   6.338   1.152   3.740 -0.3109 -0.2355  0.1252
17281TIP3    H173258   6.314   1.141   3.832 -1.7549  0.1586 -0.1977
17281TIP3    H273259   6.427   1.187   3.743 -0.4932  0.1628  1.3850
17282TIP3   OH273260   0.146   5.793   5.516  0.3226  0.0088 -0.2136
17282TIP3    H173261   0.229   5.806   5.470  1.3000 -1.3800  1.1212
17282TIP3    H273262   0.079   5.799   5.448  1.5834  0.2831 -1.4333
17283TIP3   OH273263   6.282   6.715   5.726 -0.5825 -0.9343 -0.5689
17283TIP3    H173264   6.280   6.648   5.793  1.3800  0.4564  0.9360
17283TIP3    H273265   6.293   6.797   5.773  1.4054  0.0250 -2.5868
17284TIP3   OH273266   6.573   0.096   4.863 -0.1349  0.0528  0.0759
17284TIP3    H173267   6.491   0.142   4.845  0.1708 -0.2178 -2.1397
17284TIP3    H273268   6.615   0.147   4.932 -0.9676  1.6936 -0.6061
17285TIP3   OH273269   4.675   3.791   5.118 -0.1820 -0.6739 -0.0377
17285TIP3    H173270   4.611   3.774   5.187  0.0657 -0.7984  0.1646
17285TIP3    H273271   4.669   3.885   5.103 -1.6629 -0.9527 -1.2636
17286TIP3   OH273272   0.653   3.500   4.481 -0.1459  0.4875 -0.1033
17286TIP3    H173273   0.623   3.480   4.569 -0.8962  1.6479 -0.0710
17286TIP3    H273274   0.736   3.453   4.472  0.2953  0.9245  1.4747
17287TIP3   OH273275   5.486   1.897   3.942 -0.2199 -0.7050  0.3666
17287TIP3    H173276   5.581   1.883   3.938  0.2944  2.3123  0.6565
17287TIP3    H273277   5.465   1.944   3.860 -1.3591 -0.8138  0.5860
17288TIP3   OH273278   5.068   6.832   5.296 -0.3890  0.5440  0.2814
17288TIP3    H173279   5.133   6.814   5.228  0.2490  2.4444  0.3568
17288TIP3    H273280   5.083   6.766   5.363  1.4271  0.9254  0.2545
17289TIP3   OH273281   6.414   7.238   4.224  0.5409 -0.5027  0.5574
17289TIP3    H173282   6.461   7.309   4.179  0.7991 -0.1831  1.3280
17289TIP3    H273283   6.408   7.168   4.159 -1.1024  0.8052 -0.7498
17290TIP3   OH273284   6.608   6.455   5.550  0.5333  0.6369  0.0346
17290TIP3    H173285   6.619   6.505   5.630 -0.6802 -0.1613  0.7174
17290TIP3    H273286   6.691   6.465   5.503  0.8860  1.9127  0.9247
17291TIP3   OH273287   0.036   5.511   4.704  0.2391  0.6730  0.1282
17291TIP3    H173288  -0.007   5.458   4.637  2.7089 -0.3647 -0.6917
17291TIP3    H273289   0.011   5.470   4.787 -0.9487  0.5674 -0.2703
17292TIP3   OH273290   7.110   6.400   5.147  0.7418 -0.0933  0.0412
17292TIP3    H173291   7.144   6.446   5.071  0.3947  1.2420  0.6756
17292TIP3    H273292   7.041   6.458   5.181  0.8234 -0.7198  1.2949
17293TIP3   OH273293   6.349   1.969   3.838 -0.1774 -0.1549  0.1962
17293TIP3    H173294   6.410   1.976   3.911 -1.3324  3.0929  0.9019
17293TIP3    H273295   6.405   1.961   3.760  1.1092  0.2849  1.0655
17294TIP3   OH273296   0.614   0.131   3.039  0.0400 -0.1151 -0.7275
17294TIP3    H173297   0.676   0.059   3.030  0.6634  0.4390 -0.8131
17294TIP3    H273298   0.651   0.187   3.107  0.4384  1.0483 -1.8906
17295TIP3   OH273299   0.303   2.212   6.287 -0.0468  0.2722 -0.6340
17295TIP3    H173300   0.377   2.216   6.348 -0.6778 -1.1977  0.2501
17295TIP3    H273301   0.259   2.296   6.298 -0.5527 -0.2384  1.4844
17296TIP3   OH273302   0.614   1.024   3.889 -0.1125  0.2988  0.0636
17296TIP3    H173303   0.676   1.082   3.845 -0.6105 -0.5353 -1.7890
17296TIP3    H273304   0.658   0.999   3.971  1.6779  0.3044 -0.8697
17297TIP3   OH273305   1.086   4.113   5.330 -0.5982 -0.0610  0.3031
17297TIP3    H173306   1.000   4.143   5.303  0.1619  0.7786 -1.2234
17297TIP3    H273307   1.081   4.111   5.426 -2.4171 -0.3766  0.2274
17298TIP3   OH273308   6.020   0.800   3.183  0.0506  0.1071  0.1015
17298TIP3    H173309   6.080   0.835   3.249  1.2407 -1.4234 -0.1300
17298TIP3    H273310   6.075   0.784   3.106 -0.9674  0.1473 -0.6529
17299TIP3   OH273311   5.453   0.738   5.409  0.8128  0.1551  0.9738
17299TIP3    H173312   5.427   0.651   5.380  0.3115  1.1464 -1.7210
17299TIP3    H273313   5.389   0.762   5.476 -0.9742 -0.2889 -0.5507
17300TIP3   OH273314   6.705   0.923   2.605  0.1697  0.2262  0.1853
17300TIP3    H173315   6.627   0.881   2.641  0.1842 -0.4869 -0.5832
17300TIP3    H273316   6.673   1.002   2.562 -0.2146 -0.3797 -0.6518
17301TIP3   OH273317   0.133   2.122   2.856 -0.3491 -0.0399  0.2672
17301TIP3    H173318   0.085   2.082   2.929 -1.2243 -0.1405 -0.3529
17301TIP3    H273319   0.189   2.188   2.898 -2.5983  1.6021  0.8439
17302TIP3   OH273320   7.056   0.780   5.548 -0.2647  0.0457 -0.4941
17302TIP3    H173321   7.116   0.715   5.586 -1.1523 -0.6569 -0.2989
17302TIP3    H273322   7.042   0.843   5.619 -0.3976 -0.2231 -0.2814
17303TIP3   OH273323   6.826   2.363   4.671  0.2365  0.0861  1.0188
17303TIP3    H173324   6.887   2.432   4.698  0.3881  0.3335  0.0446
17303TIP3    H273325   6.864   2.326   4.592 -0.6737 -0.0197  0.6187
17304TIP3   OH273326   5.430   4.147   5.081  0.5253  0.6195 -0.1141
17304TIP3    H173327   5.339   4.157   5.052  0.2711  1.6170  0.9747
17304TIP3    H273328   5.461   4.237   5.092  1.6692  0.2783 -0.5776
17305TIP3   OH273329   5.973   1.383   3.229 -0.3007  0.0312 -0.2940
17305TIP3    H173330   5.993   1.430   3.148 -1.1234 -0.5590 -0.8515
17305TIP3    H273331   5.877   1.379   3.232 -0.2537 -1.0626  0.0481
17306TIP3   OH273332   0.593   1.767   4.515  0.4428  0.0513 -0.0614
17306TIP3    H173333   0.510   1.746   4.557  0.3642 -0.4229 -0.4584
17306TIP3    H273334   0.601   1.862   4.525 -0.0656  0.0753  0.1184
17307TIP3   OH273335   6.974   2.024   3.763  0.1899  0.8630  0.1515
17307TIP3    H173336   6.912   1.975   3.817  1.5099  0.3207  1.2162
17307TIP3    H273337   7.045   1.961   3.745  0.6295  1.5884 -0.6988
17308TIP3   OH273338   6.633   6.929   5.825  0.0969  0.2234  0.4926
17308TIP3    H173339   6.688   6.879   5.764  0.3783 -0.6539  1.4461
17308TIP3    H273340   6.640   7.019   5.795  1.7594  0.0731  0.3574
17309TIP3   OH273341   7.018   1.287   5.276 -0.0232 -0.1630 -0.5890
17309TIP3    H173342   7.057   1.253   5.357 -0.0732 -0.6696 -0.7730
17309TIP3    H273343   6.925   1.297   5.298 -0.5052 -2.6306 -1.3016
17310TIP3   OH273344   5.699   1.128   4.892 -0.0420 -0.1767 -0.4853
17310TIP3    H173345   5.635   1.063   4.918  0.7643 -1.4794 -1.6879
17310TIP3    H273346   5.659   1.174   4.818  0.2493 -0.7434 -0.9998
17311TIP3   OH273347   6.755   5.477   5.078 -0.2267  0.3235 -0.1619
17311TIP3    H173348   6.778   5.384   5.072  0.4132  0.4393  0.3995
17311TIP3    H273349   6.833   5.523   5.049 -1.2104  0.6767 -2.3803
17312TIP3   OH273350   7.246   0.815   5.009  0.2802  0.0905  0.2820
17312TIP3    H173351   7.194   0.890   4.980  0.4980 -0.1559 -0.7739
17312TIP3    H273352   7.264   0.832   5.101 -1.7946  0.1187  0.7153
17313TIP3   OH273353   0.833   3.166   4.917 -0.0417 -0.2721  0.7473
17313TIP3    H173354   0.887   3.089   4.937  1.9626  1.3719  1.9398
17313TIP3    H273355   0.840   3.221   4.996  0.3104  2.0986 -0.8853
17314TIP3   OH273356   6.494   2.176   5.134 -0.0393  0.0874 -0.0250
17314TIP3    H173357   6.575   2.130   5.156  1.1771  1.4756 -1.4495
17314TIP3    H273358   6.437   2.108   5.097  1.4191 -0.4439 -1.3369
17315TIP3   OH273359   5.678   1.408   3.248  0.0692  0.4830  0.0713
17315TIP3    H173360   5.600   1.357   3.266  0.7236 -0.6648 -0.2774
17315TIP3    H273361   5.670   1.431   3.155 -0.1474  0.8682  0.1873
17316TIP3   OH273362   5.544   1.469   5.667  0.2016  0.3497 -0.5831
17316TIP3    H173363   5.508   1.556   5.686  0.2943  0.6699 -1.7901
17316TIP3    H273364   5.587   1.443   5.748 -1.2589  0.7056  0.3280
17317TIP3   OH273365   5.499   1.468   3.577 -0.1978 -0.4022  0.8089
17317TIP3    H173366   5.498   1.466   3.481  1.6139  0.8280  0.7213
17317TIP3    H273367   5.532   1.556   3.598 -1.2452 -0.4111  2.5758
17318TIP3   OH273368   6.619   0.828   6.325  0.2996  0.3502 -0.1018
17318TIP3    H173369   6.699   0.815   6.376 -1.4962 -3.2388  1.9656
17318TIP3    H273370   6.625   0.763   6.255 -1.5997 -1.1469  1.0960
17319TIP3   OH273371   0.402   0.570   4.271 -0.0215 -0.1213  0.3444
17319TIP3    H173372   0.371   0.555   4.182 -0.5887  2.2217  0.1225
17319TIP3    H273373   0.494   0.547   4.269 -0.3216 -1.2851 -0.5175
17320TIP3   OH273374   5.855   1.919   5.546  0.2725  0.0773  0.7042
17320TIP3    H173375   5.847   1.949   5.637  1.0374  0.2580  0.7141
17320TIP3    H273376   5.949   1.919   5.529  0.3086 -2.3488  0.7012
17321TIP3   OH273377   5.641   0.589   4.425 -0.1710  0.2406 -0.2961
17321TIP3    H173378   5.664   0.497   4.437 -1.5990 -0.1699 -0.6853
17321TIP3    H273379   5.718   0.627   4.381  0.4639 -0.7344 -0.0389
17322TIP3   OH273380   0.437   0.533   5.404  0.0414 -0.1926 -0.6410
17322TIP3    H173381   0.376   0.470   5.366  0.1715 -0.8125  0.1620
17322TIP3    H273382   0.456   0.498   5.491 -0.7641  1.5482  0.2419
17323TIP3   OH273383   5.326   0.803   4.808  0.9218 -0.3844  0.6457
17323TIP3    H173384   5.259   0.774   4.746  1.5503  2.2114 -1.3081
17323TIP3    H273385   5.407   0.764   4.776  1.3348  1.3758 -0.5151
17324TIP3   OH273386   6.857   6.251   5.382 -0.0691 -0.1385 -0.1924
17324TIP3    H173387   6.773   6.210   5.360 -0.0786  0.7783 -1.9670
17324TIP3    H273388   6.846   6.343   5.357  1.6051 -0.1010 -0.8757
17325TIP3   OH273389   0.357   2.132   5.117  0.4568 -0.1070 -0.4772
17325TIP3    H173390   0.287   2.191   5.090  1.0777 -0.2589 -2.4470
17325TIP3    H273391   0.312   2.048   5.133  0.1848 -0.2018 -1.7219
17326TIP3   OH273392   6.528   4.604   4.502  0.2897  0.5632 -0.6498
17326TIP3    H173393   6.447   4.655   4.492  1.1723  1.7078 -2.1437
17326TIP3    H273394   6.579   4.653   4.566  0.8843  1.2829 -1.6456
17327TIP3   OH273395   6.140   0.820   4.126 -0.1163  0.2107 -0.0342
17327TIP3    H173396   6.117   0.832   4.219 -1.5547  0.5672 -0.4147
17327TIP3    H273397   6.064   0.855   4.079  0.6608  0.1315 -1.3491
17328TIP3   OH273398   1.450   5.119   2.025  0.1705 -0.6347  0.0742
17328TIP3    H173399   1.362   5.111   2.064 -0.2364  1.3437 -0.4197
17328TIP3    H273400   1.489   5.032   2.038 -1.1436 -0.9677  2.0178
17329TIP3   OH273401   4.745   0.813   4.392 -0.4165 -0.3026  0.4076
17329TIP3    H173402   4.666   0.788   4.343 -1.8442  0.6453  2.1334
17329TIP3    H273403   4.762   0.738   4.450 -1.3141  0.3207  1.5110
17330TIP3   OH273404   1.761   0.364   3.627  0.3489  0.1464 -0.4085
17330TIP3    H173405   1.830   0.353   3.693 -0.5125  0.4367  0.5603
17330TIP3    H273406   1.805   0.409   3.554  1.0947  0.6854  0.3532
17331TIP3   OH273407   5.913   0.886   5.708  0.4561 -0.2272  0.1515
17331TIP3    H173408   5.901   0.926   5.794 -1.7165  0.9774 -0.6564
17331TIP3    H273409   5.934   0.795   5.726 -1.0663 -0.2446  1.9759
17332TIP3   OH273410   2.642   0.517   5.789 -0.4058 -0.9694 -0.1552
17332TIP3    H173411   2.630   0.611   5.777  0.5740 -0.6385  1.3649
17332TIP3    H273412   2.585   0.495   5.863  0.9707 -1.1742  0.8470
17333TIP3   OH273413   0.041   1.908   4.109 -0.4747  0.0299 -0.2855
17333TIP3    H173414   0.121   1.879   4.065 -0.7107  0.0329 -0.7194
17333TIP3    H273415   0.028   1.997   4.077 -1.4398 -0.4669 -1.3347
17334TIP3   OH273416   6.653   2.689   4.880  0.4990  0.2960 -0.2297
17334TIP3    H173417   6.669   2.736   4.798 -0.2867  1.1422  0.0942
17334TIP3    H273418   6.575   2.636   4.863  0.4250  0.3570 -0.0834
17335TIP3   OH273419   6.858   6.044   4.935 -0.7589  0.2406 -0.3786
17335TIP3    H173420   6.877   5.957   4.902 -1.5312  0.5624 -1.7340
17335TIP3    H273421   6.900   6.103   4.873 -2.1185  0.8537 -0.7410
17336TIP3   OH273422   1.800   0.493   5.099 -0.0627  0.4138  0.0808
17336TIP3    H173423   1.850   0.433   5.044 -0.5885  1.5466 -1.6936
17336TIP3    H273424   1.854   0.572   5.102 -0.6293  0.7999  0.1343
17337TIP3   OH273425   7.039   2.287   3.673  0.0685 -0.3100  0.1322
17337TIP3    H173426   7.046   2.214   3.733  0.8323  0.2087  0.6833
17337TIP3    H273427   7.108   2.272   3.608  0.6721  0.2720  0.6332
17338TIP3   OH273428   4.408   0.533   5.964 -1.0905  0.1139  0.3793
17338TIP3    H173429   4.329   0.585   5.948 -1.0599 -0.6417 -2.5077
17338TIP3    H273430   4.375   0.446   5.988 -1.1335  0.1345  0.3935
17339TIP3   OH273431   3.965   1.490   2.342 -0.1993  0.1499  0.3424
17339TIP3    H173432   3.949   1.395   2.345  0.1250  0.0134 -1.7010
17339TIP3    H273433   3.894   1.525   2.289  0.8710  0.7700 -0.7066
17340TIP3   OH273434   5.195   6.422   4.976 -0.4174  0.1421  0.1671
17340TIP3    H173435   5.172   6.341   4.931 -0.9661  0.2827  0.1935
17340TIP3    H273436   5.168   6.407   5.067 -2.1161  1.0013 -0.1797
17341TIP3   OH273437   5.160   0.186   4.032 -0.0512 -0.6830 -0.5854
17341TIP3    H173438   5.139   0.270   4.073  2.4591  0.1142 -0.8719
17341TIP3    H273439   5.183   0.129   4.106  0.0478 -0.5695 -0.5276
17342TIP3   OH273440   6.631   2.230   4.847 -0.0417 -0.0982 -0.0369
17342TIP3    H173441   6.708   2.266   4.803 -0.6420 -0.1414 -1.1484
17342TIP3    H273442   6.665   2.193   4.929  1.1217 -0.1577 -0.5367
17343TIP3   OH273443   7.297   7.270   4.447 -0.3593 -0.5459  0.0069
17343TIP3    H173444   7.389   7.285   4.429  0.0557 -1.6136  1.1952
17343TIP3    H273445   7.279   7.321   4.526 -0.7223 -0.5182 -0.0921
17344TIP3   OH273446   6.939   1.395   3.745  0.1271  0.7671 -0.7069
17344TIP3    H173447   6.946   1.487   3.768 -2.4322  0.7958  0.0929
17344TIP3    H273448   6.954   1.348   3.827  0.6318  0.5124 -0.9459
17345TIP3   OH273449   0.420   2.792   3.770  0.3287 -0.4013  0.1782
17345TIP3    H173450   0.510   2.805   3.800  0.3102 -1.1796  0.5941
17345TIP3    H273451   0.366   2.840   3.833  0.4004 -0.6733  0.4510
17346TIP3   OH273452   6.514   0.440   4.951  0.4542 -0.8369  0.5814
17346TIP3    H173453   6.603   0.474   4.951 -0.1016  0.6647 -0.6466
17346TIP3    H273454   6.459   0.516   4.973 -0.6710 -1.2996 -0.5661
17347TIP3   OH273455   5.620   0.082   4.806  0.2535 -0.2955  0.4777
17347TIP3    H173456   5.529   0.066   4.782 -0.6090  1.7887  2.1907
17347TIP3    H273457   5.655   0.137   4.737  0.5334 -1.8868 -0.6819
17348TIP3   OH273458   5.792   0.036   5.595  0.5234 -0.3161 -0.0892
17348TIP3    H173459   5.813   0.124   5.564 -3.2233  0.6001 -0.3710
17348TIP3    H273460   5.793   0.042   5.690 -2.1698  0.7942 -0.0707
17349TIP3   OH273461   6.382   2.293   6.138 -0.3103 -0.2211 -0.5727
17349TIP3    H173462   6.383   2.368   6.078 -0.7797 -0.1202 -0.4568
17349TIP3    H273463   6.295   2.295   6.177 -1.1610 -2.2145 -2.3099
17350TIP3   OH273464   6.696   1.736   1.885  0.2780  0.3949 -0.5110
17350TIP3    H173465   6.625   1.800   1.892 -1.1656 -1.1611 -0.6525
17350TIP3    H273466   6.744   1.762   1.807  0.1749  1.7492 -0.1458
17351TIP3   OH273467   0.684   2.697   5.737  0.3378  0.1331 -0.7703
17351TIP3    H173468   0.776   2.675   5.748 -0.0809 -1.5324 -0.5027
17351TIP3    H273469   0.659   2.659   5.653 -0.9535 -2.4384  0.7096
17352TIP3   OH273470   0.313   2.525   5.192 -0.1964  0.5283 -0.2054
17352TIP3    H173471   0.402   2.553   5.212 -0.9066 -0.2786  4.5749
17352TIP3    H273472   0.258   2.590   5.235 -1.8781 -1.9100  1.4113
17353TIP3   OH273473   6.786   4.262   3.204  0.2479 -0.2526 -0.3031
17353TIP3    H173474   6.846   4.188   3.191  1.2442  0.3631  0.6930
17353TIP3    H273475   6.840   4.331   3.241 -1.3281 -0.1427  1.9545
17354TIP3   OH273476   5.561   0.042   4.129  0.4409  0.4775  0.1157
17354TIP3    H173477   5.539  -0.040   4.086 -1.4815  0.4858  1.0559
17354TIP3    H273478   5.656   0.040   4.137  0.4881 -1.2490 -0.6719
17355TIP3   OH273479   2.032   0.371   4.509  0.7889  0.1920  0.0710
17355TIP3    H173480   2.001   0.455   4.541 -2.1822 -0.5104 -0.7864
17355TIP3    H273481   2.053   0.387   4.417  3.3338  0.7319  0.7203
17356TIP3   OH273482   7.034   0.309   5.382  0.2228 -0.1667 -0.2072
17356TIP3    H173483   7.066   0.280   5.468  0.1920 -0.7761 -0.4029
17356TIP3    H273484   7.015   0.402   5.394 -0.8050 -0.4926  0.7488
17357TIP3   OH273485   3.412   2.751   2.876  0.0309  0.3001 -0.0283
17357TIP3    H173486   3.467   2.675   2.895 -0.6929 -0.6563 -1.6856
17357TIP3    H273487   3.454   2.823   2.924  1.7659 -0.7543  0.0853
17358TIP3   OH273488   4.078   0.078   3.597 -0.5624 -0.2522  0.0500
17358TIP3    H173489   4.169   0.102   3.613 -0.9193  0.8565  0.4419
17358TIP3    H273490   4.029   0.158   3.611 -1.9119 -1.4358  2.4900
17359TIP3   OH273491   5.747   6.956   4.801 -0.5251  0.5375 -0.6815
17359TIP3    H173492   5.755   6.877   4.748  1.9771  1.5661 -1.9180
17359TIP3    H273493   5.796   6.937   4.881  0.1959  0.8793 -1.0395
17360TIP3   OH273494   0.639   0.127   5.445 -0.3595 -0.3401  0.4066
17360TIP3    H173495   0.633   0.155   5.537 -2.9067  0.3283  0.0726
17360TIP3    H273496   0.557   0.082   5.428  0.7059 -1.7498 -1.1663
17361TIP3   OH273497   5.868   6.578   3.323  0.4549  0.1266  0.1090
17361TIP3    H173498   5.932   6.647   3.308  0.1279  0.3345 -0.3661
17361TIP3    H273499   5.918   6.506   3.360  0.7624  0.6961  0.8210
17362TIP3   OH273500   6.935   2.078   2.573  0.1424  0.0514 -0.5523
17362TIP3    H173501   6.877   2.154   2.566 -1.2059 -0.9726 -0.7393
17362TIP3    H273502   7.023   2.113   2.555 -0.5606  1.3958 -1.4996
17363TIP3   OH273503   0.118   6.172   4.209  0.1298 -0.0727  0.1143
17363TIP3    H173504   0.194   6.180   4.267 -0.5273  1.5262  0.7648
17363TIP3    H273505   0.071   6.096   4.241  2.2450 -2.0460 -1.2392
17364TIP3   OH273506   6.642   0.878   5.259 -0.0691  0.5735  0.1230
17364TIP3    H173507   6.710   0.942   5.282  0.5382 -0.2723  0.7456
17364TIP3    H273508   6.673   0.838   5.178 -0.1110  0.6124  0.0881
17365TIP3   OH273509   7.094   0.048   5.720 -0.3713  0.2513  0.6282
17365TIP3    H173510   7.065   0.005   5.800 -0.9147 -0.2179  0.1842
17365TIP3    H273511   7.015   0.055   5.666  0.3714 -1.1954 -0.6671
17366TIP3   OH273512   0.252   1.175   4.629  0.2523  0.3432  0.4096
17366TIP3    H173513   0.316   1.104   4.622  0.4351  0.4658  0.8456
17366TIP3    H273514   0.271   1.217   4.713  0.1233  0.8904  0.1645
17367TIP3   OH273515   5.583   0.059   3.529  0.4505  0.4331  0.4191
17367TIP3    H173516   5.540   0.056   3.615 -0.1031  1.5129  0.1888
17367TIP3    H273517   5.630   0.142   3.529  0.7871  0.2430 -0.1622
17368TIP3   OH273518   1.061   0.493   5.008 -0.0451 -0.5096 -0.0024
17368TIP3    H173519   1.004   0.468   4.935 -0.1648 -0.3436  0.0334
17368TIP3    H273520   1.149   0.492   4.972  0.0096 -1.5921  0.1618
17369TIP3   OH273521   0.120   1.697   5.661  0.9704 -0.5071  0.2868
17369TIP3    H173522   0.113   1.792   5.664  0.8919 -0.5149  0.3712
17369TIP3    H273523   0.052   1.666   5.722  3.1941 -0.5046  2.8597
17370TIP3   OH273524   5.613   1.408   5.926  0.1401 -0.4892 -0.3768
17370TIP3    H173525   5.617   1.315   5.947  0.5340  0.1481  2.6109
17370TIP3    H273526   5.578   1.449   6.005 -0.0220  1.9048 -1.6348
17371TIP3   OH273527   0.682   6.465   4.004  0.0322 -0.7442 -0.2498
17371TIP3    H173528   0.653   6.555   4.020  0.8044 -0.2608 -1.5288
17371TIP3    H273529   0.601   6.417   3.987 -0.2524  0.0342 -1.1078
17372TIP3   OH273530   7.290   1.718   4.319 -0.4731 -0.0527  0.5763
17372TIP3    H173531   7.290   1.776   4.396  0.0310  1.0263 -0.2174
17372TIP3    H273532   7.302   1.778   4.245  3.2840 -1.4691 -0.0273
17373TIP3   OH273533   5.517   6.313   4.706  0.0027  0.0839 -1.0404
17373TIP3    H173534   5.567   6.384   4.746  0.5764 -0.2766 -1.1132
17373TIP3    H273535   5.480   6.352   4.627  2.5617 -0.4115 -2.5519
17374TIP3   OH273536   4.911   0.111   4.767 -0.0526 -0.1649 -0.0529
17374TIP3    H173537   4.910   0.171   4.842 -0.6568 -0.3523  0.0954
17374TIP3    H273538   4.824   0.070   4.768  0.8141 -2.0625  0.6899
17375TIP3   OH273539   5.729   0.709   4.912  0.3991  0.7661  0.2819
17375TIP3    H173540   5.687   0.635   4.957  0.7672  0.5955  0.3407
17375TIP3    H273541   5.659   0.774   4.904 -0.5181 -0.4208 -1.6911
17376TIP3   OH273542   6.668   1.337   5.693  0.0757 -0.0309 -0.0666
17376TIP3    H173543   6.695   1.383   5.773 -0.5313 -1.3518  0.9036
17376TIP3    H273544   6.597   1.279   5.721 -1.3042  0.7200 -1.8857
17377TIP3   OH273545   1.344   0.805   3.864  0.0004  0.2676 -0.4966
17377TIP3    H173546   1.339   0.900   3.874 -1.7118  0.1633 -0.2840
17377TIP3    H273547   1.395   0.792   3.784  0.0371  1.3676 -0.6587
17378TIP3   OH273548   6.623   2.363   6.261  0.2355 -0.0954  0.2595
17378TIP3    H173549   6.536   2.335   6.233  0.6951 -1.7368  0.4752
17378TIP3    H273550   6.681   2.337   6.189  0.1604  3.7696 -1.3418
17379TIP3   OH273551   0.569   1.945   3.896 -0.3202  0.5223 -0.6380
17379TIP3    H173552   0.575   1.849   3.905 -0.3022  0.4403 -1.5106
17379TIP3    H273553   0.557   1.976   3.986  0.4167 -0.2500 -0.2619
17380TIP3   OH273554   6.200   0.712   6.269  0.0915  0.0899  0.4068
17380TIP3    H173555   6.263   0.758   6.324  1.8101 -0.4632 -1.0626
17380TIP3    H273556   6.254   0.659   6.210 -1.6399  1.6163 -2.6631
17381TIP3   OH273557   5.445   0.552   3.633 -0.2176 -0.1933 -0.0685
17381TIP3    H173558   5.527   0.560   3.584  1.0038 -1.3987  1.7092
17381TIP3    H273559   5.472   0.557   3.725 -2.1513 -0.6373  0.5429
17382TIP3   OH273560   6.131   1.896   5.534 -0.4310  0.6075  0.4345
17382TIP3    H173561   6.179   1.914   5.615 -1.0470 -3.1188  1.7002
17382TIP3    H273562   6.184   1.830   5.490 -2.7771 -1.2593  0.3473
17383TIP3   OH273563   1.137   0.302   4.040  0.8412  0.3045  0.2883
17383TIP3    H173564   1.198   0.259   4.100  0.4525 -0.9917 -0.2283
17383TIP3    H273565   1.188   0.374   4.002  1.6138  0.0897  0.8969
17384TIP3   OH273566   6.633   2.481   5.503  0.1698  0.0673 -0.4555
17384TIP3    H173567   6.580   2.560   5.493 -0.8896 -0.5500  0.1723
17384TIP3    H273568   6.613   2.450   5.591  1.4554 -0.2686 -0.2789
17385TIP3   OH273569   4.754   6.410   4.254  0.2785 -0.6029 -0.0871
17385TIP3    H173570   4.736   6.321   4.284  0.6237 -0.0991  1.6364
17385TIP3    H273571   4.832   6.401   4.199 -0.9806 -1.6886 -1.7477
17386TIP3   OH273572   5.555   2.144   4.653 -0.2758 -0.0835 -0.1013
17386TIP3    H173573   5.573   2.238   4.654 -0.9454  0.0697 -1.8967
17386TIP3    H273574   5.504   2.130   4.573 -0.2612 -1.9614  0.2086
17387TIP3   OH273575   6.712   1.633   5.094 -0.1484  0.3662 -0.0404
17387TIP3    H173576   6.659   1.673   5.163 -0.9547 -0.7542 -0.0050
17387TIP3    H273577   6.778   1.582   5.141 -0.5531 -0.2096 -0.0991
17388TIP3   OH273578   5.098   5.834   4.037 -0.5010  0.0279 -0.3561
17388TIP3    H173579   5.026   5.794   4.086 -1.1616  0.2349 -1.1502
17388TIP3    H273580   5.162   5.763   4.027 -1.8476 -0.9839 -2.1174
17389TIP3   OH273581   0.164   0.645   6.189  0.2864 -0.3067  0.1317
17389TIP3    H173582   0.159   0.695   6.108 -0.2927 -1.0351 -0.2888
17389TIP3    H273583   0.081   0.662   6.233  0.2308 -0.6085  0.1474
17390TIP3   OH273584   6.470   1.955   5.455  0.6509 -0.2927 -0.1750
17390TIP3    H173585   6.470   2.049   5.470 -0.4423 -0.2033 -0.7086
17390TIP3    H273586   6.477   1.917   5.542  0.4712  0.2806  0.0920
17391TIP3   OH273587   5.730   6.644   2.592  0.1004 -0.1166 -0.1128
17391TIP3    H173588   5.663   6.577   2.606  0.3501 -0.3564 -0.0292
17391TIP3    H273589   5.729   6.696   2.672 -0.6141  0.4489 -0.4866
17392TIP3   OH273590   0.448   3.227   5.827  0.1120 -0.5346 -0.0511
17392TIP3    H173591   0.422   3.281   5.902 -1.3203 -2.0439  0.5791
17392TIP3    H273592   0.540   3.246   5.814  0.4593 -0.4876  2.2987
17393TIP3   OH273593   0.102   6.881   4.565 -0.0254 -0.5658 -0.1611
17393TIP3    H173594   0.038   6.923   4.624  0.0510 -1.6230  0.6861
17393TIP3    H273595   0.049   6.842   4.496 -0.1682  0.0391 -0.4011
17394TIP3   OH273596   5.819   0.776   4.307 -0.0892 -0.3144 -0.5738
17394TIP3    H173597   5.813   0.871   4.298 -0.6034 -0.4649 -1.9054
17394TIP3    H273598   5.913   0.758   4.315 -0.0034  0.3074 -0.1742
17395TIP3   OH273599   4.255   0.307   4.169 -0.2550  0.5979  0.3157
17395TIP3    H173600   4.188   0.251   4.207 -0.9796  1.7109  0.6855
17395TIP3    H273601   4.208   0.367   4.112  0.6862 -0.1730 -1.3311
17396TIP3   OH273602   4.749   0.680   5.178  0.0917 -0.7810  0.4230
17396TIP3    H173603   4.832   0.728   5.186 -0.6799  0.5645  0.4045
17396TIP3    H273604   4.733   0.676   5.084  1.6435 -3.7062  0.1948
17397TIP3   OH273605   6.681   1.982   5.186  0.0541 -0.5016  0.1827
17397TIP3    H173606   6.625   1.911   5.218 -1.9636  0.4052 -1.2200
17397TIP3    H273607   6.694   1.963   5.093 -0.7217  1.0586 -0.2723
17398TIP3   OH273608   5.691   0.658   5.592 -0.1487 -0.2702  0.4205
17398TIP3    H173609   5.638   0.706   5.529  0.6727 -1.3545 -1.1213
17398TIP3    H273610   5.659   0.568   5.588  1.1204 -0.7275  0.1984
17399TIP3   OH273611   3.843   7.109   5.221  0.2902 -0.0474 -0.9930
17399TIP3    H173612   3.907   7.167   5.262 -1.0869  0.6802  0.1781
17399TIP3    H273613   3.774   7.099   5.286 -1.0780 -0.3431 -2.4396
17400TIP3   OH273614   0.727   6.133   4.043 -0.2363  0.2064 -0.6591
17400TIP3    H173615   0.689   6.220   4.031  0.8849  1.1204  2.0949
17400TIP3    H273616   0.670   6.090   4.106 -0.0637 -0.6210 -1.0556
17401TIP3   OH273617   6.093   2.801   4.665  0.2413  0.1219  0.2420
17401TIP3    H173618   6.133   2.869   4.720  0.5102  0.7226 -0.6803
17401TIP3    H273619   6.022   2.847   4.619 -0.0966 -0.4188  0.2223
17402TIP3   OH273620   5.974   0.711   4.659 -0.0086 -0.5128 -0.1128
17402TIP3    H173621   6.017   0.637   4.703 -0.4919 -1.0579 -0.5442
17402TIP3    H273622   5.885   0.711   4.695  0.1555  0.2275  0.3152
17403TIP3   OH273623   1.362   2.185   4.484  0.7405 -0.3895 -0.1245
17403TIP3    H173624   1.428   2.116   4.487  1.1075 -0.0154  0.5192
17403TIP3    H273625   1.288   2.150   4.534  0.5315 -0.7305 -0.6779
17404TIP3   OH273626   6.161   1.870   4.039  0.2540 -0.0858  0.2738
17404TIP3    H173627   6.219   1.859   3.964 -0.0106 -0.7529  0.1666
17404TIP3    H273628   6.219   1.881   4.114  0.5209  0.7512 -0.0476
17405TIP3   OH273629   7.266   7.099   3.722  0.0146  0.4837 -0.5792
17405TIP3    H173630   7.314   7.171   3.762  0.8181 -0.4908  0.2208
17405TIP3    H273631   7.218   7.140   3.650 -1.5115  2.2663  1.3916
17406TIP3   OH273632   5.990   5.560   5.480  0.3218 -0.2083  0.2949
17406TIP3    H173633   5.938   5.486   5.449  0.0788  0.2611 -0.4335
17406TIP3    H273634   6.072   5.554   5.431 -0.1463  0.6564 -0.6147
17407TIP3   OH273635   6.394   0.294   1.693  0.0031  0.4416  0.1873
17407TIP3    H173636   6.463   0.316   1.630 -0.7897 -2.3973 -1.7396
17407TIP3    H273637   6.314   0.298   1.641 -1.1029  1.7985  1.9645
17408TIP3   OH273638   0.114   0.206   2.711 -0.2915  1.1292  0.2693
17408TIP3    H173639   0.031   0.168   2.741 -0.4651  2.0501  1.0091
17408TIP3    H273640   0.115   0.294   2.750  0.5805  1.4895 -0.5412
17409TIP3   OH273641   5.792   0.958   3.642  0.4617  0.6924  0.3124
17409TIP3    H173642   5.865   0.962   3.579  1.0539 -0.2085  0.9271
17409TIP3    H273643   5.735   1.031   3.617  0.1884 -0.2130 -1.8912
17410TIP3   OH273644   6.735   0.880   5.993 -0.1898  0.4503  0.4109
17410TIP3    H173645   6.827   0.857   6.006 -0.3527 -1.1380 -1.0600
17410TIP3    H273646   6.686   0.805   6.027 -0.8093 -0.3678 -2.1413
17411TIP3   OH273647   4.779   7.274   5.792 -0.3588 -0.1453  0.8578
17411TIP3    H173648   4.798   7.272   5.699  0.5188  1.6431  0.9977
17411TIP3    H273649   4.721   7.199   5.806 -0.9810 -0.0647 -1.2209
17412TIP3   OH273650   1.161   0.946   4.461  0.6095  0.8959  0.5935
17412TIP3    H173651   1.106   0.923   4.536 -0.2103 -3.4307 -1.1887
17412TIP3    H273652   1.140   1.037   4.443 -2.0525  0.8829  3.2092
17413TIP3   OH273653   6.006   5.857   4.216  0.3526 -0.0495 -0.0565
17413TIP3    H173654   5.925   5.894   4.249  0.4701  0.6889 -0.5685
17413TIP3    H273655   5.998   5.863   4.121 -0.0429 -2.2617 -0.1846
17414TIP3   OH273656   0.100   1.315   3.926 -0.6113 -0.3660 -0.1011
17414TIP3    H173657   0.173   1.263   3.891  0.2329  0.6623  0.0972
17414TIP3    H273658   0.113   1.403   3.889 -0.1380  0.5485  2.1563
17415TIP3   OH273659   5.870   7.242   4.692  0.1880  0.1726  0.8825
17415TIP3    H173660   5.933   7.241   4.763  0.6480 -0.5881  0.4743
17415TIP3    H273661   5.919   7.275   4.616  0.4316 -1.5668  0.2691
17416TIP3   OH273662   0.959   2.580   5.707  0.1503 -0.1718 -0.3583
17416TIP3    H173663   1.045   2.538   5.705  1.0945  1.6501  0.7313
17416TIP3    H273664   0.898   2.507   5.711  1.6651 -1.4933 -0.5908
17417TIP3   OH273665   5.691   0.521   5.181 -0.1545  0.1251  0.2078
17417TIP3    H173666   5.692   0.477   5.266 -0.2359  0.7961  0.5616
17417TIP3    H273667   5.754   0.592   5.190 -1.2420  1.0992  0.2026
17418TIP3   OH273668   6.028   7.046   3.670  0.3325 -0.2441 -0.2785
17418TIP3    H173669   6.038   7.014   3.759 -0.1805  1.1165  0.2792
17418TIP3    H273670   5.934   7.053   3.657  0.4172  0.3311 -0.6346
17419TIP3   OH273671   0.711   0.074   3.500  0.1260 -0.7639  0.0657
17419TIP3    H173672   0.694  -0.011   3.460 -1.2469 -0.1434 -0.6781
17419TIP3    H273673   0.696   0.060   3.593 -1.6044 -0.9784 -0.2247
17420TIP3   OH273674   1.095   1.499   3.091  0.1479  0.1103 -0.2510
17420TIP3    H173675   1.189   1.515   3.081  0.0083  1.3713  0.2837
17420TIP3    H273676   1.060   1.583   3.123 -0.8187 -0.9617  1.6318
17421TIP3   OH273677   0.131   2.954   4.278 -0.3709 -0.3398 -0.4088
17421TIP3    H173678   0.085   3.025   4.234 -0.4955 -0.2188 -0.0839
17421TIP3    H273679   0.095   2.952   4.366 -0.1498 -0.6070 -0.3205
17422TIP3   OH273680   6.234   1.981   5.777  0.0018  0.1243 -0.1432
17422TIP3    H173681   6.199   1.983   5.866 -0.8515  0.0660 -0.4650
17422TIP3    H273682   6.322   2.017   5.785  0.0165 -0.0899  0.7601
17423TIP3   OH273683   6.820   1.866   4.567  0.0861  0.3012  0.2238
17423TIP3    H173684   6.894   1.919   4.538 -0.3990 -0.4708 -2.5548
17423TIP3    H273685   6.860   1.782   4.592  0.2256  0.0151 -0.9119
17424TIP3   OH273686   0.649   2.197   3.840 -0.0898  0.6746  0.4018
17424TIP3    H173687   0.571   2.252   3.848 -0.1931  0.6121 -0.1674
17424TIP3    H273688   0.616   2.107   3.845  0.0928  0.6630  1.4547
17425TIP3   OH273689   6.226   1.339   3.521 -0.2244  0.1467 -1.0349
17425TIP3    H173690   6.251   1.299   3.604  1.3238  0.6285 -1.2543
17425TIP3    H273691   6.203   1.266   3.464 -0.0899 -0.2571 -0.5690
17426TIP3   OH273692   0.427   1.739   5.952  0.1817  0.2123 -0.3068
17426TIP3    H173693   0.425   1.753   5.857 -2.1714  0.3475 -0.2760
17426TIP3    H273694   0.345   1.778   5.983  0.7663 -0.1647  1.7283
17427TIP3   OH273695   5.927   0.716   5.202  0.7448  0.0434  0.2439
17427TIP3    H173696   5.896   0.758   5.122  0.5200  0.8301  0.7427
17427TIP3    H273697   6.013   0.754   5.218  0.8341 -0.1892  0.3193
17428TIP3   OH273698   7.197   0.455   5.841  0.2981 -0.0343 -0.4886
17428TIP3    H173699   7.264   0.407   5.889  0.9061  1.7704  0.4827
17428TIP3    H273700   7.145   0.497   5.909  0.1400  1.1825 -1.3608
17429TIP3   OH273701   5.239   6.779   5.617 -0.3623  0.3305  0.5593
17429TIP3    H173702   5.295   6.817   5.686  0.1689  1.2521 -0.3599
17429TIP3    H273703   5.161   6.834   5.617 -0.5007  0.1352  0.6360
17430TIP3   OH273704   6.935   2.359   5.501  0.2227 -0.2893  0.3365
17430TIP3    H173705   6.936   2.270   5.537  0.1232 -0.6277 -0.4988
17430TIP3    H273706   7.014   2.400   5.537  0.1480 -0.6373  0.9106
17431TIP3   OH273707   6.863   7.244   4.472 -0.0130  0.0595  0.6400
17431TIP3    H173708   6.933   7.186   4.503  0.0881 -0.2259 -0.1142
17431TIP3    H273709   6.786   7.217   4.521  0.2393 -0.1184  0.9398
17432TIP3   OH273710   6.438   0.735   4.400  0.1471 -0.3420 -0.3819
17432TIP3    H173711   6.460   0.745   4.493 -0.6029  0.0581 -0.2462
17432TIP3    H273712   6.399   0.818   4.376 -0.6712 -0.8382 -0.7773
17433TIP3   OH273713   6.719   3.584   5.244  0.7248 -0.2778  0.1614
17433TIP3    H173714   6.688   3.675   5.237 -0.2881 -0.6834 -0.7338
17433TIP3    H273715   6.688   3.542   5.164  0.2901 -1.6792  1.0485
17434TIP3   OH273716   6.728   5.050   5.771  0.3474 -0.7665 -0.7406
17434TIP3    H173717   6.730   5.064   5.866  0.0863  1.9947 -1.1137
17434TIP3    H273718   6.820   5.053   5.745  0.2809  0.6438 -0.8506
17435TIP3   OH273719   4.817   6.866   2.275  0.1808 -0.0561  0.4419
17435TIP3    H173720   4.838   6.807   2.203  1.6161  0.7938  0.1446
17435TIP3    H273721   4.895   6.920   2.286 -1.5734  2.7930 -0.2812
17436TIP3   OH273722   6.696   7.020   5.431  0.8852 -0.0805  0.3316
17436TIP3    H173723   6.635   6.950   5.453 -1.3728  1.4631 -0.7435
17436TIP3    H273724   6.686   7.084   5.501  1.5890  0.0001  0.3635
17437TIP3   OH273725   6.190   1.407   5.268  0.4184  0.5516 -0.1832
17437TIP3    H173726   6.209   1.316   5.292 -1.1920  0.2869  0.1515
17437TIP3    H273727   6.229   1.459   5.338  0.9529  0.0918 -0.1394
17438TIP3   OH273728   6.655   6.637   3.863 -0.1834  0.4254  0.8727
17438TIP3    H173729   6.749   6.646   3.872  0.1939 -2.6119  0.4628
17438TIP3    H273730   6.635   6.666   3.774  0.7223 -1.2328  0.1152
17439TIP3   OH273731   6.940   2.890   3.772  0.9089 -0.0174  0.4998
17439TIP3    H173732   6.916   2.862   3.860 -1.5980  1.1387  0.2154
17439TIP3    H273733   6.870   2.949   3.745  2.1471  0.4352 -1.8927
17440TIP3   OH273734   0.108   1.223   5.484  0.2527  0.9725 -0.0791
17440TIP3    H173735   0.182   1.268   5.524  0.4611  1.9753 -1.5490
17440TIP3    H273736   0.044   1.293   5.468 -0.1422  0.4590 -0.7535
17441TIP3   OH273737   6.307   1.058   5.014  0.4989  0.6361  0.5235
17441TIP3    H173738   6.396   1.062   4.979 -0.3228  1.2043 -1.6476
17441TIP3    H273739   6.288   0.965   5.021  0.3871  0.4851 -1.4798
17442TIP3   OH273740   5.627   2.509   2.667  0.2603 -0.6762  0.2895
17442TIP3    H173741   5.542   2.534   2.703  0.1763 -0.6528  0.0760
17442TIP3    H273742   5.683   2.498   2.743  0.2871  0.1333  0.3972
17443TIP3   OH273743   6.246   0.776   3.388 -0.5457 -0.3353  0.3020
17443TIP3    H173744   6.328   0.725   3.396  0.9069  1.7597 -0.8700
17443TIP3    H273745   6.198   0.755   3.468  1.5702 -0.9029  1.4829
17444TIP3   OH273746   0.662   6.171   4.779  0.7191 -0.1974  1.0536
17444TIP3    H173747   0.657   6.173   4.874  0.2581 -0.2199  1.0302
17444TIP3    H273748   0.609   6.246   4.751  1.1222  0.0013  0.8287
17445TIP3   OH273749   1.270   1.829   5.786  0.0157  0.3754  0.1468
17445TIP3    H173750   1.339   1.779   5.830  1.1584  2.4372  0.7318
17445TIP3    H273751   1.198   1.766   5.776  1.0661 -1.1183  1.7229
17446TIP3   OH273752   3.039   2.030   4.681  0.8009  0.3255 -0.2273
17446TIP3    H173753   2.982   2.020   4.605  0.7541 -1.6304  0.0278
17446TIP3    H273754   3.128   2.021   4.646  0.8183  0.3701 -0.1945
17447TIP3   OH273755   6.325   2.786   4.368  0.7944 -0.0001 -0.0174
17447TIP3    H173756   6.250   2.762   4.423  0.7209  0.7791  0.2286
17447TIP3    H273757   6.289   2.789   4.279  0.6203  0.0133  0.0531
17448TIP3   OH273758   6.920   4.057   5.780  0.1130 -0.2994  0.4423
17448TIP3    H173759   6.956   4.110   5.852  0.4950 -1.4021  1.0831
17448TIP3    H273760   6.827   4.048   5.801  0.1243 -0.2037  0.5375
17449TIP3   OH273761   0.852   2.625   5.175 -0.6557 -0.3329  0.8176
17449TIP3    H173762   0.936   2.587   5.151 -1.5572 -0.8853 -1.5259
17449TIP3    H273763   0.865   2.657   5.265  1.9622 -0.6201  0.5680
17450TIP3   OH273764   1.226   3.259   3.359 -0.3660  0.2574  0.0284
17450TIP3    H173765   1.284   3.186   3.338 -2.2880 -1.3853  0.2382
17450TIP3    H273766   1.219   3.258   3.454 -0.6113  0.5241  0.0138
17451TIP3   OH273767   0.101   3.899   6.123 -0.2682  0.2346  0.0606
17451TIP3    H173768   0.125   3.967   6.060  0.3293  0.3200  0.3783
17451TIP3    H273769   0.182   3.880   6.170 -0.4320 -0.7035 -0.0278
17452TIP3   OH273770   0.304   2.783   5.920 -0.1356  0.1682 -0.1999
17452TIP3    H173771   0.246   2.746   5.987  0.1001 -0.6842 -0.4685
17452TIP3    H273772   0.392   2.773   5.956  0.0123 -0.5616 -0.7777
17453TIP3   OH273773   0.267   4.258   3.669  0.6786 -0.1382  0.0876
17453TIP3    H173774   0.271   4.179   3.615  2.0883 -0.2353  0.3232
17453TIP3    H273775   0.173   4.277   3.676  0.4331 -0.7061 -1.5265
17454TIP3   OH273776   0.579   4.057   6.122 -0.0588  0.3281 -0.0010
17454TIP3    H173777   0.657   4.005   6.141  0.3531  1.1046  0.4613
17454TIP3    H273778   0.507   4.004   6.155  0.3474  0.0033  0.3746
17455TIP3   OH273779   4.052   3.513   4.669  0.6374  0.4123 -0.4367
17455TIP3    H173780   4.055   3.420   4.689  1.7091  0.2522 -1.2553
17455TIP3    H273781   4.059   3.517   4.573  1.6016  1.3619 -0.3408
17456TIP3   OH273782   0.258   4.878   5.084  0.2814 -0.2371 -0.3915
17456TIP3    H173783   0.350   4.906   5.087  0.5884 -1.2164 -0.6463
17456TIP3    H273784   0.248   4.837   4.998 -0.0962 -1.1456  0.0771
17457TIP3   OH273785   1.437   1.767   3.953 -0.2065 -0.9041 -0.1930
17457TIP3    H173786   1.377   1.789   4.024  0.2340 -1.4785  0.3699
17457TIP3    H273787   1.456   1.674   3.966 -0.1014 -1.0004 -1.0459
17458TIP3   OH273788   7.231   2.328   5.539 -0.2309 -0.0001  0.1929
17458TIP3    H173789   7.317   2.327   5.581  0.3557 -1.4990 -0.9701
17458TIP3    H273790   7.249   2.354   5.449 -0.6173 -2.7476 -0.7380
17459TIP3   OH273791   0.114   2.266   5.307 -0.2350  0.0730 -0.2093
17459TIP3    H173792   0.091   2.325   5.235  0.8734  0.6082 -0.1425
17459TIP3    H273793   0.209   2.277   5.317  0.0993 -2.2024 -0.6159
17460TIP3   OH273794   0.119   3.135   5.846 -0.4632  0.2725  0.8154
17460TIP3    H173795   0.041   3.163   5.894 -1.2135  0.8891 -0.7437
17460TIP3    H273796   0.085   3.089   5.769  0.7066  1.0129 -0.1604
17461TIP3   OH273797   2.330   2.638   3.975  0.0507 -0.3572 -0.0390
17461TIP3    H173798   2.408   2.693   3.973 -0.3273  0.1367 -2.1079
17461TIP3    H273799   2.357   2.561   4.024  1.1713  0.7808  1.1921
17462TIP3   OH273800   1.062   0.177   5.565  0.2843  0.0140 -0.3995
17462TIP3    H173801   1.036   0.109   5.627  0.5945  0.6910  0.4697
17462TIP3    H273802   1.146   0.209   5.597  0.9955 -0.4044 -1.7968
17463TIP3   OH273803   1.863   4.146   5.892  0.0693  0.0606  0.6804
17463TIP3    H173804   1.879   4.161   5.986 -0.2990  0.2095  0.7188
17463TIP3    H273805   1.769   4.134   5.885  0.3070 -1.8575  0.5794
17464TIP3   OH273806   0.765   3.123   5.360 -0.0535 -0.0447  0.0636
17464TIP3    H173807   0.705   3.062   5.404 -0.4657  0.6304  0.4538
17464TIP3    H273808   0.795   3.181   5.430  0.1858  0.3191 -0.3412
17465TIP3   OH273809   2.239   0.668   4.024  0.0775  0.1176 -0.4123
17465TIP3    H173810   2.252   0.755   4.060 -0.2019  0.9529 -2.2664
17465TIP3    H273811   2.145   0.653   4.029  0.0670  0.1322 -0.5587
17466TIP3   OH273812   7.128   1.034   5.210 -0.3206  0.4062 -0.3922
17466TIP3    H173813   7.070   1.109   5.227 -0.1119  0.1646  1.5457
17466TIP3    H273814   7.216   1.072   5.207 -0.4155  0.5400 -1.6555
17467TIP3   OH273815   1.189   2.750   5.442  0.1804  0.1587 -0.1448
17467TIP3    H173816   1.144   2.737   5.525  0.6011  0.8392  0.1923
17467TIP3    H273817   1.261   2.810   5.462 -0.6591  1.5999 -1.2933
17468TIP3   OH273818   2.479   2.588   6.003 -0.4312  0.2846 -0.2230
17468TIP3    H173819   2.407   2.533   5.969  2.0914 -2.7874 -0.8504
17468TIP3    H273820   2.524   2.619   5.924  1.0652 -0.7939  0.1960
17469TIP3   OH273821   2.283   3.783   5.648  0.1109 -0.9637  0.0086
17469TIP3    H173822   2.356   3.765   5.707 -0.3410 -0.8745  0.6012
17469TIP3    H273823   2.316   3.759   5.561  2.4939  3.3868 -0.4543
17470TIP3   OH273824   2.867   2.632   5.393  0.4325  0.1875  0.0712
17470TIP3    H173825   2.894   2.551   5.437  2.3502  0.2004 -0.9972
17470TIP3    H273826   2.777   2.616   5.366 -0.8135  0.1988  3.9852
17471TIP3   OH273827   0.168   1.459   4.901  0.0344  0.0395 -0.0396
17471TIP3    H173828   0.120   1.382   4.931 -0.7024  0.1814 -0.8236
17471TIP3    H273829   0.256   1.426   4.880 -0.6198 -0.8476 -1.5055
17472TIP3   OH273830   0.486   3.002   3.441  0.3434 -0.0998 -0.1980
17472TIP3    H173831   0.554   2.940   3.412 -0.7973 -1.5407  0.1374
17472TIP3    H273832   0.524   3.044   3.518  0.5784 -1.4261  0.4256
17473TIP3   OH273833   0.346   2.961   5.324 -0.0748 -0.1495  0.8923
17473TIP3    H173834   0.425   2.963   5.379  0.6309 -0.0631 -0.1048
17473TIP3    H273835   0.369   2.905   5.251 -0.7907  0.2445  0.3562
17474TIP3   OH273836   1.778   3.384   4.225  0.4568  0.8593 -0.1818
17474TIP3    H173837   1.713   3.315   4.222 -0.8817  2.1391 -1.3304
17474TIP3    H273838   1.836   3.360   4.298  0.0962 -1.4996 -0.6552
17475TIP3   OH273839   1.857   2.643   5.137 -0.5211 -0.0069  0.0662
17475TIP3    H173840   1.945   2.679   5.144  0.6068 -2.2989 -1.5506
17475TIP3    H273841   1.820   2.651   5.225  1.3442  0.8329  0.7975
17476TIP3   OH273842   0.910   2.329   4.578  0.0572  0.4856 -0.2378
17476TIP3    H173843   0.933   2.367   4.663  1.7536 -1.9002  0.3995
17476TIP3    H273844   0.945   2.392   4.514 -0.0915  1.6427  0.7983
17477TIP3   OH273845   1.719   4.604   5.328 -0.1691 -0.3443  0.1346
17477TIP3    H173846   1.713   4.633   5.418  0.3073  2.6943 -0.7506
17477TIP3    H273847   1.803   4.556   5.324 -0.0849 -0.3012  1.2216
17478TIP3   OH273848   0.264   2.388   4.974 -0.2675 -0.4670  0.2184
17478TIP3    H173849   0.186   2.434   4.943  0.1983 -0.3510 -0.8100
17478TIP3    H273850   0.304   2.449   5.037 -1.1329 -0.6360  0.9348
17479TIP3   OH273851   1.544   2.570   4.658 -0.0532  0.0053 -0.1132
17479TIP3    H173852   1.467   2.603   4.703  0.7110  1.7279 -0.0038
17479TIP3    H273853   1.527   2.477   4.645 -2.0626  0.3347  0.0487
17480TIP3   OH273854   0.402   3.232   4.817  0.4099  0.7070  1.1129
17480TIP3    H173855   0.358   3.147   4.822  0.9697  0.2521 -1.1896
17480TIP3    H273856   0.350   3.283   4.756  0.2956  1.9037  2.1987
17481TIP3   OH273857   1.592   2.790   4.977 -0.6568 -0.2457 -0.1446
17481TIP3    H173858   1.647   2.727   5.023 -0.8025 -0.8316 -0.7702
17481TIP3    H273859   1.612   2.874   5.019 -1.8564 -0.9852  1.9518
17482TIP3   OH273860   1.606   2.837   4.706  0.5761  0.0453 -0.2378
17482TIP3    H173861   1.607   2.754   4.659  2.8255  0.3636 -0.8062
17482TIP3    H273862   1.587   2.814   4.797  1.3125 -1.0983 -0.3739
17483TIP3   OH273863   0.496   4.146   4.997  0.2266 -0.2088 -1.0716
17483TIP3    H173864   0.411   4.102   5.001 -0.3597  0.8219 -1.9984
17483TIP3    H273865   0.523   4.155   5.088 -1.0059  0.1286 -0.7373
17484TIP3   OH273866   0.271   3.825   5.651  0.3024  0.0209  0.1631
17484TIP3    H173867   0.337   3.823   5.720  0.2218  0.8061  0.2666
17484TIP3    H273868   0.279   3.740   5.608  0.1746 -0.5657  1.2981
17485TIP3   OH273869   1.387   3.478   3.681 -0.1887 -0.3090 -0.2362
17485TIP3    H173870   1.456   3.495   3.617 -2.3212 -0.0842 -2.5262
17485TIP3    H273871   1.330   3.555   3.676 -1.9390 -1.5630 -0.1468
17486TIP3   OH273872   7.176   4.394   4.550  0.1818  0.4292 -0.3815
17486TIP3    H173873   7.096   4.358   4.512  0.0068  0.2890  0.1170
17486TIP3    H273874   7.179   4.357   4.638  1.2920 -0.3349 -0.7268
17487TIP3   OH273875   0.403   2.803   5.107  0.6118 -0.4601 -0.0493
17487TIP3    H173876   0.349   2.799   5.028  1.7165 -0.8915 -0.7829
17487TIP3    H273877   0.476   2.860   5.084  0.9433 -0.5869  0.6648
17488TIP3   OH273878   2.019   4.041   5.668  0.4107 -0.7659  0.4182
17488TIP3    H173879   1.970   4.069   5.745 -1.9605  2.2463 -2.0828
17488TIP3    H273880   2.110   4.061   5.689 -0.4760  2.4577  1.4857
17489TIP3   OH273881   2.238   1.880   4.465  0.2553 -0.4211  0.1258
17489TIP3    H173882   2.210   1.958   4.417  0.6667 -0.4309 -0.1337
17489TIP3    H273883   2.160   1.825   4.469  0.5576 -1.0407 -1.7709
17490TIP3   OH273884   7.059   1.361   4.682  0.0892  0.6610 -0.2455
17490TIP3    H173885   7.154   1.369   4.686  0.1753  0.8415 -2.1021
17490TIP3    H273886   7.042   1.325   4.595 -1.5714  1.1151 -0.1259
17491TIP3   OH273887   0.006   4.330   3.657 -0.3769 -0.2983 -0.1382
17491TIP3    H173888  -0.035   4.370   3.734  0.8747 -0.8716  0.8275
17491TIP3    H273889   0.022   4.404   3.598 -0.1173  0.3256  0.7076
17492TIP3   OH273890   0.412   4.243   4.401  0.1473  0.2204 -0.0262
17492TIP3    H173891   0.429   4.159   4.443  0.4501  1.1385  1.7076
17492TIP3    H273892   0.317   4.255   4.407 -0.2730 -1.2890 -2.8081
17493TIP3   OH273893   2.198   3.312   3.155 -0.0303 -0.6863 -0.5066
17493TIP3    H173894   2.192   3.315   3.059 -0.1703  2.4928 -0.4623
17493TIP3    H273895   2.109   3.328   3.185  0.2982 -0.0204  0.1326
17494TIP3   OH273896   0.010   3.598   4.416  0.2466  0.0576 -0.5410
17494TIP3    H173897  -0.045   3.638   4.349  1.0867  1.7789 -0.2376
17494TIP3    H273898   0.045   3.519   4.375 -0.1888  0.4661 -1.7088
17495TIP3   OH273899   0.230   3.277   4.198  0.3653 -0.1840  0.0814
17495TIP3    H173900   0.225   3.277   4.102 -1.0465 -0.3949  0.1489
17495TIP3    H273901   0.142   3.299   4.226  1.0810  1.1351  1.3293
17496TIP3   OH273902   2.250   3.449   4.015 -0.5376 -0.3284 -0.1172
17496TIP3    H173903   2.185   3.504   4.058 -0.9459 -1.5084  0.7704
17496TIP3    H273904   2.204   3.367   3.996  0.3608 -0.7496 -0.5038
17497TIP3   OH273905   6.491   3.740   4.147  0.2732  0.1538 -0.1374
17497TIP3    H173906   6.471   3.760   4.239 -0.7674  1.5525 -0.6591
17497TIP3    H273907   6.406   3.739   4.104  0.7405 -0.7250 -1.0580
17498TIP3   OH273908   1.589   4.615   2.669 -0.5616  0.0190 -0.0406
17498TIP3    H173909   1.647   4.541   2.652 -0.5458 -0.2549  1.1537
17498TIP3    H273910   1.614   4.681   2.604  0.0083 -0.6864 -0.5471
17499TIP3   OH273911   0.423   4.485   5.220  0.2889 -0.1693 -0.3131
17499TIP3    H173912   0.368   4.493   5.298 -0.0642 -1.5038 -0.4116
17499TIP3    H273913   0.490   4.553   5.230  1.3744 -1.5487  2.0900
17500TIP3   OH273914   1.105   3.004   3.191 -0.0694  0.8572  0.2137
17500TIP3    H173915   1.201   3.003   3.190 -0.0472 -1.6752  1.0913
17500TIP3    H273916   1.082   2.980   3.281 -1.5278 -1.9918 -0.8839
17501TIP3   OH273917   0.539   1.258   6.243 -0.5216  0.9398 -0.3230
17501TIP3    H173918   0.626   1.244   6.281 -0.4175  1.7681 -0.2567
17501TIP3    H273919   0.546   1.223   6.154 -0.3357  0.3438 -0.0789
17502TIP3   OH273920   6.723   4.766   6.429 -0.0064  0.5152  0.2350
17502TIP3    H173921   6.701   4.831   6.362  0.0839  0.4094  0.1016
17502TIP3    H273922   6.663   4.693   6.412 -1.0428  1.1145  1.2348
17503TIP3   OH273923   3.180   1.453   4.652  0.0449  0.2341  0.4699
17503TIP3    H173924   3.211   1.419   4.568  0.2092 -0.0649  0.6495
17503TIP3    H273925   3.235   1.409   4.717 -0.2309  0.2973  0.7455
17504TIP3   OH273926   1.156   2.106   4.640  0.4135 -0.3478  0.4008
17504TIP3    H173927   1.096   2.171   4.603 -0.4212 -1.5094 -0.3463
17504TIP3    H273928   1.174   2.137   4.728  0.9796  1.5131 -0.3374
17505TIP3   OH273929   0.691   4.084   3.838 -0.3041  0.0903  0.2202
17505TIP3    H173930   0.622   4.145   3.861 -0.9106 -0.8118  0.7925
17505TIP3    H273931   0.662   4.000   3.871 -0.5486 -0.9788 -2.5813
17506TIP3   OH273932   1.038   3.342   3.838 -0.2800  0.1977 -0.1414
17506TIP3    H173933   1.107   3.311   3.896 -0.8110 -0.2327  0.2712
17506TIP3    H273934   1.076   3.337   3.750  0.8338  1.7063  0.2452
17507TIP3   OH273935   0.663   1.849   5.087 -0.2178  0.0350  0.3978
17507TIP3    H173936   0.643   1.787   5.158 -1.6772 -0.1740 -0.1774
17507TIP3    H273937   0.646   1.935   5.126 -0.6279 -0.0590  0.4305
17508TIP3   OH273938   6.604   2.877   4.274  0.0447  0.2467 -0.0672
17508TIP3    H173939   6.563   2.918   4.351  0.1419  0.0173  0.1054
17508TIP3    H273940   6.690   2.849   4.304  1.3288  2.9267 -1.0758
17509TIP3   OH273941   5.379   3.842   5.362  0.0108  0.3666  0.8322
17509TIP3    H173942   5.327   3.836   5.281  1.7368  0.2360 -0.2898
17509TIP3    H273943   5.437   3.917   5.347  1.8639 -0.9805  1.0391
17510TIP3   OH273944   6.157   3.313   5.867  0.2526  0.3804  0.7198
17510TIP3    H173945   6.089   3.272   5.921  1.0567  0.9704  2.2128
17510TIP3    H273946   6.113   3.386   5.825  0.5097  2.3015  3.6460
17511TIP3   OH273947   0.711   2.616   4.313 -0.2806  0.5520 -0.7447
17511TIP3    H173948   0.806   2.612   4.314 -0.2945  0.0528 -1.4216
17511TIP3    H273949   0.690   2.669   4.236 -0.5621  0.1825 -0.9247
17512TIP3   OH273950   1.197   2.517   6.029 -0.4461 -0.8375  0.3745
17512TIP3    H173951   1.243   2.473   6.101 -2.1507  0.5092  2.3372
17512TIP3    H273952   1.137   2.451   5.996  0.8372 -1.6901 -0.3120
17513TIP3   OH273953   1.943   1.957   5.546 -0.0985 -0.6715 -0.4342
17513TIP3    H173954   2.025   1.938   5.502 -0.8276  0.0214 -2.1599
17513TIP3    H273955   1.877   1.906   5.499 -0.6119 -1.6251  1.2515
17514TIP3   OH273956   6.886   2.332   4.374 -0.1516  0.2292  0.4041
17514TIP3    H173957   6.945   2.310   4.301 -1.0404 -2.6399  0.5069
17514TIP3    H273958   6.808   2.366   4.331 -0.8912 -1.9719 -0.0645
17515TIP3   OH273959   0.892   2.367   3.339  0.6699  0.7965  0.0910
17515TIP3    H173960   0.987   2.377   3.339  0.6028  1.4712  0.3458
17515TIP3    H273961   0.862   2.422   3.267  0.2067  3.4151  2.2153
17516TIP3   OH273962   1.427   2.903   6.185  0.7278  0.5342  0.5158
17516TIP3    H173963   1.520   2.919   6.201  1.7098 -3.3576 -0.6673
17516TIP3    H273964   1.415   2.811   6.208 -2.1131  0.1157 -2.3227
17517TIP3   OH273965   7.009   1.352   1.999 -0.2357 -0.5698 -0.0021
17517TIP3    H173966   6.989   1.403   1.920 -2.0654 -0.0655  0.7594
17517TIP3    H273967   6.924   1.328   2.034  0.5855 -1.9222  1.1140
17518TIP3   OH273968   6.657   2.869   5.096 -0.0412 -0.5815 -0.5138
17518TIP3    H173969   6.738   2.920   5.104 -0.3243 -0.1766 -0.1630
17518TIP3    H273970   6.674   2.809   5.023  0.3927 -0.1602 -0.7692
17519TIP3   OH273971   5.657   4.570   5.487  0.3436  0.5683 -0.4260
17519TIP3    H173972   5.684   4.606   5.571  0.2646  0.3899 -0.3225
17519TIP3    H273973   5.576   4.522   5.506 -0.3311  1.5375 -0.8323
17520TIP3   OH273974   3.235   2.320   5.933  0.4100 -0.1016 -0.2916
17520TIP3    H173975   3.202   2.332   5.844 -0.6211  0.1651  0.1177
17520TIP3    H273976   3.329   2.302   5.922  0.0340 -1.4651 -1.5214
17521TIP3   OH273977   7.279   3.308   4.297  0.5130  0.2462 -0.1830
17521TIP3    H173978   7.203   3.365   4.279 -1.3925 -2.4237 -0.8271
17521TIP3    H273979   7.251   3.255   4.372  2.4421  0.4109  0.6766
17522TIP3   OH273980   0.754   4.579   5.757 -0.1732 -0.4255  0.4153
17522TIP3    H173981   0.831   4.623   5.723 -1.1325  0.3765 -0.7739
17522TIP3    H273982   0.686   4.594   5.691 -1.9002  0.5808  2.3571
17523TIP3   OH273983   0.116   1.983   5.074 -0.1229  0.0444  0.2103
17523TIP3    H173984   0.151   1.974   4.985 -0.4443 -0.4257  0.1250
17523TIP3    H273985   0.127   1.896   5.112  1.1311  0.5605  1.0541
17524TIP3   OH273986   3.329   1.318   5.255  0.7168 -0.3549  0.5325
17524TIP3    H173987   3.380   1.303   5.176 -0.9237  0.7596 -0.7839
17524TIP3    H273988   3.370   1.394   5.297  0.7962 -0.1371  0.0584
17525TIP3   OH273989   5.449   3.881   3.722  0.0807 -0.6057 -0.2851
17525TIP3    H173990   5.509   3.856   3.792 -0.4870 -0.3921  0.2862
17525TIP3    H273991   5.362   3.862   3.757 -0.3541  1.7534  0.0321
17526TIP3   OH273992   0.605   2.302   5.666 -0.1342 -0.2950 -0.0604
17526TIP3    H173993   0.643   2.230   5.616  0.2578 -0.2844  0.2251
17526TIP3    H273994   0.677   2.337   5.718  0.3783  2.1531 -2.3184
17527TIP3   OH273995   6.801   1.747   3.046  0.4379  0.1850 -0.1784
17527TIP3    H173996   6.820   1.804   3.121 -0.8021  1.9820 -1.2064
17527TIP3    H273997   6.724   1.698   3.072  0.9558 -0.3726  0.3380
17528TIP3   OH273998   0.648   1.286   2.294  0.4472 -0.6377 -0.0650
17528TIP3    H173999   0.625   1.278   2.201 -0.1188 -0.6723  0.0785
17528TIP3    H274000   0.743   1.274   2.296  0.3086 -1.8890 -0.4975
17529TIP3   OH274001   0.610   1.117   1.310  0.1544  0.3989  0.2633
17529TIP3    H174002   0.652   1.039   1.273  1.0108  0.1960  1.6373
17529TIP3    H274003   0.532   1.084   1.354 -0.6941  0.6009 -1.0821
17530TIP3   OH274004   2.299   2.804   5.234 -0.2024  0.0242  0.6003
17530TIP3    H174005   2.313   2.804   5.328 -0.1816  0.2199  0.5971
17530TIP3    H274006   2.257   2.720   5.216  1.5571 -0.8588  0.5246
17531TIP3   OH274007   7.225   3.848   3.993  0.0665 -0.6450 -0.2069
17531TIP3    H174008   7.267   3.914   3.938  0.9983 -0.2430  0.9508
17531TIP3    H274009   7.132   3.857   3.976  0.2814  0.1152 -0.9935
17532TIP3   OH274010   0.273   4.226   5.337  0.0090 -0.5711  0.6182
17532TIP3    H174011   0.228   4.292   5.284 -0.4589 -0.8795  0.6278
17532TIP3    H274012   0.208   4.157   5.350  1.1034 -1.9811 -1.1011
17533TIP3   OH274013   0.307   3.642   3.500  0.1969  0.1795 -0.3344
17533TIP3    H174014   0.240   3.621   3.565  1.5825 -0.1036  1.0342
17533TIP3    H274015   0.335   3.731   3.523 -1.0342  1.0508 -2.0823
17534TIP3   OH274016   0.372   2.504   5.666  0.6537  0.5277  0.2703
17534TIP3    H174017   0.292   2.479   5.620  0.7621  0.9849 -0.1756
17534TIP3    H274018   0.438   2.509   5.598  0.7537  1.4755  0.4320
17535TIP3   OH274019   0.155   4.430   4.776  0.3771  0.0767  0.5166
17535TIP3    H174020   0.225   4.416   4.713  0.2680 -1.6975  0.7599
17535TIP3    H274021   0.197   4.425   4.862  0.1194 -0.0264  0.6394
17536TIP3   OH274022   2.158   2.950   3.377  0.8609 -0.1302  0.0198
17536TIP3    H174023   2.194   2.934   3.464 -0.0814 -1.9702  0.0957
17536TIP3    H274024   2.216   2.901   3.318  0.7525  0.0792 -0.2604
17537TIP3   OH274025   1.853   2.627   5.817 -0.1120 -0.0174  0.1341
17537TIP3    H174026   1.939   2.602   5.853 -0.5663 -0.6146  0.8169
17537TIP3    H274027   1.809   2.543   5.802 -0.8770  0.3157  0.5279
17538TIP3   OH274028   1.715   5.227   4.392 -0.0323 -0.2152  0.0872
17538TIP3    H174029   1.722   5.243   4.298 -0.6827 -1.2915 -0.1471
17538TIP3    H274030   1.715   5.132   4.401 -1.2063 -0.1364  1.0729
17539TIP3   OH274031   2.387   4.411   5.809  0.1022 -0.3748 -0.0306
17539TIP3    H174032   2.476   4.396   5.840 -0.7684 -1.1214  2.1497
17539TIP3    H274033   2.352   4.479   5.866 -0.7919 -0.1797 -0.7900
17540TIP3   OH274034   6.369   4.197   3.847  1.1294  0.3747 -0.3152
17540TIP3    H174035   6.349   4.289   3.828  3.2849  1.3743  1.9515
17540TIP3    H274036   6.297   4.167   3.901  0.6504  0.8601 -0.6735
17541TIP3   OH274037   7.217   1.699   6.110 -0.2739  0.1665 -0.6802
17541TIP3    H174038   7.156   1.766   6.080 -0.9782 -0.0667  0.2117
17541TIP3    H274039   7.161   1.629   6.145  0.4955 -0.0273  0.1837
17542TIP3   OH274040   2.049   4.113   5.414 -0.3028 -0.1394  0.5921
17542TIP3    H174041   2.028   4.089   5.504 -0.6384  0.6613  0.7358
17542TIP3    H274042   2.105   4.190   5.422  2.8778 -2.3450  0.2156
17543TIP3   OH274043   2.745   3.717   5.287 -0.2474 -0.0285  0.4682
17543TIP3    H174044   2.751   3.810   5.263 -1.9175  0.1434  0.6349
17543TIP3    H274045   2.812   3.674   5.234  1.1947  1.4073  1.1039
17544TIP3   OH274046   3.516   3.073   3.589  0.0095  0.5248 -0.3508
17544TIP3    H174047   3.541   3.071   3.497  2.4134 -0.1335  0.2618
17544TIP3    H274048   3.571   3.143   3.627  0.1663 -0.2352  0.8503
17545TIP3   OH274049   3.558   5.141   4.236 -0.5072 -0.0508  0.1353
17545TIP3    H174050   3.533   5.050   4.220 -0.0433 -0.2572  0.5964
17545TIP3    H274051   3.537   5.186   4.154 -1.7795 -0.3486  0.2815
17546TIP3   OH274052   1.362   3.859   5.815  0.0311  0.0390  0.3340
17546TIP3    H174053   1.401   3.800   5.880  1.8215  1.2105  0.3651
17546TIP3    H274054   1.283   3.893   5.858  0.7286  0.1316  1.5709
17547TIP3   OH274055   1.489   3.520   4.092  0.1219 -0.5066  0.4647
17547TIP3    H174056   1.496   3.513   4.188 -0.5893 -0.6129  0.5103
17547TIP3    H274057   1.516   3.434   4.060  0.2323 -0.5142  0.5766
17548TIP3   OH274058   2.787   4.015   5.214  0.1221 -0.1690 -0.3786
17548TIP3    H174059   2.730   4.067   5.271 -0.0525 -0.1201 -0.5954
17548TIP3    H274060   2.868   4.004   5.265  1.0098  2.1982 -1.2023
17549TIP3   OH274061   0.266   0.975   3.978  0.1618 -0.4737  0.0514
17549TIP3    H174062   0.298   0.913   3.912  1.5940  0.3572 -0.0519
17549TIP3    H274063   0.275   1.061   3.937 -2.9354 -0.2594 -0.2484
17550TIP3   OH274064   1.294   3.236   3.986 -0.0791  0.2830 -0.2134
17550TIP3    H174065   1.369   3.214   3.932  0.2593 -1.3287  0.8752
17550TIP3    H274066   1.268   3.153   4.027 -0.5733  1.3758  1.7581
17551TIP3   OH274067   0.457   1.477   4.148 -0.5428  0.3379 -0.2437
17551TIP3    H174068   0.380   1.517   4.189 -0.9340  0.7572 -1.3736
17551TIP3    H274069   0.467   1.523   4.065  0.3453 -0.3829 -0.5443
17552TIP3   OH274070   0.191   3.476   5.074  0.0574  0.5898 -0.2648
17552TIP3    H174071   0.196   3.489   4.979  1.2628 -0.4442 -0.3652
17552TIP3    H274072   0.204   3.382   5.085 -0.6556  0.6219  0.9005
17553TIP3   OH274073   6.996   5.106   5.711  0.0511 -0.1390  0.4022
17553TIP3    H174074   7.065   5.118   5.645 -0.7250  1.7039 -0.1161
17553TIP3    H274075   7.039   5.128   5.794  0.1737  0.7688  0.1088
17554TIP3   OH274076   6.663   2.963   3.623 -0.4241 -0.5155  0.0352
17554TIP3    H174077   6.687   3.009   3.704 -2.0475 -0.7773  0.6736
17554TIP3    H274078   6.674   2.870   3.645 -3.5508 -0.7364  0.8830
17555TIP3   OH274079   0.383   2.307   5.375 -0.1361 -0.5050 -0.3869
17555TIP3    H174080   0.432   2.234   5.413  1.4094  0.8336  0.2217
17555TIP3    H274081   0.430   2.329   5.295 -0.5156 -0.0828 -0.4989
17556TIP3   OH274082   2.508   3.776   4.261 -0.2526  0.0096  0.3068
17556TIP3    H174083   2.543   3.702   4.211 -1.2122 -0.0575 -0.2785
17556TIP3    H274084   2.434   3.739   4.309 -0.7098  0.5849  0.0445
17557TIP3   OH274085   1.165   2.905   3.694  0.0184  0.1492  0.2588
17557TIP3    H174086   1.243   2.947   3.730  0.3618  0.8622 -1.2960
17557TIP3    H274087   1.173   2.814   3.722  1.5262  0.1646 -0.0674
17558TIP3   OH274088   0.194   1.257   1.911 -0.0158  0.7156  0.1893
17558TIP3    H174089   0.220   1.166   1.900  0.9193  0.7313  2.0509
17558TIP3    H274090   0.100   1.258   1.895  0.2310 -0.2908 -1.3708
17559TIP3   OH274091   3.772   3.507   4.864  0.6187 -0.0124 -0.5440
17559TIP3    H174092   3.708   3.438   4.883  2.5652 -1.9083 -0.6737
17559TIP3    H274093   3.801   3.488   4.774  2.0550  0.2590 -0.1430
17560TIP3   OH274094   5.263   3.451   4.849 -0.0550 -0.0415  0.5669
17560TIP3    H174095   5.242   3.360   4.870  1.7066 -0.5628  0.1488
17560TIP3    H274096   5.269   3.494   4.934  0.9511 -0.7548  0.8692
17561TIP3   OH274097   5.779   4.217   1.989 -0.2114 -0.0642 -0.1220
17561TIP3    H174098   5.756   4.158   2.061 -1.4720  0.5051 -0.0285
17561TIP3    H274099   5.788   4.303   2.031 -0.8791  0.2589 -0.6122
17562TIP3   OH274100   2.310   2.816   5.950  0.1207  0.1729 -0.9622
17562TIP3    H174101   2.293   2.894   6.003 -1.4994 -0.7987 -0.0088
17562TIP3    H274102   2.388   2.776   5.988 -0.4912 -0.0088  0.1095
17563TIP3   OH274103   0.882   2.725   5.459 -0.1979 -0.1929 -0.1327
17563TIP3    H174104   0.953   2.787   5.475 -0.5193  0.4064 -0.9675
17563TIP3    H274105   0.878   2.671   5.538  0.4160  0.5307  0.3969
17564TIP3   OH274106   1.816   2.780   1.266 -0.2444  0.6055  0.5510
17564TIP3    H174107   1.817   2.773   1.361  0.6547  2.6968  0.7328
17564TIP3    H274108   1.760   2.856   1.248  0.2010  0.6958 -0.5341
17565TIP3   OH274109   5.600   5.419   4.644  0.1172 -0.4495  0.4512
17565TIP3    H174110   5.649   5.444   4.723  2.9655 -0.9259 -1.0886
17565TIP3    H274111   5.559   5.336   4.668  2.1371 -1.3366  1.0130
17566TIP3   OH274112   0.481   4.075   3.314 -0.0850 -0.0497 -0.0481
17566TIP3    H174113   0.508   4.137   3.247  0.1036 -1.1823 -1.0499
17566TIP3    H274114   0.423   4.014   3.269  0.7980 -1.3968  0.5562
17567TIP3   OH274115   0.695   3.695   5.957  0.6799 -0.2817 -0.8459
17567TIP3    H174116   0.658   3.663   6.039 -0.0021  0.3499 -0.9006
17567TIP3    H274117   0.787   3.670   5.961  0.9983  1.0834  0.7956
17568TIP3   OH274118   1.345   3.675   5.435  0.2134 -0.5323 -0.3983
17568TIP3    H174119   1.272   3.659   5.495  0.5069 -0.8253 -0.1202
17568TIP3    H274120   1.370   3.588   5.403 -1.2088 -0.2362 -2.4607
17569TIP3   OH274121   5.194   5.065   4.942  0.2710  0.5055 -0.0854
17569TIP3    H174122   5.260   5.039   5.006  0.7419  1.4403 -0.1892
17569TIP3    H274123   5.156   5.146   4.977 -0.4137  0.2954 -0.3231
17570TIP3   OH274124   0.988   3.196   5.875  0.3397 -0.5141  0.4034
17570TIP3    H174125   0.893   3.209   5.881  0.4851  0.8526 -0.2105
17570TIP3    H274126   1.000   3.104   5.898 -0.9699 -0.2782  2.1814
17571TIP3   OH274127   0.483   4.420   3.554  0.3782  0.4665 -0.4638
17571TIP3    H174128   0.417   4.350   3.553 -1.5191  2.1466  2.4640
17571TIP3    H274129   0.550   4.389   3.615  1.1765 -0.2042 -1.6598
17572TIP3   OH274130   1.889   3.341   3.971  0.3388 -0.4943 -0.2916
17572TIP3    H174131   1.803   3.311   4.000 -0.8532  2.6719 -0.3403
17572TIP3    H274132   1.932   3.371   4.051  0.4571  0.1391 -0.5888
17573TIP3   OH274133   0.502   2.981   6.506  0.1696 -0.3205 -0.3698
17573TIP3    H174134   0.434   2.968   6.572  0.0867 -0.2881 -0.4504
17573TIP3    H274135   0.473   2.929   6.431 -0.1166  0.2523 -0.6601
17574TIP3   OH274136   7.250   4.237   3.054 -0.0092 -0.3511  0.1494
17574TIP3    H174137   7.305   4.303   3.094  0.4104 -2.0734  2.5073
17574TIP3    H274138   7.302   4.203   2.981  0.4766  0.6663  0.0182
17575TIP3   OH274139   1.395   1.352   2.924  0.2890  1.0106  0.3091
17575TIP3    H174140   1.468   1.293   2.905  0.6601  1.3891  0.5639
17575TIP3    H274141   1.327   1.326   2.861 -0.4588 -1.2874  1.9726
17576TIP3   OH274142   0.164   6.869   2.865  0.1329 -0.0844  0.5075
17576TIP3    H174143   0.103   6.797   2.853 -1.6264  1.5818 -1.0417
17576TIP3    H274144   0.108   6.946   2.879  1.8361  1.5106 -1.0432
17577TIP3   OH274145   0.854   1.375   5.479  0.4393  0.0866  0.0207
17577TIP3    H174146   0.873   1.361   5.572  1.2395  0.0924 -0.1309
17577TIP3    H274147   0.941   1.390   5.439  0.1793 -0.7235 -0.8589
17578TIP3   OH274148   6.265   0.761   1.146 -0.5765  0.2627  0.3661
17578TIP3    H174149   6.287   0.815   1.222 -1.4020 -1.0097  1.5273
17578TIP3    H274150   6.341   0.769   1.088  1.1516 -0.7284  2.4357
17579TIP3   OH274151   1.271   2.760   5.910 -0.3317 -0.2074  0.2105
17579TIP3    H174152   1.223   2.768   5.827 -0.3912  0.5986  0.3227
17579TIP3    H274153   1.247   2.673   5.943  2.2607 -1.9403 -2.2177
17580TIP3   OH274154   0.794   2.366   5.389  0.5186 -0.2327 -0.1899
17580TIP3    H174155   0.797   2.334   5.299  1.8450 -0.5729 -0.0469
17580TIP3    H274156   0.776   2.287   5.441 -0.4673  0.0016 -0.1738
17581TIP3   OH274157   3.343   4.319   0.589  0.7466  0.6395 -0.5105
17581TIP3    H174158   3.439   4.317   0.588  0.7235 -0.6336 -1.9265
17581TIP3    H274159   3.318   4.226   0.592 -0.4439  0.8764 -2.5132
17582TIP3   OH274160   0.864   3.110   3.643  0.2098 -0.2862  0.4654
17582TIP3    H174161   0.903   3.125   3.557  0.6856 -0.7553  0.5953
17582TIP3    H274162   0.813   3.030   3.634  0.3153 -0.3741  0.6369
17583TIP3   OH274163   0.094   4.726   5.723  0.0762 -0.4023 -0.4949
17583TIP3    H174164   0.172   4.673   5.703  0.7114  0.6351 -0.7852
17583TIP3    H274165   0.116   4.772   5.804 -0.0026  0.3548 -0.9015
17584TIP3   OH274166   2.564   2.094   4.754  0.3388  0.3101  0.5716
17584TIP3    H174167   2.526   2.157   4.693 -1.7020 -1.5981 -0.2043
17584TIP3    H274168   2.523   2.116   4.838  0.1851  0.4821  0.4548
17585TIP3   OH274169   1.926   3.499   5.232  0.2986  0.1975  0.2149
17585TIP3    H174170   1.999   3.441   5.252  0.4383 -0.6568 -2.4454
17585TIP3    H274171   1.850   3.458   5.273  0.9703 -0.0435  1.2108
17586TIP3   OH274172   0.552   4.612   4.602 -0.2208 -0.1635  0.2217
17586TIP3    H174173   0.547   4.517   4.587  1.0510 -0.5804  2.1529
17586TIP3    H274174   0.496   4.650   4.535  0.4069 -2.1934 -1.5297
17587TIP3   OH274175   0.166   2.532   5.477  0.5724  0.5409 -0.6282
17587TIP3    H174176   0.196   2.466   5.414 -0.4140  0.4000 -0.9617
17587TIP3    H274177   0.147   2.609   5.423 -0.9432  0.1970 -0.6058
17588TIP3   OH274178   7.019   1.926   5.357  0.9783 -0.6107 -0.1554
17588TIP3    H174179   7.110   1.942   5.382  1.1787 -1.7074 -0.1749
17588TIP3    H274180   7.017   1.936   5.262  0.8906  0.2729 -0.0692
17589TIP3   OH274181   2.279   1.084   4.328  0.3425  0.7853 -0.1541
17589TIP3    H174182   2.348   1.104   4.264 -0.0954  2.1629 -0.2148
17589TIP3    H274183   2.290   1.150   4.396 -2.3789  2.5078 -1.3028
17590TIP3   OH274184   7.099   3.728   3.719 -0.0101 -0.9225  0.2709
17590TIP3    H174185   7.079   3.806   3.770 -1.7392 -2.2897  1.7204
17590TIP3    H274186   7.059   3.744   3.633 -0.8627 -0.4518  0.7506
17591TIP3   OH274187   3.795   1.582   4.797  0.3978 -0.3176 -0.0934
17591TIP3    H174188   3.707   1.551   4.775  0.1623  0.6227 -0.5033
17591TIP3    H274189   3.834   1.510   4.847 -0.8447 -0.4553  0.6789
17592TIP3   OH274190   6.829   4.044   5.188 -0.6850  0.3365  0.1274
17592TIP3    H174191   6.760   4.107   5.208 -1.4244  0.5649 -2.8989
17592TIP3    H274192   6.827   4.035   5.092  0.2226 -3.3427  0.3634
17593TIP3   OH274193   6.988   4.292   4.196  0.0515  0.3445  0.3231
17593TIP3    H174194   7.060   4.301   4.258  0.9831 -3.5206 -0.0759
17593TIP3    H274195   6.910   4.286   4.251  0.4146  0.9952  0.9201
17594TIP3   OH274196   1.761   4.551   4.768 -0.8895 -0.6059 -0.2205
17594TIP3    H174197   1.756   4.460   4.737 -0.3654 -0.5531 -0.4758
17594TIP3    H274198   1.772   4.543   4.863  0.3636 -0.8461 -0.3785
17595TIP3   OH274199   3.225   6.188   4.058  0.1608  0.3562 -0.1011
17595TIP3    H174200   3.294   6.251   4.080  1.2390 -1.0289  0.5797
17595TIP3    H274201   3.199   6.151   4.142  1.9184 -2.5182 -0.7497
17596TIP3   OH274202   0.664   3.095   4.736  0.7643  0.8961 -0.2435
17596TIP3    H174203   0.727   3.142   4.790 -0.2198  1.1945  0.6605
17596TIP3    H274204   0.581   3.101   4.784 -0.0187  0.7402 -1.5254
17597TIP3   OH274205   0.668   3.552   3.420  0.8797 -0.0655 -0.0654
17597TIP3    H174206   0.704   3.531   3.506  0.8286  1.1715  0.2629
17597TIP3    H274207   0.729   3.511   3.358  0.8609 -1.0395  0.5524
17598TIP3   OH274208   2.866   3.624   4.475  0.3307  0.0169  0.4878
17598TIP3    H174209   2.815   3.548   4.448  0.7842 -0.3616  0.7000
17598TIP3    H274210   2.886   3.669   4.393 -0.6865  0.3933  0.4338
17599TIP3   OH274211   0.715   4.221   4.772 -0.0244 -0.2245 -0.1737
17599TIP3    H174212   0.636   4.197   4.723  0.3468  1.1579 -1.4820
17599TIP3    H274213   0.738   4.141   4.819  0.0852 -1.9060 -2.9317
17600TIP3   OH274214   2.731   1.922   5.781 -0.2854 -0.3771 -0.0309
17600TIP3    H174215   2.767   1.961   5.860 -1.3809 -1.9651  1.2761
17600TIP3    H274216   2.755   1.829   5.787 -0.8902 -0.6285 -1.2742
17601TIP3   OH274217   3.340   1.549   3.795  0.8028 -0.5403 -0.0935
17601TIP3    H174218   3.274   1.618   3.792  0.2519 -1.0461  0.2508
17601TIP3    H274219   3.368   1.539   3.704  0.3272 -0.4008 -0.2538
17602TIP3   OH274220   2.013   4.594   4.602 -0.6495  0.1556 -0.7122
17602TIP3    H174221   2.046   4.549   4.525 -0.6568  1.9383 -1.7812
17602TIP3    H274222   1.918   4.580   4.599 -0.5508 -0.5985 -0.4760
17603TIP3   OH274223   6.924   2.302   6.281 -0.6919  0.6491  0.4920
17603TIP3    H174224   6.844   2.349   6.303 -1.4523 -0.8964  1.1049
17603TIP3    H274225   6.896   2.232   6.223  0.7697  2.3527 -2.3733
17604TIP3   OH274226   2.552   4.060   5.592 -0.0227  0.1463 -0.4937
17604TIP3    H174227   2.460   4.058   5.618  0.5909 -2.0363  1.6875
17604TIP3    H274228   2.601   4.044   5.672  2.3081  1.4447 -1.5757
17605TIP3   OH274229   2.366   2.783   5.499 -0.5760 -0.3314  0.0781
17605TIP3    H174230   2.303   2.813   5.564  0.5589  0.0652  1.0164
17605TIP3    H274231   2.436   2.744   5.551  1.0743  1.3633 -0.8268
17606TIP3   OH274232   3.625   1.309   3.642 -0.8433 -0.3414  0.6360
17606TIP3    H174233   3.600   1.330   3.732 -2.1723 -0.0092  0.2022
17606TIP3    H274234   3.564   1.359   3.588  1.5318  1.4146 -0.4873
17607TIP3   OH274235   3.043   2.819   5.850  0.2538  0.0358 -0.5138
17607TIP3    H174236   3.120   2.810   5.795 -0.4877 -0.5026 -1.4911
17607TIP3    H274237   3.039   2.913   5.870  0.7901  0.1676 -0.9997
17608TIP3   OH274238   1.402   2.394   4.952  0.1873 -0.2534  0.4155
17608TIP3    H174239   1.384   2.488   4.958  1.0386  0.0046 -0.9298
17608TIP3    H274240   1.467   2.377   5.020 -1.3229 -0.2322  1.9009
17609TIP3   OH274241   2.554   2.620   5.720  0.2108  0.0031 -0.3383
17609TIP3    H174242   2.650   2.622   5.715  0.2359 -0.4234 -0.0278
17609TIP3    H274243   2.528   2.545   5.667  0.0784 -0.1888 -0.0046
17610TIP3   OH274244   0.974   2.387   6.381  0.2213 -0.3419  0.6644
17610TIP3    H174245   1.047   2.372   6.440 -0.5152  0.0612  1.6921
17610TIP3    H274246   0.918   2.449   6.427 -0.1232  0.3569 -0.6621
17611TIP3   OH274247   3.833   1.865   5.165  0.1437 -0.0554 -0.3413
17611TIP3    H174248   3.739   1.878   5.166  0.2299  0.5599 -0.3061
17611TIP3    H274249   3.851   1.824   5.080 -0.0712  0.4174 -0.6117
17612TIP3   OH274250   1.877   3.256   4.680 -0.2532  0.3419 -0.0998
17612TIP3    H174251   1.817   3.181   4.681 -1.6709  1.4497  0.0603
17612TIP3    H274252   1.963   3.218   4.667 -0.8501 -1.3928  0.8615
17613TIP3   OH274253   1.035   1.685   5.393 -0.2015  0.3143 -0.1451
17613TIP3    H174254   1.048   1.738   5.314 -0.4194 -0.0103 -0.4010
17613TIP3    H274255   0.963   1.728   5.439 -1.0473 -0.3281 -0.8496
17614TIP3   OH274256   5.843   5.279   4.200 -0.4289  0.1984 -0.1648
17614TIP3    H174257   5.830   5.332   4.278 -2.1267  0.9419 -0.9178
17614TIP3    H274258   5.823   5.189   4.228 -0.3524  0.3669  0.4266
17615TIP3   OH274259   2.141   2.712   6.233 -0.3646 -0.4186  0.5434
17615TIP3    H174260   2.187   2.755   6.160  2.1326  0.2849  2.4442
17615TIP3    H274261   2.173   2.622   6.232  0.1886 -0.2292  1.1814
17616TIP3   OH274262   7.160   1.782   2.187  0.0219  0.5459 -0.0901
17616TIP3    H174263   7.154   1.769   2.282 -0.2498  0.9894 -0.0451
17616TIP3    H274264   7.170   1.693   2.151  1.5892  0.4807  0.4554
17617TIP3   OH274265   0.057   1.954   2.267 -0.4198 -0.1672 -0.5352
17617TIP3    H174266   0.034   2.046   2.254  0.7045  0.1123 -0.6029
17617TIP3    H274267  -0.006   1.905   2.213 -1.1033  0.5439 -0.3939
17618TIP3   OH274268   1.875   2.729   3.188 -0.3522  0.0910 -0.2556
17618TIP3    H174269   1.936   2.771   3.249 -0.5453 -0.4952  0.3468
17618TIP3    H274270   1.877   2.637   3.213 -0.5651 -0.1255 -1.0314
17619TIP3   OH274271   6.728   0.871   4.466 -0.0367  0.1080  0.2076
17619TIP3    H174272   6.668   0.938   4.434 -1.0714 -0.7547  0.3297
17619TIP3    H274273   6.783   0.851   4.390 -0.2621  0.4927 -0.0643
17620TIP3   OH274274   7.079   4.229   4.817 -0.2931  0.1682  0.3668
17620TIP3    H174275   7.156   4.191   4.774  0.3598  1.5355  0.2930
17620TIP3    H274276   7.054   4.165   4.884  0.3015 -0.7463 -0.2831
17621TIP3   OH274277   2.680   4.584   5.660  0.6313 -0.1981 -0.3016
17621TIP3    H174278   2.607   4.611   5.715 -0.2077  0.7979 -1.8786
17621TIP3    H274279   2.674   4.488   5.657 -0.5205 -0.1270 -0.2946
17622TIP3   OH274280   0.819   3.907   6.160 -0.6931 -0.9265 -0.0918
17622TIP3    H174281   0.890   3.972   6.166 -3.2505  2.0069 -0.4904
17622TIP3    H274282   0.843   3.853   6.085  0.4955  0.8736 -1.0517
17623TIP3   OH274283   6.854   4.449   4.418  0.2641  0.6798  0.4510
17623TIP3    H174284   6.865   4.410   4.504 -0.1630 -1.5546 -0.4539
17623TIP3    H274285   6.766   4.488   4.420 -1.5521 -3.0854 -0.2681
17624TIP3   OH274286   2.353   2.242   5.330 -0.7100 -0.5918 -0.2054
17624TIP3    H174287   2.382   2.333   5.330  1.0040 -1.1013 -1.0940
17624TIP3    H274288   2.264   2.245   5.297 -0.1859  0.6353 -1.5622
17625TIP3   OH274289   5.674   3.391   4.676  0.6875  0.2147 -0.7930
17625TIP3    H174290   5.622   3.321   4.716  0.6625  0.2853 -0.7010
17625TIP3    H274291   5.763   3.356   4.672  0.4628 -0.2791 -1.8230
17626TIP3   OH274292   0.728   5.478   3.431 -0.1350  0.6629  0.1775
17626TIP3    H174293   0.720   5.386   3.404 -1.1931  0.6595  0.4569
17626TIP3    H274294   0.751   5.474   3.523 -0.5930  0.6720  0.2947
17627TIP3   OH274295   1.323   4.474   3.838 -0.1272  0.0942  0.2555
17627TIP3    H174296   1.279   4.478   3.753 -0.9033 -0.6257  0.6094
17627TIP3    H274297   1.279   4.402   3.884 -0.3990  1.1053  1.6358
17628TIP3   OH274298   0.172   5.164   5.104  0.0601 -0.2679 -0.0858
17628TIP3    H174299   0.086   5.138   5.135  0.2881  0.5528  1.2742
17628TIP3    H274300   0.212   5.083   5.073 -1.5212 -0.5141 -1.5726
17629TIP3   OH274301   2.120   4.989   5.134 -0.0460 -0.0450  0.8677
17629TIP3    H174302   2.158   4.951   5.055 -1.0191  0.0130  0.3648
17629TIP3    H274303   2.184   5.054   5.162 -0.6390  1.4166 -1.0711
17630TIP3   OH274304   5.602   3.286   4.944  0.0059  1.0000  0.1349
17630TIP3    H174305   5.636   3.209   4.991  1.6882  1.3516 -0.4741
17630TIP3    H274306   5.552   3.334   5.010 -1.2456 -0.7107  0.4823
17631TIP3   OH274307   0.477   4.055   5.580  0.0567  0.0474  0.0959
17631TIP3    H174308   0.426   4.070   5.500 -0.0886  0.6911  0.2975
17631TIP3    H274309   0.427   3.989   5.628  0.5873 -0.9565 -0.7270
17632TIP3   OH274310   1.998   2.480   3.879 -0.1652 -0.0308  0.2549
17632TIP3    H174311   1.930   2.528   3.833 -0.1158  0.3539  0.5766
17632TIP3    H274312   2.000   2.519   3.967  0.1773 -0.3203  0.3785
17633TIP3   OH274313   0.625   2.563   5.491 -0.0675 -0.0227  0.2744
17633TIP3    H174314   0.574   2.556   5.410  0.7755 -0.2162 -0.2482
17633TIP3    H274315   0.694   2.496   5.482  0.2012  0.1477  1.0244
17634TIP3   OH274316   1.134   3.862   4.958 -0.4061 -0.0193 -0.1136
17634TIP3    H174317   1.175   3.787   5.000 -0.1420  0.6729  0.8684
17634TIP3    H274318   1.043   3.835   4.945 -0.1733 -0.7288 -0.3157
17635TIP3   OH274319   2.754   2.962   3.958  0.0502  0.4765  0.1220
17635TIP3    H174320   2.783   2.970   3.867 -2.5435  0.9866 -0.7111
17635TIP3    H274321   2.687   3.029   3.968 -0.7003 -0.5125  1.9899
17636TIP3   OH274322   0.360   2.225   4.771 -0.3789  0.3220 -0.1051
17636TIP3    H174323   0.327   2.286   4.837 -1.1194  0.2846 -0.4370
17636TIP3    H274324   0.375   2.278   4.694 -0.8489  0.1225 -0.3374
17637TIP3   OH274325   6.944   1.866   2.025  0.2378  0.9618  0.0072
17637TIP3    H174326   6.875   1.805   2.047 -0.1515  0.7541 -1.6907
17637TIP3    H274327   7.014   1.849   2.088  0.8676 -2.4880 -1.5286
17638TIP3   OH274328   0.630   1.715   4.853  0.0948 -0.4535 -0.0659
17638TIP3    H174329   0.637   1.766   4.934 -2.8861  1.4262 -0.9380
17638TIP3    H274330   0.635   1.624   4.882  0.3726  0.2151  2.0936
17639TIP3   OH274331   1.014   3.668   5.337 -0.8114  0.0687  0.5884
17639TIP3    H174332   0.995   3.579   5.365 -2.0954  0.6908  1.7742
17639TIP3    H274333   1.004   3.721   5.416  1.4661  1.0671  0.2422
17640TIP3   OH274334   1.592   7.092   4.307 -0.1689  0.2408 -0.2148
17640TIP3    H174335   1.570   7.128   4.393 -0.0725 -1.6685  0.6447
17640TIP3    H274336   1.687   7.084   4.307 -0.1178  0.7896 -0.7396
17641TIP3   OH274337   7.189   3.235   1.991  0.3210 -0.1123  0.2631
17641TIP3    H174338   7.177   3.145   2.019  2.8411 -0.7220 -0.4901
17641TIP3    H274339   7.158   3.288   2.064  1.3094 -1.6199  1.8081
17642TIP3   OH274340   1.062   1.163   1.811 -0.3578 -0.5629  0.0777
17642TIP3    H174341   1.115   1.113   1.749  0.6799 -0.9222  1.2407
17642TIP3    H274342   1.125   1.214   1.862 -1.0511 -1.5816  2.0091
17643TIP3   OH274343   0.114   3.859   5.391  0.5327 -0.1087 -0.1489
17643TIP3    H174344   0.077   3.931   5.341 -0.5558  0.7806  1.8927
17643TIP3    H274345   0.047   3.791   5.390  1.3311 -0.9104 -1.5894
17644TIP3   OH274346   6.982   5.621   4.560  0.4403  0.3934 -0.0494
17644TIP3    H174347   7.077   5.635   4.569  0.6072 -0.4641 -0.3723
17644TIP3    H274348   6.946   5.707   4.542  0.9219  1.0648  2.0131
17645TIP3   OH274349   0.780   3.681   5.628  0.2936 -0.5886 -0.0522
17645TIP3    H174350   0.803   3.761   5.582  1.6737 -1.1777 -0.4191
17645TIP3    H274351   0.818   3.692   5.715  0.3995 -0.8004 -0.0714
17646TIP3   OH274352   1.282   0.588   5.936  0.6499  0.2101 -0.0788
17646TIP3    H174353   1.319   0.519   5.881 -1.5058 -1.3920  0.4119
17646TIP3    H274354   1.289   0.554   6.026  0.3160  1.0079  0.2579
17647TIP3   OH274355   0.470   3.298   5.398  0.1354 -0.5016  0.5668
17647TIP3    H174356   0.383   3.300   5.359 -0.9209  1.0333  2.9096
17647TIP3    H274357   0.524   3.251   5.334 -2.0726 -0.2257 -1.5618
17648TIP3   OH274358   0.675   1.483   5.033  0.0543 -0.0066 -0.1229
17648TIP3    H174359   0.736   1.527   5.092 -1.5437  1.9413  0.1334
17648TIP3    H274360   0.615   1.436   5.091 -1.2720  1.5845 -0.1540
17649TIP3   OH274361   7.280   4.269   6.110  0.0923 -0.3232  0.5724
17649TIP3    H174362   7.239   4.307   6.188  1.6848  0.5313  1.0137
17649TIP3    H274363   7.374   4.284   6.123  0.3363  0.3614 -1.7758
17650TIP3   OH274364   2.746   2.013   4.576  0.1415 -0.2394 -0.0451
17650TIP3    H174365   2.668   2.036   4.628 -0.3078 -1.4193 -0.1953
17650TIP3    H274366   2.716   1.945   4.516  1.2009 -0.4238 -0.3719
17651TIP3   OH274367   5.253   2.844   3.917  0.1826 -0.3242 -0.0827
17651TIP3    H174368   5.272   2.826   4.009  0.6363  0.2612 -0.0556
17651TIP3    H274369   5.167   2.885   3.918  0.7049  0.7906  0.2087
17652TIP3   OH274370   4.471   4.663   3.472 -0.0407  0.3072  0.0101
17652TIP3    H174371   4.376   4.660   3.472 -0.0092 -0.7537  0.4222
17652TIP3    H274372   4.493   4.737   3.528 -0.6240  0.8052 -0.4142
17653TIP3   OH274373   2.695   4.446   4.805  0.1352  0.3964  0.6905
17653TIP3    H174374   2.777   4.488   4.779 -0.2459 -0.1902 -1.6341
17653TIP3    H274375   2.720   4.356   4.828 -0.0132 -0.2031 -1.3881
17654TIP3   OH274376   2.824   4.278   4.984 -0.1143  0.0340  0.3464
17654TIP3    H174377   2.730   4.268   5.001 -0.0814 -0.0774  0.4543
17654TIP3    H274378   2.865   4.268   5.070 -0.1501  1.8686  0.5934
17655TIP3   OH274379   7.269   4.779   5.996 -0.1932  0.0152  0.0390
17655TIP3    H174380   7.267   4.694   5.952 -0.7505 -0.0339  0.1569
17655TIP3    H274381   7.362   4.800   6.004 -0.1092  1.4376 -3.8118
17656TIP3   OH274382   3.703   3.588   3.411  0.5358 -0.3011  0.7102
17656TIP3    H174383   3.647   3.518   3.446  0.2053  0.0629  0.9063
17656TIP3    H274384   3.756   3.615   3.486 -0.5926  0.8944  1.0853
17657TIP3   OH274385   3.970   2.052   3.136 -0.2350 -0.0473 -0.3287
17657TIP3    H174386   4.047   2.002   3.109 -1.0762 -0.0653 -2.8609
17657TIP3    H274387   3.945   2.101   3.057 -3.5049 -0.9825  0.0622
17658TIP3   OH274388   3.613   2.223   4.322  0.0752  0.4350  0.3747
17658TIP3    H174389   3.580   2.139   4.355  0.8595 -0.2816 -0.6388
17658TIP3    H274390   3.684   2.246   4.381  0.4442 -0.0635  0.1297
17659TIP3   OH274391   4.787   1.931   6.023 -0.3149  0.2760  0.1821
17659TIP3    H174392   4.817   1.853   5.978  0.4249  0.1928  0.8065
17659TIP3    H274393   4.697   1.911   6.050 -0.3017 -0.1603 -0.1043
17660TIP3   OH274394   1.664   3.425   5.379  0.6619 -0.2478 -0.4319
17660TIP3    H174395   1.592   3.392   5.433  0.3795  0.1606 -0.5632
17660TIP3    H274396   1.740   3.425   5.439  0.3327  0.2742 -0.0090
17661TIP3   OH274397   3.154   1.111   5.501  0.2456  0.5012 -0.7640
17661TIP3    H174398   3.213   1.037   5.516 -1.2630 -0.2355  1.7399
17661TIP3    H274399   3.066   1.073   5.506 -0.5420  2.3727  0.0985
17662TIP3   OH274400   4.709   2.216   5.952 -0.3196  0.6438 -0.3884
17662TIP3    H174401   4.725   2.133   5.997  2.0785  1.1330 -0.2608
17662TIP3    H274402   4.619   2.240   5.976 -0.4261 -1.0334  0.9655
17663TIP3   OH274403   1.178   3.196   5.650 -0.0773 -0.6020 -0.0610
17663TIP3    H174404   1.091   3.177   5.685 -0.1179 -3.5545 -1.6082
17663TIP3    H274405   1.238   3.154   5.712  0.2195  0.2487  0.2469
17664TIP3   OH274406   4.830   2.376   5.757 -0.2379 -0.8756  0.2785
17664TIP3    H174407   4.811   2.318   5.830  1.2294 -1.0326  0.5463
17664TIP3    H274408   4.746   2.421   5.739  0.0719  1.3758  3.9815
17665TIP3   OH274409   2.898   2.274   4.030 -0.5020  0.0296  0.0071
17665TIP3    H174410   2.889   2.223   4.110 -0.1236  0.2048  0.1576
17665TIP3    H274411   2.866   2.361   4.053 -0.2808  0.1124  0.0014
17666TIP3   OH274412   1.556   2.299   5.487  0.2301 -0.1111 -0.1279
17666TIP3    H174413   1.473   2.346   5.498  0.0645 -0.1725 -1.0442
17666TIP3    H274414   1.566   2.292   5.392  0.5688 -1.3712 -0.0037
17667TIP3   OH274415   2.171   3.923   5.025  0.0305 -0.5759 -0.0089
17667TIP3    H174416   2.084   3.962   5.025 -0.0866 -0.8044  1.4844
17667TIP3    H274417   2.157   3.835   5.060  0.7114 -0.9764 -0.7331
17668TIP3   OH274418   2.867   3.511   4.724 -0.7494 -0.2430  0.1366
17668TIP3    H174419   2.931   3.484   4.791 -1.2068  0.5260  0.9100
17668TIP3    H274420   2.918   3.567   4.665 -0.1824 -1.4839 -0.5516
17669TIP3   OH274421   4.256   3.294   4.535 -0.0885  0.5402  0.4633
17669TIP3    H174422   4.341   3.251   4.536 -0.2308  0.0371 -2.6923
17669TIP3    H274423   4.274   3.384   4.562  1.1745  0.0361  1.3320
17670TIP3   OH274424   7.188   3.674   5.265  0.2890 -0.3514 -0.8119
17670TIP3    H174425   7.137   3.754   5.255  0.3278 -0.4035 -1.4707
17670TIP3    H274426   7.125   3.610   5.300  0.2407 -0.0521 -0.3549
17671TIP3   OH274427   2.628   3.176   4.663 -0.4570  0.4242  0.0228
17671TIP3    H174428   2.532   3.179   4.669 -0.4691 -0.6903  0.5024
17671TIP3    H274429   2.658   3.246   4.721 -0.9575 -0.1425  0.9714
17672TIP3   OH274430   3.052   3.163   5.640  0.2774  0.6147 -0.0965
17672TIP3    H174431   3.119   3.120   5.693 -1.5666 -1.0178  0.9770
17672TIP3    H274432   3.028   3.241   5.690 -1.0499 -0.6184  1.2442
17673TIP3   OH274433   4.579   4.856   3.651 -0.4023  0.2162 -0.0109
17673TIP3    H174434   4.578   4.926   3.716  0.9251  0.8590 -0.6627
17673TIP3    H274435   4.583   4.775   3.703 -1.0930  0.6582  0.7253
17674TIP3   OH274436   3.642   0.747   5.078  0.2800  0.5699 -0.4543
17674TIP3    H174437   3.606   0.731   4.991  0.5132  0.2182 -0.4838
17674TIP3    H274438   3.646   0.661   5.119  1.5166  0.5418 -0.6186
17675TIP3   OH274439   3.600   3.324   4.305 -0.1644  0.6047  0.4167
17675TIP3    H174440   3.670   3.263   4.282 -2.0674 -1.3200 -0.5095
17675TIP3    H274441   3.615   3.345   4.397 -0.5789 -2.8866  1.3647
17676TIP3   OH274442   3.540   4.919   3.676  0.7105 -0.0894  0.1514
17676TIP3    H174443   3.560   4.968   3.755  0.0031 -0.7205  0.7266
17676TIP3    H274444   3.559   4.980   3.604  1.4975  0.4260  0.7966
17677TIP3   OH274445   2.471   2.843   4.279 -0.1225 -0.2011  0.1100
17677TIP3    H174446   2.387   2.887   4.269  0.1670  0.2028 -0.6145
17677TIP3    H274447   2.529   2.911   4.315  0.0748 -0.2651 -0.0831
17678TIP3   OH274448   2.415   0.068   5.413  0.2687  0.0119 -0.5392
17678TIP3    H174449   2.452   0.145   5.371 -0.8911  0.6838 -0.3524
17678TIP3    H274450   2.338   0.100   5.460 -0.1339 -1.2242 -0.3163
17679TIP3   OH274451   3.288   2.640   5.673 -0.5893  0.6325 -0.3017
17679TIP3    H174452   3.249   2.680   5.595 -0.4879 -0.8028 -1.1177
17679TIP3    H274453   3.268   2.547   5.664  0.1875  0.3327  0.9493
17680TIP3   OH274454   0.656   2.249   4.517  0.1489  0.7515  0.1972
17680TIP3    H174455   0.751   2.256   4.508  0.1543 -1.8566 -2.8225
17680TIP3    H274456   0.621   2.303   4.446 -0.6082  1.3403  1.0190
17681TIP3   OH274457   4.905   5.743   4.201  0.0484  0.3709  0.0247
17681TIP3    H174458   4.811   5.725   4.200  0.4014 -1.8248  1.9831
17681TIP3    H274459   4.932   5.726   4.291  2.5833 -0.5749 -0.8638
17682TIP3   OH274460   5.331   4.471   2.907  0.6020  0.4919  0.4013
17682TIP3    H174461   5.252   4.524   2.922  0.6356  0.5924  0.2317
17682TIP3    H274462   5.313   4.389   2.952  0.4319  0.5431  0.4312
17683TIP3   OH274463   2.569   1.793   6.234 -0.6452 -0.9347 -0.7757
17683TIP3    H174464   2.591   1.733   6.163 -0.5352 -0.3376 -1.2522
17683TIP3    H274465   2.649   1.799   6.287 -0.9445 -1.9333 -0.1823
17684TIP3   OH274466   1.731   3.017   3.807  0.4685 -0.0403  0.6250
17684TIP3    H174467   1.733   3.088   3.742  1.5868 -0.7808 -0.1700
17684TIP3    H274468   1.693   3.057   3.885  0.6620  1.3139  0.0390
17685TIP3   OH274469   3.142   4.113   5.109  0.6896 -0.3532 -0.1885
17685TIP3    H174470   3.223   4.103   5.059  1.4325 -0.6693  1.0612
17685TIP3    H274471   3.132   4.030   5.156  0.3582  0.2023  0.7261
17686TIP3   OH274472   2.877   4.176   5.468  0.1352 -0.0879 -0.1140
17686TIP3    H174473   2.973   4.184   5.465  0.2327 -1.1507 -0.2324
17686TIP3    H274474   2.862   4.088   5.502 -0.8067  0.1098 -0.0077
17687TIP3   OH274475   1.766   1.762   4.497 -0.0528  0.2446  0.1159
17687TIP3    H174476   1.715   1.701   4.551  0.9962 -0.9303 -0.1833
17687TIP3    H274477   1.736   1.744   4.407  0.7997 -0.3832 -0.0499
17688TIP3   OH274478   2.023   1.912   5.056 -0.4936 -0.4714 -0.1754
17688TIP3    H174479   2.001   1.981   5.118  0.2491 -0.3324 -0.0622
17688TIP3    H274480   2.067   1.957   4.984  0.2073 -0.8543  0.0104
17689TIP3   OH274481   2.317   2.092   5.598  0.8734  0.9136  0.4881
17689TIP3    H174482   2.366   2.141   5.532  0.2804  1.8717  0.7384
17689TIP3    H274483   2.274   2.160   5.650 -0.8924  0.1041  0.1398
17690TIP3   OH274484   3.461   2.367   5.052  0.6268 -0.0583  0.5965
17690TIP3    H174485   3.366   2.357   5.059  0.6758  0.2277  1.7428
17690TIP3    H274486   3.492   2.367   5.143  1.6644  0.3978  0.2491
17691TIP3   OH274487   3.888   4.334   4.882  0.0599 -0.2705 -0.8629
17691TIP3    H174488   3.882   4.354   4.975  1.1296  3.4864 -1.5181
17691TIP3    H274489   3.887   4.419   4.838  0.5046 -1.8902 -4.2360
17692TIP3   OH274490   3.354   3.862   5.140  0.1818 -0.1642  0.1272
17692TIP3    H174491   3.330   3.857   5.048  0.9688  1.6766 -0.2087
17692TIP3    H274492   3.283   3.817   5.186 -1.1203  0.4467 -1.2435
17693TIP3   OH274493   5.916   1.807   4.125 -0.5448 -0.3456 -0.0946
17693TIP3    H174494   5.886   1.801   4.034 -0.1552 -1.7368 -0.1514
17693TIP3    H274495   6.012   1.808   4.119 -0.4609  4.1809  0.0802
17694TIP3   OH274496   2.929   4.029   4.823  0.2407 -0.1694 -0.1887
17694TIP3    H174497   2.939   4.067   4.736  1.0269 -1.2216 -0.5579
17694TIP3    H274498   2.892   4.101   4.876 -2.1027 -0.1000 -1.8163
17695TIP3   OH274499   4.837   3.274   4.393 -0.2667  0.3556 -0.7177
17695TIP3    H174500   4.786   3.282   4.473  1.7480 -1.7592  0.8644
17695TIP3    H274501   4.842   3.363   4.358 -1.4593  1.2645  1.3293
17696TIP3   OH274502   2.754   4.952   5.372 -0.3137 -0.0129 -0.0317
17696TIP3    H174503   2.772   5.003   5.451  1.3720  0.2727 -0.5805
17696TIP3    H274504   2.788   4.864   5.392  1.9040  0.5495 -1.1025
17697TIP3   OH274505   2.291   4.031   5.983  0.0212  0.1124 -0.1169
17697TIP3    H174506   2.365   4.089   6.001 -0.0520 -0.0545  0.7513
17697TIP3    H274507   2.315   3.948   6.023 -0.6236  0.0492  0.1546
17698TIP3   OH274508   3.306   2.520   5.330  0.4541 -0.3635  0.0050
17698TIP3    H174509   3.233   2.533   5.269 -0.3371  0.9723  1.2172
17698TIP3    H274510   3.269   2.468   5.402  1.0948 -0.9535 -0.0824
17699TIP3   OH274511   2.139   2.935   4.379 -0.0344 -0.0064  0.2578
17699TIP3    H174512   2.138   3.026   4.349  0.5467 -0.5925 -1.6302
17699TIP3    H274513   2.152   2.884   4.299  3.2928 -1.5784  1.6874
17700TIP3   OH274514   3.036   5.420   4.849 -0.3193  0.1377  0.1205
17700TIP3    H174515   2.971   5.486   4.828 -1.0088 -0.1381  1.3405
17700TIP3    H274516   3.081   5.402   4.766  0.4904  2.7759 -0.0335
17701TIP3   OH274517   2.446   1.638   5.034  0.3524  0.7382 -0.8284
17701TIP3    H174518   2.481   1.696   5.101  1.7615 -1.1883  0.1764
17701TIP3    H274519   2.517   1.628   4.971 -0.4230  1.3183 -1.8049
17702TIP3   OH274520   4.722   4.590   3.104  0.0345 -0.0659 -0.7593
17702TIP3    H174521   4.752   4.531   3.035  0.4485 -0.9156  0.1382
17702TIP3    H274522   4.668   4.535   3.161 -1.8962  1.0505 -1.4294
17703TIP3   OH274523   3.843   3.888   4.494  0.3859  0.3519 -0.8348
17703TIP3    H174524   3.828   3.977   4.525  0.3267  0.1748 -0.3561
17703TIP3    H274525   3.931   3.866   4.524  0.1751  0.0360 -0.4527
17704TIP3   OH274526   4.059   2.588   5.466  0.3319  0.1641 -0.0040
17704TIP3    H174527   4.093   2.532   5.537  0.0566  1.1222  0.8972
17704TIP3    H274528   3.964   2.575   5.469  0.3555 -0.1183 -0.4777
17705TIP3   OH274529   0.244   4.703   4.844 -0.5741  0.0898  0.0123
17705TIP3    H174530   0.234   4.630   4.905 -1.2204 -0.7862 -1.1227
17705TIP3    H274531   0.338   4.708   4.827 -0.3714  0.4608  1.2312
17706TIP3   OH274532   2.343   2.033   2.847 -0.7457 -0.0019 -0.2037
17706TIP3    H174533   2.316   1.942   2.835  0.1466 -0.2982 -0.0086
17706TIP3    H274534   2.425   2.041   2.798 -0.4598  0.5046  0.3378
17707TIP3   OH274535   3.028   1.895   6.151 -0.3658 -0.2766 -0.0116
17707TIP3    H174536   2.948   1.871   6.198 -1.2759 -0.3184 -1.5658
17707TIP3    H274537   3.036   1.989   6.164 -3.0186  0.5030 -3.3339
17708TIP3   OH274538   1.407   2.998   5.349  0.8532  0.5539  0.6926
17708TIP3    H174539   1.436   2.981   5.260  1.1242 -0.9219  1.0500
17708TIP3    H274540   1.473   3.059   5.384  0.6617  1.2554 -0.1461
17709TIP3   OH274541   3.778   0.529   4.006 -0.0398 -0.2166  1.4473
17709TIP3    H174542   3.689   0.546   3.974  0.4594 -0.2808 -0.0140
17709TIP3    H274543   3.813   0.616   4.026  0.6292  0.1157 -0.9385
17710TIP3   OH274544   2.052   2.260   4.580 -0.2464 -0.0279 -0.4392
17710TIP3    H174545   2.082   2.237   4.492  1.2607  1.0347 -0.2332
17710TIP3    H274546   2.038   2.355   4.577 -1.0341 -0.1137  0.2217
17711TIP3   OH274547   1.469   2.792   5.531  0.0032  0.0012  0.4908
17711TIP3    H174548   1.558   2.803   5.563  0.3145  0.2735 -0.4475
17711TIP3    H274549   1.465   2.845   5.451 -0.5332 -1.2291 -0.3207
17712TIP3   OH274550   1.942   4.027   4.890 -0.2359 -0.4807  0.3950
17712TIP3    H174551   1.888   4.053   4.965 -0.1629 -0.8795  0.5899
17712TIP3    H274552   1.972   4.109   4.852 -0.6955 -0.2658  0.4956
17713TIP3   OH274553   1.680   2.028   4.059  0.1609 -0.7138  0.4731
17713TIP3    H174554   1.749   2.093   4.044  0.7045 -0.8595  2.1680
17713TIP3    H274555   1.707   1.952   4.008  0.7468 -0.4180  0.3331
17714TIP3   OH274556   3.358   4.033   5.387  0.2879 -0.1768  0.7188
17714TIP3    H174557   3.277   4.024   5.338  0.5126  0.0387  0.3040
17714TIP3    H274558   3.334   4.013   5.477 -0.3233  0.3525  0.6764
17715TIP3   OH274559   4.482   4.373   3.584  0.2608  0.4498 -0.6147
17715TIP3    H174560   4.474   4.468   3.591 -1.4720  0.1929  1.0249
17715TIP3    H274561   4.414   4.347   3.522  0.9018  0.2849 -1.2643
17716TIP3   OH274562   3.118   3.325   5.389  0.3468  0.0986  0.5224
17716TIP3    H174563   3.092   3.416   5.381  0.3705  0.1958  1.5392
17716TIP3    H274564   3.087   3.298   5.475 -1.0738 -1.3094 -0.3947
17717TIP3   OH274565   4.035   2.460   5.202  0.1685 -0.5003  0.2748
17717TIP3    H174566   4.059   2.434   5.113 -2.5968 -0.8579 -0.4114
17717TIP3    H274567   4.074   2.546   5.214 -0.4927  0.1107 -1.7848
17718TIP3   OH274568   0.717   3.582   2.166 -0.4574  0.6468 -0.3657
17718TIP3    H174569   0.673   3.570   2.250 -0.8028  2.3319 -0.2992
17718TIP3    H274570   0.764   3.665   2.175  1.0541 -0.0812 -1.1773
17719TIP3   OH274571   0.574   3.577   5.125  0.0963  0.5577 -0.3169
17719TIP3    H174572   0.581   3.652   5.185  3.0896  1.5706 -1.8351
17719TIP3    H274573   0.504   3.601   5.064 -0.9439  0.8103  0.9486
17720TIP3   OH274574   3.068   1.779   5.908  0.1923  0.1837  0.1437
17720TIP3    H174575   2.976   1.756   5.899  0.3254 -0.2324 -0.1862
17720TIP3    H274576   3.074   1.825   5.992  0.1042 -1.9154  1.3190
17721TIP3   OH274577   2.043   1.132   3.320 -0.2643  0.0178 -0.0818
17721TIP3    H174578   1.971   1.183   3.357 -0.4721 -1.4647  1.6038
17721TIP3    H274579   2.010   1.101   3.236 -0.1302  2.6383 -1.1581
17722TIP3   OH274580   2.048   1.388   2.952  0.6136 -0.2445 -0.3351
17722TIP3    H174581   2.066   1.461   2.892  2.7839 -0.0521  0.5163
17722TIP3    H274582   2.038   1.428   3.038  1.1663 -0.8683  0.0318
17723TIP3   OH274583   3.010   2.918   3.430 -0.1861  0.6516  0.1532
17723TIP3    H174584   3.010   2.929   3.335  0.6504 -0.5351  0.0051
17723TIP3    H274585   3.041   2.829   3.444  0.0390  0.9348  1.5496
17724TIP3   OH274586   3.264   7.291   4.941 -0.0112 -0.2580  0.0893
17724TIP3    H174587   3.300   7.347   4.873  0.5272  0.5073  0.9844
17724TIP3    H274588   3.171   7.315   4.945 -0.6318 -2.0817 -2.0666
17725TIP3   OH274589   1.432   0.858   0.945 -0.1585 -0.6053  0.5678
17725TIP3    H174590   1.369   0.930   0.956 -0.4030 -0.7240 -0.0132
17725TIP3    H274591   1.379   0.779   0.954 -0.0065 -0.7084  0.5508
17726TIP3   OH274592   4.475   4.350   4.414 -0.1984  0.2326  0.3831
17726TIP3    H174593   4.570   4.350   4.427 -0.1834  0.8861  0.3020
17726TIP3    H274594   4.465   4.355   4.319 -0.3141  1.0880  0.4384
17727TIP3   OH274595   0.570   4.244   5.252  0.3558 -0.5240  0.2121
17727TIP3    H174596   0.476   4.260   5.267  0.1971 -1.3548  0.1200
17727TIP3    H274597   0.612   4.326   5.279 -0.7024  1.2995 -3.3043
17728TIP3   OH274598   3.305   3.483   5.672  0.2559 -0.0198  0.0739
17728TIP3    H174599   3.362   3.485   5.749  0.5228 -2.2654 -0.0570
17728TIP3    H274600   3.220   3.454   5.706 -0.1324  0.7846 -0.1817
17729TIP3   OH274601   1.802   1.592   3.090  0.8924  0.2282 -0.3437
17729TIP3    H174602   1.880   1.631   3.130 -0.8223  3.0840  0.3825
17729TIP3    H274603   1.769   1.532   3.156  1.1202  0.8595  0.3650
17730TIP3   OH274604   3.097   2.286   4.791  0.3795  0.2173  0.7597
17730TIP3    H174605   3.006   2.312   4.800  0.3268  0.6116 -0.8144
17730TIP3    H274606   3.094   2.196   4.759  0.5353  0.3557  0.3477
17731TIP3   OH274607   3.390   2.110   5.721 -0.1032 -0.3641 -0.1017
17731TIP3    H174608   3.425   2.160   5.795  1.2123 -1.7850  0.2650
17731TIP3    H274609   3.319   2.164   5.688  0.1334  0.9175  1.3855
17732TIP3   OH274610   5.083   3.121   5.959  0.1386 -0.1791 -0.2617
17732TIP3    H174611   5.044   3.036   5.939  1.5355 -1.0134  0.4684
17732TIP3    H274612   5.122   3.110   6.046  0.3027  1.2163 -0.1407
17733TIP3   OH274613   5.331   0.039   4.683 -0.3125 -0.3647 -0.2535
17733TIP3    H174614   5.309   0.129   4.705  1.0056 -0.2424  0.6505
17733TIP3    H274615   5.298   0.027   4.594 -2.8376  0.1629  0.5995
17734TIP3   OH274616   3.126   2.390   6.302  0.0360  0.0688  0.0203
17734TIP3    H174617   3.222   2.392   6.303  0.0293  0.4416 -0.3180
17734TIP3    H274618   3.100   2.472   6.344 -0.1338 -0.4980  1.0511
17735TIP3   OH274619   2.903   2.417   5.564  0.0151 -0.2212 -0.4733
17735TIP3    H174620   2.868   2.402   5.652 -0.8126 -2.0826 -1.0955
17735TIP3    H274621   2.997   2.402   5.573 -0.4073 -3.1427 -0.4426
17736TIP3   OH274622   1.846   0.983   5.267  0.6990 -0.0348 -0.3240
17736TIP3    H174623   1.830   1.070   5.303  1.0284 -0.0688 -0.0918
17736TIP3    H274624   1.768   0.963   5.215  1.1782  0.9312 -1.4263
17737TIP3   OH274625   2.134   4.704   4.982 -0.0098  0.4198 -0.1062
17737TIP3    H174626   2.219   4.747   4.990 -0.4971  1.7719 -1.7484
17737TIP3    H274627   2.151   4.628   4.927  0.5195 -0.5041  1.3147
17738TIP3   OH274628   0.222   2.027   4.595 -0.7161  0.3421  0.2415
17738TIP3    H174629   0.255   2.098   4.649 -0.3592 -0.2937  0.8670
17738TIP3    H274630   0.299   1.995   4.547 -0.8110  0.1624  0.2083
17739TIP3   OH274631   3.128   3.397   6.003  0.0727  0.9828 -0.0293
17739TIP3    H174632   3.214   3.374   6.037  0.0304  1.6645  0.5573
17739TIP3    H274633   3.134   3.381   5.908  1.0357  1.6002 -0.0772
17740TIP3   OH274634   5.497   6.908   2.654 -0.5811  0.2123  0.3647
17740TIP3    H174635   5.462   6.946   2.735 -4.3935  1.3863 -1.7235
17740TIP3    H274636   5.519   6.983   2.599 -1.3556 -0.5691 -1.0350
17741TIP3   OH274637   3.432   2.081   5.048  0.9321  0.2046 -0.0516
17741TIP3    H174638   3.422   2.175   5.034 -0.5168  0.0138 -0.3973
17741TIP3    H274639   3.388   2.040   4.973 -1.4593 -0.7694  1.8298
17742TIP3   OH274640   3.650   3.354   6.152 -0.3877  0.1735 -0.3253
17742TIP3    H174641   3.718   3.359   6.220  0.1805 -1.5009 -0.7330
17742TIP3    H274642   3.650   3.441   6.112  0.2120  0.7684  0.9241
17743TIP3   OH274643   4.952   5.083   5.469  0.2090 -0.1776 -0.9395
17743TIP3    H174644   4.899   5.004   5.480 -0.0584 -0.1382 -1.8966
17743TIP3    H274645   4.977   5.108   5.558  1.9106 -2.4332 -0.7574
17744TIP3   OH274646   1.886   3.002   4.121 -0.2189 -0.5936 -0.5041
17744TIP3    H174647   1.824   2.939   4.157  0.2919 -0.5799  0.4238
17744TIP3    H274648   1.832   3.070   4.081 -0.7898 -0.8928 -0.2419
17745TIP3   OH274649   3.371   5.569   4.599  0.1467  0.3084 -0.8097
17745TIP3    H174650   3.452   5.620   4.609 -0.0157 -0.0142  2.4255
17745TIP3    H274651   3.400   5.489   4.555  1.7336 -0.1032  0.9233
17746TIP3   OH274652   6.638   2.442   2.991 -0.8837  0.5937 -0.0338
17746TIP3    H174653   6.616   2.455   2.899 -0.5455 -2.1503 -0.5511
17746TIP3    H274654   6.644   2.530   3.028 -2.3490  1.6743 -2.3125
17747TIP3   OH274655   2.746   2.816   3.440 -0.0549 -0.2496  0.0443
17747TIP3    H174656   2.721   2.848   3.353  0.7835  0.4333  0.0539
17747TIP3    H274657   2.796   2.887   3.479 -3.4502  0.9138  2.5304
17748TIP3   OH274658   3.130   3.455   4.826 -0.0362  0.0483  0.0478
17748TIP3    H174659   3.090   3.377   4.864  1.3348 -0.4769  0.4834
17748TIP3    H274660   3.176   3.496   4.900  1.0431  0.0679 -0.6135
17749TIP3   OH274661   1.738   2.596   4.378  0.1862  0.5380  0.1598
17749TIP3    H174662   1.664   2.556   4.423  0.1799  0.7083  0.3055
17749TIP3    H274663   1.815   2.549   4.412 -0.0443 -1.4383 -1.9637
17750TIP3   OH274664   2.392   3.508   5.002 -0.0007 -0.1505  0.5335
17750TIP3    H174665   2.420   3.509   5.093 -0.2776 -1.2007  0.6247
17750TIP3    H274666   2.399   3.600   4.974 -1.0415  0.3683  1.9411
17751TIP3   OH274667   1.720   2.809   5.669 -0.6691 -1.2676 -0.2442
17751TIP3    H174668   1.721   2.890   5.720  1.4971 -0.8712 -0.8960
17751TIP3    H274669   1.788   2.755   5.708 -0.6661 -1.9365 -1.1641
17752TIP3   OH274670   2.908   2.655   4.802  0.0652  0.4060  0.1346
17752TIP3    H174671   2.900   2.661   4.897  1.0786  0.8154  0.2005
17752TIP3    H274672   2.831   2.701   4.768 -0.0753  0.6239  0.7505
17753TIP3   OH274673   2.228   4.483   5.135 -0.1898 -0.1829 -0.0874
17753TIP3    H174674   2.175   4.562   5.128 -0.0618 -0.2619 -2.3892
17753TIP3    H274675   2.178   4.416   5.088  0.4288 -1.0892  0.5219
17754TIP3   OH274676   3.581   3.678   4.959 -0.2428  0.0238  0.1105
17754TIP3    H174677   3.598   3.652   5.049 -2.2840  0.6911  0.7236
17754TIP3    H274678   3.642   3.627   4.907 -0.4772 -1.9296  1.7017
17755TIP3   OH274679   5.153   3.730   5.448 -0.0047 -0.0178  0.0645
17755TIP3    H174680   5.242   3.763   5.441  0.2964 -1.1662 -1.8146
17755TIP3    H274681   5.150   3.654   5.391 -2.6607  1.0000 -1.2783
17756TIP3   OH274682   1.948   4.675   5.176  0.3563 -0.0159 -0.4382
17756TIP3    H174683   1.949   4.715   5.263  0.4539 -0.6043 -0.1688
17756TIP3    H274684   2.014   4.723   5.127  0.5916  0.0423 -0.0643
17757TIP3   OH274685   4.998   0.486   3.982  0.2900  0.0012  0.3866
17757TIP3    H174686   4.923   0.546   3.976  0.1413 -0.1380  0.8635
17757TIP3    H274687   5.016   0.480   4.076  2.9205  2.5496  0.1306
17758TIP3   OH274688   0.318   0.444   4.029 -0.0654 -0.7927  0.5319
17758TIP3    H174689   0.255   0.393   4.080 -1.4953  0.3051 -0.0745
17758TIP3    H274690   0.280   0.447   3.941  2.3846 -2.7068 -0.6442
17759TIP3   OH274691   1.358   3.392   5.241 -0.2493 -0.3252  0.0623
17759TIP3    H174692   1.302   3.320   5.270 -0.5511  0.8161  2.4585
17759TIP3    H274693   1.447   3.360   5.258 -0.3489 -0.4662  0.3321
17760TIP3   OH274694   2.678   0.774   6.000 -0.0649 -0.2382  0.0102
17760TIP3    H174695   2.592   0.745   6.031  0.2111 -1.8721 -0.7039
17760TIP3    H274696   2.736   0.762   6.075 -0.1381 -0.6782 -0.0001
17761TIP3   OH274697   2.781   2.285   5.816  0.7027 -0.2495 -0.1184
17761TIP3    H174698   2.814   2.202   5.850  1.1648 -0.3622 -0.8351
17761TIP3    H274699   2.785   2.345   5.891 -2.0404 -1.5183  1.1219
17762TIP3   OH274700   3.412   3.570   4.654 -0.0795 -0.3189 -0.0052
17762TIP3    H174701   3.351   3.507   4.616 -0.2594 -0.7324  0.9535
17762TIP3    H274702   3.424   3.540   4.744 -1.8528  2.2368  1.1278
17763TIP3   OH274703   3.687   1.596   4.190 -0.5431 -0.3146 -0.1231
17763TIP3    H174704   3.616   1.539   4.160  0.5768 -0.8564 -1.8383
17763TIP3    H274705   3.693   1.664   4.123 -1.2478  1.2983  1.4365
17764TIP3   OH274706   1.396   1.213   5.059  0.0366  0.3800  0.5296
17764TIP3    H174707   1.479   1.221   5.011  0.7829 -0.5540  1.6198
17764TIP3    H274708   1.346   1.148   5.010  1.1275 -1.1811  1.4314
17765TIP3   OH274709   4.556   0.566   5.341  0.2463 -0.2014  0.5014
17765TIP3    H174710   4.630   0.616   5.309  0.0263  0.0119  0.3239
17765TIP3    H274711   4.481   0.599   5.291  0.2682 -1.4351 -0.4021
17766TIP3   OH274712   2.117   2.194   4.098 -0.4075 -0.0737 -0.0233
17766TIP3    H174713   2.169   2.222   4.022 -1.2267 -1.3547 -1.0785
17766TIP3    H274714   2.037   2.159   4.060 -0.1193 -2.2934  1.3332
17767TIP3   OH274715   7.076   3.224   4.786 -0.2942 -0.0120 -0.5171
17767TIP3    H174716   7.019   3.231   4.863 -0.0738  1.4590 -0.4756
17767TIP3    H274717   7.125   3.307   4.785  0.1718 -0.2960 -1.8726
17768TIP3   OH274718   4.411   3.117   5.536  0.4334  0.3538 -0.2582
17768TIP3    H174719   4.472   3.119   5.609  1.0314 -0.6480 -0.7202
17768TIP3    H274720   4.328   3.145   5.573  1.7557  4.5541 -0.2312
17769TIP3   OH274721   2.490   2.149   5.912 -0.1784  0.1811 -0.8064
17769TIP3    H174722   2.546   2.106   5.977 -1.1508  2.7974  1.9111
17769TIP3    H274723   2.547   2.214   5.871 -0.6732  1.6291  0.7121
17770TIP3   OH274724   6.501   3.816   4.637  0.4890  0.2406 -0.0941
17770TIP3    H174725   6.563   3.890   4.636 -0.0074  0.6618 -0.4647
17770TIP3    H274726   6.415   3.858   4.643  0.1714 -0.2854 -0.9274
17771TIP3   OH274727   4.294   1.639   3.517 -0.2942 -0.3191  0.6488
17771TIP3    H174728   4.268   1.556   3.477  1.3327 -0.3121 -0.4713
17771TIP3    H274729   4.264   1.706   3.455 -0.7282 -0.1187  1.0719
17772TIP3   OH274730   5.371   4.550   3.777  0.1398  0.1928  0.0529
17772TIP3    H174731   5.406   4.544   3.688  0.7462  0.4626  0.2732
17772TIP3    H274732   5.427   4.613   3.821 -0.3492  0.2940  0.5423
17773TIP3   OH274733   3.008   4.867   4.524 -0.1300 -0.1227 -0.0109
17773TIP3    H174734   3.051   4.857   4.609 -0.6701 -0.1982  0.2565
17773TIP3    H274735   3.077   4.899   4.466  0.8124 -2.1843 -0.0830
17774TIP3   OH274736   1.126   1.166   3.743  0.0690  0.5168 -0.3814
17774TIP3    H174737   1.056   1.228   3.727  0.4074  0.7074 -1.1534
17774TIP3    H274738   1.151   1.136   3.655  0.0368 -0.5564 -0.0301
17775TIP3   OH274739   1.894   4.367   5.723  0.1253  0.2512 -0.3459
17775TIP3    H174740   1.842   4.387   5.801 -1.2018  0.4158 -1.2647
17775TIP3    H274741   1.889   4.271   5.715  0.4909  0.2086 -0.0781
17776TIP3   OH274742   2.648   3.962   4.976  0.3149 -0.3652  0.6519
17776TIP3    H174743   2.681   3.991   5.061  0.4481 -0.8406  0.7618
17776TIP3    H274744   2.720   3.914   4.936  0.6715  0.9075 -0.2594
17777TIP3   OH274745   3.153   3.756   5.872  0.6829 -0.1658  0.1044
17777TIP3    H174746   3.094   3.812   5.822 -0.7792 -1.2988  0.5239
17777TIP3    H274747   3.233   3.753   5.820  0.2233  1.0458 -0.6892
17778TIP3   OH274748   4.612   1.119   4.092  0.5307  0.2972  0.3659
17778TIP3    H174749   4.523   1.146   4.071  0.0445 -1.4438  0.1524
17778TIP3    H274750   4.645   1.188   4.150  0.1558  2.5823 -2.0690
17779TIP3   OH274751   3.196   3.737   3.373 -0.3638  0.3971 -0.2545
17779TIP3    H174752   3.141   3.748   3.451  0.2718  2.1767 -0.0501
17779TIP3    H274753   3.286   3.752   3.404  0.1249 -1.1610 -0.8596
17780TIP3   OH274754   3.015   2.982   5.444 -0.0088 -0.4489  0.1578
17780TIP3    H174755   3.035   3.019   5.530  1.4255 -0.5973 -0.0992
17780TIP3    H274756   2.921   2.964   5.447  0.0005 -0.3140  1.6348
17781TIP3   OH274757   2.631   2.782   4.630  0.4676 -0.2453  0.0847
17781TIP3    H174758   2.559   2.809   4.573  1.0569 -0.2874 -0.7059
17781TIP3    H274759   2.669   2.864   4.661 -1.4664 -0.2285  2.5423
17782TIP3   OH274760   3.748   5.531   5.510 -0.2162  0.1510 -0.4965
17782TIP3    H174761   3.844   5.531   5.514 -0.1209  0.3069 -2.1817
17782TIP3    H274762   3.721   5.454   5.559  0.8347 -0.5308 -0.9706
17783TIP3   OH274763   6.772   4.396   6.006 -0.3163 -0.2592 -0.5884
17783TIP3    H174764   6.797   4.465   6.067 -1.0100 -0.0587 -0.5331
17783TIP3    H274765   6.822   4.320   6.035 -0.5343 -0.1273  0.1365
17784TIP3   OH274766   2.159   0.871   3.303  0.4410  0.5243  0.0817
17784TIP3    H174767   2.253   0.870   3.321  0.3818  1.0980  0.4410
17784TIP3    H274768   2.133   0.962   3.318 -0.2222  0.3114  0.2400
17785TIP3   OH274769   1.635   3.215   5.032  0.5084 -0.0267 -0.2249
17785TIP3    H174770   1.691   3.196   4.956  1.6923  2.3532  0.0095
17785TIP3    H274771   1.677   3.170   5.105 -0.8891 -2.7224 -0.9903
17786TIP3   OH274772   2.393   2.917   4.559 -0.1670  0.1624 -0.2153
17786TIP3    H174773   2.347   2.917   4.643 -0.7118 -2.3507 -0.4525
17786TIP3    H274774   2.323   2.928   4.494  0.0661  0.5995 -0.3858
17787TIP3   OH274775   3.243   5.402   5.090 -0.1748  0.1400  0.2654
17787TIP3    H174776   3.156   5.442   5.076  0.5031  1.4865 -0.2152
17787TIP3    H274777   3.233   5.351   5.171 -0.8420  2.0238  1.4197
17788TIP3   OH274778   6.344   3.101   3.642  0.0040 -0.0966 -0.1508
17788TIP3    H174779   6.283   3.161   3.598  0.7288 -0.5675 -1.8337
17788TIP3    H274780   6.399   3.158   3.695  1.2310  0.8501 -2.3904
17789TIP3   OH274781   1.893   1.500   3.900  0.2495  0.6217 -0.2682
17789TIP3    H174782   1.850   1.439   3.839  1.3921 -1.3354  0.8356
17789TIP3    H274783   1.846   1.488   3.982  0.0857  1.7158 -0.1980
17790TIP3   OH274784   2.183   2.786   5.689 -0.2703  0.2837 -0.2284
17790TIP3    H174785   2.102   2.835   5.698 -0.3362  0.1199  0.0694
17790TIP3    H274786   2.235   2.811   5.766 -0.8304 -1.1061  0.6216
17791TIP3   OH274787   3.965   1.245   5.548  0.1095  0.6593  0.3195
17791TIP3    H174788   4.058   1.228   5.562 -0.1918 -1.0717  0.3316
17791TIP3    H274789   3.961   1.336   5.519  1.7115  1.0240  1.2187
17792TIP3   OH274790   1.946   2.645   3.562  0.5057  0.3188  0.0757
17792TIP3    H174791   1.943   2.671   3.654 -0.3431 -0.9749  0.4241
17792TIP3    H274792   2.038   2.659   3.537  0.5098  1.6833  0.8093
17793TIP3   OH274793   2.340   3.218   5.488 -0.1824 -0.5475  0.3806
17793TIP3    H174794   2.413   3.279   5.497 -1.8700  1.7261 -0.8495
17793TIP3    H274795   2.305   3.210   5.577 -0.1533  0.5162  0.4907
17794TIP3   OH274796   1.780   1.810   4.893  0.0839 -0.3174 -0.1369
17794TIP3    H174797   1.854   1.776   4.843 -0.8381  0.6590 -2.2719
17794TIP3    H274798   1.813   1.891   4.932  1.1956 -1.7427  1.9361
17795TIP3   OH274799   1.666   0.727   4.269 -0.2135  0.0784  0.5639
17795TIP3    H174800   1.721   0.805   4.265  2.0115 -1.5120 -0.9052
17795TIP3    H274801   1.629   0.719   4.181 -0.7782 -0.2979  0.8287
17796TIP3   OH274802   2.848   2.084   5.970 -0.2518 -0.1593 -0.5213
17796TIP3    H174803   2.918   2.119   6.025 -0.3113 -1.9134  0.7271
17796TIP3    H274804   2.782   2.055   6.032 -1.4674  0.1624 -1.6439
17797TIP3   OH274805   1.837   5.127   3.203  0.2118 -0.2362  0.0733
17797TIP3    H174806   1.834   5.196   3.270  0.3210 -0.6900  0.5495
17797TIP3    H274807   1.752   5.133   3.159  0.1777  0.1315  0.1904
17798TIP3   OH274808   2.726   2.236   5.101 -0.4779  0.5698  0.3919
17798TIP3    H174809   2.805   2.284   5.079 -1.1612  1.8628  0.7125
17798TIP3    H274810   2.715   2.249   5.195 -1.5233  1.0961  0.2009
17799TIP3   OH274811   3.479   2.255   5.930 -0.1120 -1.2683 -0.1320
17799TIP3    H174812   3.541   2.324   5.909 -1.0807 -0.6505 -1.0003
17799TIP3    H274813   3.523   2.203   5.997  1.0051 -0.3659 -0.1496
17800TIP3   OH274814   2.977   6.430   5.874  0.5240  0.1084  0.2615
17800TIP3    H174815   2.911   6.361   5.880 -0.8072  1.3384 -0.2315
17800TIP3    H274816   3.032   6.403   5.800 -0.2661 -0.1692 -0.2255
17801TIP3   OH274817   1.955   0.667   4.569 -0.1626  0.5798  0.8335
17801TIP3    H174818   1.933   0.759   4.581 -2.5962  0.3430 -1.2983
17801TIP3    H274819   2.017   0.667   4.495  0.9641  0.6087  1.7690
17802TIP3   OH274820   1.224   3.187   5.388 -0.5089 -0.1025  0.2988
17802TIP3    H174821   1.201   3.194   5.480  1.0635  0.0931  0.6922
17802TIP3    H274822   1.286   3.114   5.383  1.6676  1.7066 -0.1194
17803TIP3   OH274823   2.346   1.423   2.177  0.6270  0.3397 -0.1460
17803TIP3    H174824   2.396   1.356   2.130 -0.5192 -0.4238 -0.2785
17803TIP3    H274825   2.298   1.374   2.244  0.7193  1.1833  0.5453
17804TIP3   OH274826   1.336   4.300   5.527 -0.2597  0.3966 -0.4856
17804TIP3    H174827   1.336   4.292   5.431 -0.5552 -1.9908 -0.3245
17804TIP3    H274828   1.403   4.238   5.556  1.1746  2.4850  0.7925
17805TIP3   OH274829   3.136   2.727   5.474 -0.1287 -0.1233 -0.2559
17805TIP3    H174830   3.115   2.820   5.460  1.0752  0.4948  1.7812
17805TIP3    H274831   3.062   2.680   5.438 -1.4327  1.7066 -0.0373
17806TIP3   OH274832   4.149   3.839   5.546 -0.9746 -0.3156 -0.2368
17806TIP3    H174833   4.127   3.801   5.631 -0.9141 -0.2398 -0.1875
17806TIP3    H274834   4.088   3.798   5.485 -1.3093 -0.0403 -0.0893
17807TIP3   OH274835   3.136   2.351   4.111 -0.0506 -0.4218 -0.5302
17807TIP3    H174836   3.112   2.376   4.200  1.3016  0.6909 -0.4488
17807TIP3    H274837   3.055   2.318   4.072 -0.9428  0.2690  0.7074
17808TIP3   OH274838   5.211   3.159   2.850  0.4554  0.1235 -0.1739
17808TIP3    H174839   5.266   3.197   2.919 -0.2997  2.8054 -0.9758
17808TIP3    H274840   5.189   3.234   2.794 -1.8131 -1.3911 -1.3563
17809TIP3   OH274841   4.127   6.087   4.035 -0.1891 -0.1015  0.5699
17809TIP3    H174842   4.108   6.180   4.028  2.1951  0.1903 -2.5046
17809TIP3    H274843   4.162   6.076   4.124 -1.5575  1.6624  1.3617
17810TIP3   OH274844   2.633   2.894   5.402  0.0409 -0.0962 -0.3845
17810TIP3    H174845   2.676   2.916   5.484 -2.2268  1.0185  0.5595
17810TIP3    H274846   2.568   2.963   5.390 -1.1901 -1.4800 -1.9561
17811TIP3   OH274847   4.097   2.219   5.620  0.3667 -0.2344 -0.3694
17811TIP3    H174848   4.149   2.175   5.687 -1.3169  0.2989  1.3517
17811TIP3    H274849   4.114   2.312   5.633 -2.9747  0.1442  2.0085
17812TIP3   OH274850   5.103   0.572   5.656 -0.4938 -0.0289  0.2048
17812TIP3    H174851   5.078   0.583   5.565 -0.0512 -0.3451  0.0456
17812TIP3    H274852   5.060   0.644   5.702  0.7405  1.2054 -0.5271
17813TIP3   OH274853   5.681   4.531   4.839 -0.0020  0.1485  0.1140
17813TIP3    H174854   5.657   4.451   4.886 -1.3326  1.0573  1.0109
17813TIP3    H274855   5.677   4.506   4.746 -2.2179 -0.3609  0.3089
17814TIP3   OH274856   0.914   3.791   3.834  0.4252  0.4493 -0.0045
17814TIP3    H174857   0.859   3.822   3.762  1.1897  0.8252 -0.4363
17814TIP3    H274858   0.933   3.869   3.885  0.5899  0.3260  0.1226
17815TIP3   OH274859   3.120   4.308   4.485  0.5719 -0.3893  0.3335
17815TIP3    H174860   3.089   4.320   4.575  1.8795 -0.0102  0.7368
17815TIP3    H274861   3.052   4.349   4.431  0.6556  0.9755  1.2378
17816TIP3   OH274862   3.935   3.077   5.809  0.5775 -0.0355 -0.3586
17816TIP3    H174863   3.865   3.095   5.872  0.7019  1.5508 -0.6507
17816TIP3    H274864   3.912   2.992   5.771 -2.3439  1.3792 -1.9587
17817TIP3   OH274865   2.848   4.707   5.473  0.5614 -0.1203  0.0045
17817TIP3    H174866   2.848   4.620   5.434 -0.9410 -0.2265  0.2071
17817TIP3    H274867   2.809   4.695   5.560 -0.1201  0.8274 -0.1576
17818TIP3   OH274868   4.514   3.155   4.528 -0.8654 -0.1664  0.6252
17818TIP3    H174869   4.498   3.091   4.598  2.5963  0.4645  2.0914
17818TIP3    H274870   4.563   3.107   4.462 -0.5641  0.2858  0.5184
17819TIP3   OH274871   5.030   4.765   4.222  0.5844 -0.0897 -0.1134
17819TIP3    H174872   4.964   4.713   4.267 -0.3896  0.1327 -1.2600
17819TIP3    H274873   4.990   4.852   4.214  1.7419  0.5374  0.7925
17820TIP3   OH274874   2.097   2.257   5.226  0.3754 -0.2615  0.1134
17820TIP3    H174875   2.094   2.231   5.134  1.2423 -0.7774  0.2206
17820TIP3    H274876   2.021   2.215   5.265 -0.8165  1.1591 -0.6657
17821TIP3   OH274877   1.975   2.404   5.903 -0.0652  0.2596 -0.5199
17821TIP3    H174878   1.960   2.315   5.870  0.9650  0.2272 -0.9318
17821TIP3    H274879   1.897   2.424   5.955 -1.0662 -0.2367 -1.8038
17822TIP3   OH274880   3.824   2.260   4.543 -0.0681  0.0448  0.4186
17822TIP3    H174881   3.762   2.324   4.575  1.3372  1.2902  0.7166
17822TIP3    H274882   3.902   2.272   4.598  1.5857  0.7198 -2.0030
17823TIP3   OH274883   0.824   2.942   4.567 -0.0952  0.0732  1.1438
17823TIP3    H174884   0.780   3.014   4.611  1.2724  2.7919 -1.6749
17823TIP3    H274885   0.915   2.947   4.598 -0.0694 -0.6530  1.1895
17824TIP3   OH274886   3.458   3.341   5.515  0.9237 -0.3946  0.6332
17824TIP3    H174887   3.393   3.373   5.578  0.1315 -1.5952  0.4346
17824TIP3    H274888   3.448   3.245   5.516 -1.2571 -0.3017 -3.6456
17825TIP3   OH274889   1.864   3.758   5.032  0.3135  0.2763 -0.0175
17825TIP3    H174890   1.843   3.830   5.092 -1.3210 -0.3727  0.2154
17825TIP3    H274891   1.823   3.681   5.073  1.7734 -0.7309 -0.4226
17826TIP3   OH274892   1.513   2.515   3.534 -0.3114 -0.3791  0.2216
17826TIP3    H174893   1.450   2.574   3.575  0.2400  0.6951 -0.4552
17826TIP3    H274894   1.502   2.432   3.580  0.6917  0.9447  2.9435
17827TIP3   OH274895   6.303   2.362   5.181 -0.6708 -0.8581 -0.2943
17827TIP3    H174896   6.249   2.308   5.124 -0.3033 -1.1735 -0.3485
17827TIP3    H274897   6.388   2.318   5.181  0.2499  0.8058 -1.9724
17828TIP3   OH274898   3.425   4.668   5.584 -0.1938 -0.5491 -0.1158
17828TIP3    H174899   3.345   4.713   5.558  0.7983 -0.0520 -2.4035
17828TIP3    H274900   3.415   4.653   5.678 -2.8766 -0.3337 -0.3496
17829TIP3   OH274901   0.828   2.429   6.145 -0.2906  0.3035 -0.4301
17829TIP3    H174902   0.866   2.392   6.225 -0.0841  0.6237 -0.3807
17829TIP3    H274903   0.899   2.426   6.081 -0.3247  0.4547 -0.4745
17830TIP3   OH274904   2.211   3.294   6.069  0.5491 -0.6323 -0.3512
17830TIP3    H174905   2.172   3.277   6.155  0.5792  2.2949  0.2788
17830TIP3    H274906   2.287   3.349   6.086  0.8182 -0.3664 -2.2136
17831TIP3   OH274907   2.271   4.173   4.608  0.0873  0.0076 -0.2056
17831TIP3    H174908   2.318   4.091   4.620  0.1222 -0.0673 -0.8444
17831TIP3    H274909   2.278   4.217   4.692 -1.5729 -1.4822  0.7329
17832TIP3   OH274910   4.756   4.405   3.854  0.4995 -0.6004  0.8397
17832TIP3    H174911   4.688   4.358   3.904  0.3843  0.4520  1.6943
17832TIP3    H274912   4.809   4.449   3.921  0.2459  0.9821  0.0278
17833TIP3   OH274913   5.051   2.187   4.395  0.3144 -1.3276  0.9238
17833TIP3    H174914   5.063   2.281   4.377 -1.0749 -1.1098  1.0270
17833TIP3    H274915   5.017   2.152   4.312 -1.0981 -1.3370  1.4938
17834TIP3   OH274916   3.488   0.678   4.877 -0.4572 -0.0750 -0.0691
17834TIP3    H174917   3.400   0.689   4.841 -0.8722 -1.7807  0.3590
17834TIP3    H274918   3.508   0.585   4.864  1.4681  0.3615 -0.5509
17835TIP3   OH274919   1.251   6.526   3.916 -0.2518 -0.0898 -0.2544
17835TIP3    H174920   1.340   6.492   3.926 -0.6969 -1.2852 -0.1823
17835TIP3    H274921   1.195   6.452   3.940 -1.2572  0.8378  0.2725
17836TIP3   OH274922   3.819   5.229   2.253 -0.4167 -0.4497 -0.4281
17836TIP3    H174923   3.847   5.144   2.288 -0.1008 -0.3544 -0.4524
17836TIP3    H274924   3.900   5.278   2.240 -0.7520  1.1166  2.8093
17837TIP3   OH274925   3.487   3.083   5.536 -0.1547  0.2698  0.1486
17837TIP3    H174926   3.570   3.058   5.495  0.3532  1.1909  0.5800
17837TIP3    H274927   3.487   3.037   5.620 -0.3171 -0.1445 -0.0828
17838TIP3   OH274928   3.262   1.715   4.262 -0.2647 -0.2065  0.0393
17838TIP3    H174929   3.340   1.704   4.315 -0.3513  0.4959  0.3148
17838TIP3    H274930   3.242   1.627   4.230  0.2691 -0.4897  0.4843
17839TIP3   OH274931   3.638   3.054   3.333  0.6425  0.2995  0.1980
17839TIP3    H174932   3.593   2.994   3.273 -0.7996  1.4256  0.1330
17839TIP3    H274933   3.636   3.138   3.288 -1.9593  1.5576  2.5283
17840TIP3   OH274934   2.684   6.264   5.152 -0.1490 -0.1523 -0.1014
17840TIP3    H174935   2.713   6.219   5.231  1.3460  0.0188 -0.5255
17840TIP3    H274936   2.658   6.193   5.093 -0.8481 -0.2984  0.3761
17841TIP3   OH274937   2.880   2.939   3.722  0.7937  0.6319  0.4070
17841TIP3    H174938   2.930   2.991   3.660  0.0974 -0.4679 -1.1045
17841TIP3    H274939   2.910   2.849   3.707 -2.7488 -0.2873 -1.6936
17842TIP3   OH274940   0.999   1.837   4.628  0.1509  0.0424 -0.0038
17842TIP3    H174941   1.064   1.902   4.600  2.4364 -1.1884  2.1945
17842TIP3    H274942   0.932   1.888   4.674  1.7684  0.9353  1.4307
17843TIP3   OH274943   0.320   1.163   4.345 -0.5115 -0.5922 -0.0438
17843TIP3    H174944   0.289   1.156   4.435  0.5791 -2.8590  0.2047
17843TIP3    H274945   0.396   1.221   4.350  1.0158 -2.5921  0.9572
17844TIP3   OH274946   5.047   1.731   4.952 -0.1149 -0.3572  0.1126
17844TIP3    H174947   4.974   1.791   4.970  0.2787  0.3724 -0.6630
17844TIP3    H274948   5.005   1.649   4.925 -0.7171 -1.4607  4.0918
17845TIP3   OH274949   4.665   2.495   5.448 -0.2076  0.4763  0.0709
17845TIP3    H174950   4.570   2.503   5.447 -0.2188  0.2217 -0.5238
17845TIP3    H274951   4.694   2.569   5.502 -0.7492  0.4668  0.3749
17846TIP3   OH274952   2.907   1.714   5.193  0.0868  0.9485 -0.0467
17846TIP3    H174953   2.912   1.805   5.166  2.5850  1.0621  0.6920
17846TIP3    H274954   2.889   1.718   5.287 -1.8820  0.6295 -0.3881
17847TIP3   OH274955   3.349   3.445   4.286  0.1551 -0.4753  0.4613
17847TIP3    H174956   3.419   3.380   4.286 -0.2278 -0.8908  1.3439
17847TIP3    H274957   3.271   3.397   4.313  0.0284  0.5051  1.9057
17848TIP3   OH274958   3.611   1.720   3.904 -0.1606 -0.3155  0.0671
17848TIP3    H174959   3.533   1.674   3.935  0.1490 -0.2496  0.9591
17848TIP3    H274960   3.578   1.807   3.879 -0.4851 -0.5091 -0.1829
17849TIP3   OH274961   5.792   1.214   5.687  0.0788 -0.1535 -0.8104
17849TIP3    H174962   5.782   1.172   5.772  0.3107 -1.4941 -1.4251
17849TIP3    H274963   5.712   1.191   5.640  0.7504 -0.9503 -1.5838
17850TIP3   OH274964   7.026   1.976   4.413  0.0491  0.1287  0.2273
17850TIP3    H174965   7.005   2.066   4.385  2.2764  0.4411 -0.5614
17850TIP3    H274966   7.117   1.981   4.441  0.4353 -2.0593 -0.5787
17851TIP3   OH274967   4.183   4.177   3.687 -0.5470  0.6361 -0.3825
17851TIP3    H174968   4.259   4.133   3.727 -0.8071  0.7252  0.2187
17851TIP3    H274969   4.111   4.114   3.697 -0.9145  1.1844  0.4549
17852TIP3   OH274970   2.235   3.539   4.715  0.4261  0.1651 -0.2029
17852TIP3    H174971   2.225   3.600   4.789 -1.7282 -0.5171  0.1001
17852TIP3    H274972   2.145   3.515   4.691  1.1527 -0.7736 -2.1007
17853TIP3   OH274973   1.393   4.077   4.660 -0.2082 -0.1003 -0.0301
17853TIP3    H174974   1.441   4.156   4.635  0.2951 -0.6338 -0.7653
17853TIP3    H274975   1.338   4.105   4.733 -0.4090  1.0590 -0.6035
17854TIP3   OH274976   4.561   5.384   2.911  0.0345 -0.4212  0.9475
17854TIP3    H174977   4.620   5.319   2.948  1.6178  0.9698  0.9365
17854TIP3    H274978   4.585   5.466   2.955  0.2991  0.7934 -1.3458
17855TIP3   OH274979   2.346   2.871   4.963  0.0404  0.0318 -0.3836
17855TIP3    H174980   2.397   2.952   4.961  1.0753 -0.5722  0.8004
17855TIP3    H274981   2.326   2.858   5.056 -1.2288 -0.3921 -0.7087
17856TIP3   OH274982   1.564   2.612   5.231  0.0531 -0.4937  0.0840
17856TIP3    H174983   1.600   2.524   5.246 -1.6818 -1.1423  0.5139
17856TIP3    H274984   1.599   2.664   5.303  2.2817 -0.4351 -0.9702
17857TIP3   OH274985   2.402   2.466   2.500  0.3206 -0.5465 -0.4572
17857TIP3    H174986   2.431   2.391   2.551  1.7833 -1.7967 -2.9976
17857TIP3    H274987   2.371   2.428   2.417  0.9422  1.6272 -1.7337
17858TIP3   OH274988   3.420   4.298   5.162 -0.2300  0.3903 -0.4401
17858TIP3    H174989   3.405   4.238   5.236  0.0457 -0.3450 -0.9747
17858TIP3    H274990   3.406   4.244   5.084 -0.9958  1.2902 -0.9254
17859TIP3   OH274991   6.084   3.621   4.581  0.3692 -0.0023 -0.7189
17859TIP3    H174992   6.002   3.652   4.620  1.3277  1.6150  0.0192
17859TIP3    H274993   6.104   3.684   4.513  0.1712 -1.2933 -1.9989
17860TIP3   OH274994   6.273   2.902   3.812 -0.0539  0.3084 -0.3703
17860TIP3    H174995   6.291   2.985   3.767 -0.1877  0.0055 -0.9874
17860TIP3    H274996   6.272   2.837   3.742 -0.2663 -0.1678  0.0760
17861TIP3   OH274997   3.393   2.790   5.358  0.9665 -0.2015 -0.0546
17861TIP3    H174998   3.355   2.703   5.347 -1.7002  0.9567 -0.3511
17861TIP3    H274999   3.322   2.843   5.395  2.2088  2.1113 -0.8960
17862TIP3   OH275000   6.498   3.975   3.770 -0.3190 -0.3507 -0.0919
17862TIP3    H175001   6.432   3.935   3.713 -0.1709 -3.8195  2.0578
17862TIP3    H275002   6.453   4.048   3.811 -1.7052 -0.4504 -1.3732
17863TIP3   OH275003   4.261   5.442   4.778 -0.2534  0.1648 -0.2864
17863TIP3    H175004   4.223   5.520   4.818 -0.5759  0.0430 -0.3504
17863TIP3    H275005   4.278   5.467   4.688 -0.5533  0.0957 -0.3631
17864TIP3   OH275006   3.553   4.730   4.510 -0.9433  0.3367 -0.0447
17864TIP3    H175007   3.461   4.707   4.496 -1.2943 -1.0079  3.6365
17864TIP3    H275008   3.598   4.645   4.512 -0.2446  0.7154  1.5846
17865TIP3   OH275009   3.032   1.527   4.235 -0.7565 -0.5519  0.1462
17865TIP3    H175010   2.959   1.530   4.297 -0.5738  0.7340  0.3279
17865TIP3    H275011   3.074   1.442   4.251 -1.3316 -0.6700  1.0702
17866TIP3   OH275012   3.875   5.928   4.038 -0.0265  0.0725 -0.0347
17866TIP3    H175013   3.914   6.015   4.050  0.0665  0.1151 -0.6302
17866TIP3    H275014   3.948   5.873   4.007 -0.3516  0.0651 -0.7912
17867TIP3   OH275015   5.060   3.223   4.555 -0.3359 -0.1423  0.7060
17867TIP3    H175016   5.045   3.300   4.611 -1.0661  2.1200 -2.4394
17867TIP3    H275017   4.972   3.190   4.536 -0.1701 -0.0884 -0.1616
17868TIP3   OH275018   4.024   3.382   5.548 -0.3975  0.3847  0.2719
17868TIP3    H175019   3.944   3.412   5.592 -0.4109  0.1008  0.4421
17868TIP3    H275020   4.054   3.308   5.601  0.7692  1.3872  1.0396
17869TIP3   OH275021   4.176   3.325   5.180  0.6086 -0.0269 -0.6837
17869TIP3    H175022   4.105   3.376   5.141  0.7099  0.4639 -0.2299
17869TIP3    H275023   4.186   3.361   5.268  2.3327  0.8476 -1.2090
17870TIP3   OH275024   4.753   3.313   5.559 -0.1609 -0.2084  0.0069
17870TIP3    H175025   4.781   3.368   5.633  1.6154  1.5163 -1.9014
17870TIP3    H275026   4.676   3.358   5.524  1.7052  1.5187 -1.9881
17871TIP3   OH275027   6.983   1.785   5.844 -0.2970  0.9619  0.2516
17871TIP3    H175028   7.036   1.736   5.780 -1.1429 -0.7897  0.8741
17871TIP3    H275029   7.041   1.856   5.873  0.6702  0.8059 -1.2390
17872TIP3   OH275030   3.948   2.808   4.727 -0.3038  0.2626  0.1064
17872TIP3    H175031   3.887   2.785   4.656 -1.4895 -0.3055  1.2851
17872TIP3    H275032   3.971   2.899   4.709  0.2392 -0.1903 -1.5937
17873TIP3   OH275033   2.407   4.359   4.778 -0.7136 -0.4533 -0.2705
17873TIP3    H175034   2.353   4.429   4.815 -1.2929 -0.1981 -1.5584
17873TIP3    H275035   2.495   4.394   4.778 -1.2064  0.9087 -2.2867
17874TIP3   OH275036   4.654   1.565   5.540 -0.6356 -0.6169 -0.2704
17874TIP3    H175037   4.605   1.519   5.608  0.4393 -0.5419  0.5629
17874TIP3    H275038   4.628   1.657   5.551 -1.4110 -0.7733 -0.7711
17875TIP3   OH275039   4.952   7.078   5.370  0.1772 -0.5483 -0.3199
17875TIP3    H175040   4.992   7.001   5.328  1.5925 -0.7164  1.2536
17875TIP3    H275041   5.013   7.100   5.441 -0.7046  1.4611 -0.1627
17876TIP3   OH275042   5.847   2.350   4.575 -0.3917 -0.5927  0.1140
17876TIP3    H175043   5.902   2.419   4.611 -2.8207  0.9234  1.0030
17876TIP3    H275044   5.858   2.276   4.636  0.4448 -0.2261  0.4137
17877TIP3   OH275045   6.536   4.161   4.914  0.3775 -0.6584  0.2360
17877TIP3    H175046   6.455   4.120   4.946  1.7451 -3.6588  0.0626
17877TIP3    H275047   6.573   4.203   4.992 -1.1991  0.5608  0.3635
17878TIP3   OH275048   5.534   1.841   5.575 -0.4590  0.0051 -0.1721
17878TIP3    H175049   5.548   1.935   5.587 -0.1385  0.1841 -1.8130
17878TIP3    H275050   5.557   1.803   5.659  0.2372  1.3134  0.2563
17879TIP3   OH275051   3.480   3.661   5.538  0.0623 -0.5145  0.0609
17879TIP3    H175052   3.426   3.727   5.582  0.2984  1.2335 -2.1729
17879TIP3    H275053   3.433   3.578   5.553 -1.0230  0.3576  1.6570
17880TIP3   OH275054   6.898   1.601   2.516  0.4032 -0.3469  0.0911
17880TIP3    H175055   6.927   1.664   2.583  1.6515 -0.6558 -0.1527
17880TIP3    H275056   6.869   1.525   2.566  2.6746 -1.1461  0.2747
17881TIP3   OH275057   2.908   4.260   3.765 -0.5212 -0.3204 -0.0554
17881TIP3    H175058   2.927   4.169   3.747  1.9654 -0.0814  1.2236
17881TIP3    H275059   2.975   4.309   3.718  0.0753  0.6989  1.8009
17882TIP3   OH275060   6.283   3.103   5.597  0.0287  0.7004 -0.2188
17882TIP3    H175061   6.332   3.077   5.674  0.6508  1.1981 -0.4407
17882TIP3    H275062   6.276   3.022   5.545  0.3818  0.5635 -0.0591
17883TIP3   OH275063   6.079   1.983   6.029 -0.5071  0.3905  0.2738
17883TIP3    H175064   6.163   1.944   6.054 -1.4674 -1.4392  0.7180
17883TIP3    H275065   6.017   1.948   6.092 -2.4248 -1.9408 -2.7407
17884TIP3   OH275066   5.340   0.518   4.419  0.2124  0.4737  0.6421
17884TIP3    H175067   5.332   0.468   4.338  0.3519 -0.6505  1.3080
17884TIP3    H275068   5.429   0.551   4.418  0.2165  0.4527  0.3380
17885TIP3   OH275069   4.675   4.720   4.108 -0.6908 -0.0094 -0.2670
17885TIP3    H175070   4.665   4.727   4.203  0.3544  0.8655 -0.2165
17885TIP3    H275071   4.740   4.651   4.096 -0.8788 -0.1722 -0.3536
17886TIP3   OH275072   4.388   2.508   5.495 -0.2018 -0.7561 -0.6695
17886TIP3    H175073   4.315   2.492   5.555  0.3146  1.0200  0.4969
17886TIP3    H275074   4.362   2.468   5.413 -1.8892 -1.3478  0.1410
17887TIP3   OH275075   5.795   3.336   5.596 -0.3722  0.8812 -0.0805
17887TIP3    H175076   5.868   3.390   5.627 -0.4530  0.0297  1.6894
17887TIP3    H275077   5.722   3.360   5.653 -0.7623 -0.1320 -0.1437
17888TIP3   OH275078   5.250   3.033   5.537 -0.3446 -0.1665 -0.4500
17888TIP3    H175079   5.261   2.946   5.575 -0.6037 -0.4583 -1.0321
17888TIP3    H275080   5.228   3.016   5.445  0.5402  0.5393 -0.7910
17889TIP3   OH275081   6.199   0.516   5.430  0.1889  0.1484 -0.1874
17889TIP3    H175082   6.217   0.502   5.523  0.2855 -0.5713 -0.3125
17889TIP3    H275083   6.104   0.512   5.423  0.2405 -1.0295 -0.3081
17890TIP3   OH275084   5.952   2.927   2.953  0.0403  0.4886 -0.2715
17890TIP3    H175085   5.961   2.880   3.036 -1.8855 -1.4564 -1.1100
17890TIP3    H275086   6.042   2.954   2.931  0.6646  0.4566  2.0834
17891TIP3   OH275087   5.706   3.036   5.301  0.0510 -0.3078  0.2402
17891TIP3    H175088   5.708   3.000   5.390 -0.3354  0.3040  0.4942
17891TIP3    H275089   5.705   3.131   5.313 -1.9661 -0.2218 -0.3624
17892TIP3   OH275090   5.517   0.377   3.282 -0.4822 -0.1841 -0.2709
17892TIP3    H175091   5.543   0.468   3.266 -1.2475  0.0517 -0.2303
17892TIP3    H275092   5.446   0.384   3.346  0.8689 -0.9524  1.3297
17893TIP3   OH275093   0.624   3.851   3.958  0.4910  0.2573 -0.2131
17893TIP3    H175094   0.670   3.777   3.919  0.7767  0.0282  0.5552
17893TIP3    H275095   0.634   3.839   4.052 -0.1459  0.8378 -0.0650
17894TIP3   OH275096   3.522   2.750   5.098  0.1017 -0.0391 -0.8011
17894TIP3    H175097   3.475   2.790   5.171  0.2292  0.5464 -1.0391
17894TIP3    H275098   3.461   2.757   5.024  0.7695  1.1811 -1.2320
17895TIP3   OH275099   4.080   5.426   5.504 -0.1864  0.1470 -0.4045
17895TIP3    H175100   4.057   5.403   5.414 -0.3355  0.9901 -0.5891
17895TIP3    H275101   4.168   5.389   5.516 -0.1915 -0.0279 -0.8757
17896TIP3   OH275102   6.264   3.936   4.596  0.5297  0.0400  0.1372
17896TIP3    H175103   6.231   3.947   4.685 -1.5195 -1.3326 -0.4079
17896TIP3    H275104   6.267   4.025   4.560  0.7459  0.5309  1.3576
17897TIP3   OH275105   5.276   2.816   4.714  1.0785  0.3029  0.2538
17897TIP3    H175106   5.296   2.890   4.658 -2.7103 -0.7147 -2.6653
17897TIP3    H275107   5.236   2.854   4.792 -1.0676  1.4017 -1.3320
17898TIP3   OH275108   0.580   1.549   5.355 -0.5290 -0.2890 -0.4339
17898TIP3    H175109   0.557   1.467   5.313  0.1113 -1.3630  1.2541
17898TIP3    H275110   0.514   1.612   5.324 -1.4166 -1.5902 -1.2200
17899TIP3   OH275111   3.069   3.585   5.455  0.5569  0.5765  0.5026
17899TIP3    H175112   3.136   3.632   5.506  0.8496  0.7569 -0.0427
17899TIP3    H275113   3.017   3.539   5.521  0.0271  1.9733  1.0758
17900TIP3   OH275114   4.616   4.154   3.696 -0.5811 -0.2931  0.1704
17900TIP3    H175115   4.673   4.133   3.621 -0.9299  0.2574 -0.2568
17900TIP3    H275116   4.587   4.244   3.679 -1.5440 -0.5537  0.4121
17901TIP3   OH275117   3.717   3.595   6.072 -0.3964 -0.2188  0.7636
17901TIP3    H175118   3.701   3.690   6.074 -0.4003 -0.2158  0.5361
17901TIP3    H275119   3.796   3.585   6.019 -1.0049 -0.4286 -0.1177
17902TIP3   OH275120   3.753   3.823   3.612 -0.1732 -0.2508  0.2930
17902TIP3    H175121   3.668   3.824   3.656 -0.2786 -0.6107  0.0974
17902TIP3    H275122   3.790   3.910   3.629 -0.4685 -0.1845  0.5939
17903TIP3   OH275123   5.486   0.991   3.083 -0.1635 -0.0042 -0.0187
17903TIP3    H175124   5.453   0.984   3.173  0.0651 -1.9913 -0.0677
17903TIP3    H275125   5.579   1.007   3.093 -0.1692 -0.0440  0.1048
17904TIP3   OH275126   6.635   4.155   4.646 -0.8039 -0.0304  0.1573
17904TIP3    H175127   6.649   4.208   4.724 -1.3210 -1.2288  1.0730
17904TIP3    H275128   6.540   4.147   4.638 -0.7661  0.3618 -0.7916
17905TIP3   OH275129   4.988   2.518   4.022  0.5065 -0.4394 -0.1147
17905TIP3    H175130   5.082   2.512   4.035  0.6530  0.2045 -0.8800
17905TIP3    H275131   4.962   2.596   4.071  0.2153 -1.1300  0.8706
17906TIP3   OH275132   4.261   4.940   4.912  0.0335 -0.0630  0.2973
17906TIP3    H175133   4.347   4.933   4.870  0.4616  1.7348  0.8410
17906TIP3    H275134   4.199   4.919   4.842  0.8145  1.0305 -0.7394
17907TIP3   OH275135   6.050   1.782   4.991  0.8414 -0.2302  0.8089
17907TIP3    H175136   5.958   1.793   4.966  1.0670  0.9891  0.4936
17907TIP3    H275137   6.048   1.719   5.063 -0.0616 -1.7019 -0.4607
17908TIP3   OH275138   3.796   3.821   5.649 -0.4124  0.1788  0.0443
17908TIP3    H175139   3.881   3.808   5.692  0.0159  0.1798 -0.8010
17908TIP3    H275140   3.812   3.889   5.584 -0.8113 -0.5342 -0.8141
17909TIP3   OH275141   2.983   5.713   4.552  0.0447 -0.1239  0.0132
17909TIP3    H175142   2.945   5.799   4.571  1.8751  0.4532  1.2559
17909TIP3    H275143   2.908   5.657   4.533 -1.4084  1.0263  2.1059
17910TIP3   OH275144   3.291   1.562   3.254  0.2404  0.3117  0.3319
17910TIP3    H175145   3.243   1.497   3.203  1.4690  1.7296 -2.7866
17910TIP3    H275146   3.319   1.515   3.333 -1.0224 -2.2051 -0.6603
17911TIP3   OH275147   6.884   3.277   4.381  0.3171 -0.8038  0.4179
17911TIP3    H175148   6.817   3.322   4.329  0.0439 -1.4640  0.1922
17911TIP3    H275149   6.936   3.347   4.419 -0.1933 -0.2942  0.1802
17912TIP3   OH275150   4.995   3.905   4.437  0.3952  0.3155 -0.8453
17912TIP3    H175151   5.047   3.938   4.510  2.1752 -0.9428 -1.5013
17912TIP3    H275152   4.967   3.818   4.466 -3.0492  1.7400  0.2974
17913TIP3   OH275153   6.557   1.476   4.936  0.3192 -0.0680  0.0358
17913TIP3    H175154   6.599   1.523   5.008  0.6737  0.5021 -0.5358
17913TIP3    H275155   6.583   1.384   4.949 -0.7053 -0.1771  1.3866
17914TIP3   OH275156   3.785   2.611   5.410 -0.7462  0.0048  0.2910
17914TIP3    H175157   3.734   2.650   5.480 -0.0503  0.7441  0.3886
17914TIP3    H275158   3.817   2.686   5.359  0.0615 -0.4670  0.1084
17915TIP3   OH275159   4.384   1.589   5.036  0.1104  0.2285  0.4923
17915TIP3    H175160   4.419   1.649   5.103  1.9760 -0.9330  0.6083
17915TIP3    H275161   4.394   1.637   4.954 -0.7907  1.0711  0.8591
17916TIP3   OH275162   6.393   2.786   5.850  0.6505  0.0466 -0.2272
17916TIP3    H175163   6.462   2.719   5.848  0.5992  0.0253 -1.2670
17916TIP3    H275164   6.327   2.756   5.788  0.0516  0.4456  0.2091
17917TIP3   OH275165   5.134   2.532   6.012  0.3695  0.3973 -0.3625
17917TIP3    H175166   5.222   2.495   6.017  0.3539  0.1246 -1.9632
17917TIP3    H275167   5.095   2.492   5.935 -0.5514  1.8077 -0.6539
17918TIP3   OH275168   5.989   2.552   4.017  0.3204  0.4302 -0.3173
17918TIP3    H175169   6.017   2.557   4.108 -1.3393  0.2178  0.2186
17918TIP3    H275170   6.043   2.481   3.980  2.8108  2.2053 -0.2132
17919TIP3   OH275171   5.757   4.135   2.846 -0.6227 -0.0730 -0.2630
17919TIP3    H175172   5.851   4.152   2.845 -0.7662  0.8404  0.2071
17919TIP3    H275173   5.722   4.190   2.776 -0.8906  0.1709  0.0586
17920TIP3   OH275174   3.937   1.756   5.402  0.5808  0.0470 -0.5108
17920TIP3    H175175   3.885   1.784   5.327 -0.4995  0.8189  0.4998
17920TIP3    H275176   3.922   1.824   5.468 -0.1449 -1.6341  1.1180
17921TIP3   OH275177   4.294   1.550   4.743 -0.1449  0.6058 -0.1606
17921TIP3    H175178   4.209   1.565   4.784 -0.8187  0.6113 -1.5587
17921TIP3    H275179   4.342   1.632   4.754  0.7801 -0.2908  3.1761
17922TIP3   OH275180   0.234   3.265   1.869 -0.5003 -0.0089  0.4037
17922TIP3    H175181   0.152   3.269   1.820  0.5352  0.3373 -1.3570
17922TIP3    H275182   0.215   3.310   1.951 -2.5762 -1.5454  0.7872
17923TIP3   OH275183   2.769   2.511   4.104  0.6242  0.2295  0.0585
17923TIP3    H175184   2.748   2.533   4.194 -0.3355 -1.2139  0.1987
17923TIP3    H275185   2.710   2.564   4.051 -2.7838 -3.0006  0.4280
17924TIP3   OH275186   4.825   4.339   5.452  0.0927  0.0856  0.5037
17924TIP3    H175187   4.766   4.280   5.406  1.2327  0.1712 -1.0902
17924TIP3    H275188   4.824   4.308   5.543 -1.2078 -0.8437  0.1833
17925TIP3   OH275189   2.757   2.545   3.459  0.0327  0.0578 -0.1649
17925TIP3    H175190   2.730   2.635   3.444  0.7074 -0.2328 -3.4512
17925TIP3    H275191   2.678   2.493   3.441 -0.2372 -0.0725  1.3006
17926TIP3   OH275192   4.532   1.788   1.797 -0.3543 -0.2774 -0.4388
17926TIP3    H175193   4.453   1.770   1.849  0.5645  0.0858  1.1335
17926TIP3    H275194   4.513   1.868   1.749  0.5398  2.2317  3.1895
17927TIP3   OH275195   3.216   2.193   5.324  0.4107  0.2393 -0.0169
17927TIP3    H175196   3.279   2.122   5.337 -2.6248 -2.3890  1.0651
17927TIP3    H275197   3.217   2.241   5.407 -0.5782 -1.1494  0.8175
17928TIP3   OH275198   6.684   0.213   4.106  0.5167 -0.0956  0.1657
17928TIP3    H175199   6.655   0.125   4.082 -1.0768  0.3714  0.3278
17928TIP3    H275200   6.728   0.201   4.190  1.2513 -0.8840 -0.3138
17929TIP3   OH275201   6.454   3.515   3.860 -0.4717  0.5062  0.0358
17929TIP3    H175202   6.387   3.512   3.792 -2.2267  0.5317  1.7038
17929TIP3    H275203   6.422   3.580   3.923  1.3833  0.9157  0.6073
17930TIP3   OH275204   5.125   1.955   5.475  0.1764  0.4668 -0.6980
17930TIP3    H175205   5.070   1.896   5.528  0.7309  0.4396 -0.1337
17930TIP3    H275206   5.171   1.896   5.415 -1.5231  0.6469 -2.2005
17931TIP3   OH275207   4.953   1.940   5.140 -0.0703 -0.2573 -0.0796
17931TIP3    H175208   4.949   2.025   5.183  2.4832 -0.3358  0.4207
17931TIP3    H275209   4.949   1.877   5.212  1.0501 -0.4743 -0.2054
17932TIP3   OH275210   5.646   1.602   2.612  0.0765 -0.1904 -0.1499
17932TIP3    H175211   5.699   1.610   2.691  2.3324  1.0065 -1.6992
17932TIP3    H275212   5.658   1.685   2.567 -3.4414  0.2252 -0.4273
17933TIP3   OH275213   5.010   3.447   4.684 -0.3456 -0.7249 -0.6850
17933TIP3    H175214   5.009   3.501   4.606 -0.3686 -0.4369 -0.4850
17933TIP3    H275215   4.938   3.480   4.738 -1.9047 -2.4788 -1.6030
17934TIP3   OH275216   4.357   2.765   4.438  0.2961  0.2810  0.3746
17934TIP3    H175217   4.344   2.690   4.496  0.4694  0.7866  1.0719
17934TIP3    H275218   4.347   2.729   4.350 -0.3081 -0.4250  0.7257
17935TIP3   OH275219   7.166   4.531   5.384  0.0458 -0.4040  0.3489
17935TIP3    H175220   7.076   4.501   5.378  0.3013 -1.2610  0.6702
17935TIP3    H275221   7.172   4.572   5.471 -0.4082  0.9573 -0.2516
17936TIP3   OH275222   4.372   2.431   4.989  0.7054  0.6333  0.0148
17936TIP3    H175223   4.375   2.523   5.013  0.0470  0.6707 -0.0258
17936TIP3    H275224   4.356   2.385   5.071 -1.9457  0.7915 -0.3792
17937TIP3   OH275225   6.785   1.422   4.069 -0.0110  0.0600 -0.5622
17937TIP3    H175226   6.750   1.490   4.012  0.5401  0.9880  0.1929
17937TIP3    H275227   6.873   1.452   4.092  0.3479 -1.0370 -0.4439
17938TIP3   OH275228   3.344   1.961   4.819  0.0638  0.0540  0.7070
17938TIP3    H175229   3.266   1.909   4.842 -0.8327  1.2218  0.3687
17938TIP3    H275230   3.392   1.906   4.758  0.2902 -1.3197  2.0797
17939TIP3   OH275231   6.656   3.375   3.501 -0.6428  0.3426 -0.2187
17939TIP3    H175232   6.654   3.289   3.460 -2.1807 -0.4053  1.3354
17939TIP3    H275233   6.566   3.408   3.491 -0.1758  1.5680 -0.4017
17940TIP3   OH275234   5.566   3.379   5.760  0.1395 -0.1318 -0.2038
17940TIP3    H175235   5.513   3.321   5.705  0.9856  0.6360 -1.8391
17940TIP3    H275236   5.501   3.435   5.805 -0.4938  0.1702 -1.4697
17941TIP3   OH275237   5.642   4.590   5.210 -0.0872 -0.4233  0.2058
17941TIP3    H175238   5.654   4.678   5.174 -1.3161 -0.9981 -1.6548
17941TIP3    H275239   5.659   4.600   5.304  1.8135  1.3725 -0.3118
17942TIP3   OH275240   4.468   1.765   4.850  0.3223 -0.0777 -0.6294
17942TIP3    H175241   4.400   1.815   4.896  1.4567 -0.2544  1.2777
17942TIP3    H275242   4.498   1.823   4.781  0.4937  1.2586  0.5565
17943TIP3   OH275243   5.238   3.505   3.678 -0.1139  0.2564 -0.0788
17943TIP3    H175244   5.154   3.486   3.638  0.2142 -0.5108 -0.4301
17943TIP3    H275245   5.299   3.445   3.634  0.8059  1.5496 -0.5805
17944TIP3   OH275246   5.194   2.257   4.744  0.0834  0.0714 -0.1118
17944TIP3    H175247   5.150   2.218   4.668 -0.9481  1.6055 -0.3309
17944TIP3    H275248   5.199   2.185   4.808 -2.3141 -0.3002 -0.2731
17945TIP3   OH275249   4.570   2.449   5.740  1.0346  0.5517  0.4353
17945TIP3    H175250   4.517   2.472   5.664  0.8203 -0.5821  0.2276
17945TIP3    H275251   4.584   2.531   5.786  0.7558  1.1691 -0.5731
17946TIP3   OH275252   5.485   5.489   4.431  0.5280  0.5650  0.3993
17946TIP3    H175253   5.405   5.461   4.475  0.1093  0.0689 -0.6361
17946TIP3    H275254   5.554   5.478   4.496  0.3209 -2.5721  0.1732
17947TIP3   OH275255   2.657   4.751   2.392  0.8266 -0.0131 -0.1168
17947TIP3    H175256   2.569   4.760   2.429  0.9330  0.2408  0.0785
17947TIP3    H275257   2.642   4.734   2.299  0.5200 -1.8998  0.2514
17948TIP3   OH275258   5.547   3.083   4.551  0.8310  0.0412  0.1924
17948TIP3    H175259   5.556   3.024   4.626 -0.0342  0.1277  0.3691
17948TIP3    H275260   5.486   3.151   4.580  3.7287  2.4665  0.8560
17949TIP3   OH275261   4.856   3.527   5.741  0.1965 -0.0645 -0.2107
17949TIP3    H175262   4.788   3.594   5.747  1.8983  1.8561 -1.5392
17949TIP3    H275263   4.931   3.565   5.787  0.5031 -1.9997  0.9375
17950TIP3   OH275264   5.151   3.282   4.294 -0.5917 -0.3634  0.2694
17950TIP3    H175265   5.092   3.221   4.250  0.2912 -0.3184 -1.0064
17950TIP3    H275266   5.124   3.279   4.386 -3.0178  0.1509 -0.3667
17951TIP3   OH275267   5.175   2.473   4.395 -0.5507 -0.4752  0.1093
17951TIP3    H175268   5.217   2.508   4.474  0.1063 -0.4254 -0.2559
17951TIP3    H275269   5.247   2.461   4.334 -1.1601  0.2901 -0.7746
17952TIP3   OH275270   5.625   3.074   3.569  0.3836  0.1404  0.6546
17952TIP3    H175271   5.652   3.166   3.564 -1.0881  0.5602  0.2271
17952TIP3    H275272   5.586   3.066   3.656 -1.4314  0.4776 -0.1061
17953TIP3   OH275273   6.050   3.253   5.284  0.6703 -0.5719 -0.2513
17953TIP3    H175274   5.967   3.294   5.258  1.6064  0.7143 -1.3259
17953TIP3    H275275   6.027   3.163   5.306 -0.9716 -0.3049 -0.8116
17954TIP3   OH275276   3.376   4.770   3.893  0.0655 -0.4164  0.0436
17954TIP3    H175277   3.424   4.687   3.895  0.3079 -0.2902 -0.4901
17954TIP3    H275278   3.331   4.769   3.809 -1.5330 -0.9103  0.8928
17955TIP3   OH275279   4.501   3.507   3.747 -0.2655 -0.3081  0.1599
17955TIP3    H175280   4.491   3.575   3.815 -0.8276 -0.7332  0.4994
17955TIP3    H275281   4.423   3.514   3.694 -0.1616 -0.4652 -0.0119
17956TIP3   OH275282   5.584   2.414   4.692 -0.3323  0.5166 -0.2044
17956TIP3    H175283   5.660   2.432   4.637 -0.4230  0.9654 -0.1803
17956TIP3    H275284   5.608   2.446   4.779  0.0450 -0.7303  0.1719
17957TIP3   OH275285   4.029   2.544   4.573 -0.2807  0.1918 -0.0238
17957TIP3    H175286   4.035   2.454   4.604  0.7852 -0.0746 -0.9585
17957TIP3    H275287   3.984   2.591   4.643 -1.2248 -1.1513  0.2900
17958TIP3   OH275288   4.781   3.343   3.323  0.0300  0.0239  0.1498
17958TIP3    H175289   4.773   3.339   3.418  0.6540  1.8530  0.2926
17958TIP3    H275290   4.756   3.433   3.300  0.5970 -0.1806 -1.3424
17959TIP3   OH275291   6.037   4.233   5.450  0.2791 -0.3296 -0.4562
17959TIP3    H175292   5.945   4.261   5.445 -0.2946 -1.8305  1.3370
17959TIP3    H275293   6.074   4.286   5.521  0.0293 -1.7596  0.7641
17960TIP3   OH275294   0.571   5.103   5.075 -0.1370  0.3016  0.2643
17960TIP3    H175295   0.642   5.047   5.107 -0.2462  0.3841  0.6497
17960TIP3    H275296   0.533   5.054   5.002 -0.3580 -0.2153  0.7212
17961TIP3   OH275297   5.156   2.704   3.530 -0.7974 -0.3429  0.3413
17961TIP3    H175298   5.074   2.704   3.579 -1.1891 -1.5758 -0.2902
17961TIP3    H275299   5.186   2.613   3.533  1.1027  0.3026  1.4721
17962TIP3   OH275300   0.445   3.172   4.013 -0.1650  0.2964  0.0802
17962TIP3    H175301   0.442   3.170   4.109  0.7799 -1.0457  0.1143
17962TIP3    H275302   0.537   3.193   3.993 -0.5160  1.2554 -0.5315
17963TIP3   OH275303   3.761   2.076   5.776  0.0424 -0.2753 -0.3082
17963TIP3    H175304   3.707   2.102   5.701  1.0829 -1.1857 -1.3885
17963TIP3    H275305   3.710   2.008   5.820 -0.6147  0.3316 -0.1232
17964TIP3   OH275306   5.448   3.212   5.561 -0.2546  0.6593  0.1856
17964TIP3    H175307   5.436   3.258   5.478  1.6717  0.5709 -0.1764
17964TIP3    H275308   5.371   3.157   5.570 -0.2042  0.2340 -1.8492
17965TIP3   OH275309   5.414   3.227   5.277  0.9136 -0.0721  0.0926
17965TIP3    H175310   5.443   3.308   5.234 -0.3163  0.4483  0.2223
17965TIP3    H275311   5.364   3.181   5.210 -0.4268  0.4164  0.7481
17966TIP3   OH275312   4.944   4.312   2.141 -0.1433  0.2645  0.3493
17966TIP3    H175313   4.907   4.391   2.181  1.1738  0.5211  1.0802
17966TIP3    H275314   4.963   4.254   2.215 -0.6182 -0.5396 -0.1461
17967TIP3   OH275315   3.148   5.832   5.662  0.0834 -0.5815 -0.2919
17967TIP3    H175316   3.184   5.910   5.619  1.5760 -1.3696 -0.5214
17967TIP3    H275317   3.122   5.775   5.591  1.1241 -1.2402 -0.1529
17968TIP3   OH275318   5.782   2.548   4.333  0.0664  0.3062 -0.2088
17968TIP3    H175319   5.808   2.458   4.356  1.7565  0.8830  0.1872
17968TIP3    H275320   5.699   2.561   4.379  0.4400 -0.6160  0.7589
17969TIP3   OH275321   4.117   3.609   4.921 -0.4929  0.5212  0.0924
17969TIP3    H175322   4.087   3.593   4.831  0.1426  0.3296 -0.0886
17969TIP3    H275323   4.200   3.561   4.927  1.1459  3.2207 -0.2595
17970TIP3   OH275324   5.518   1.739   5.304 -0.4175 -0.2985  0.1582
17970TIP3    H175325   5.532   1.646   5.320  0.8592 -0.0336  0.6107
17970TIP3    H275326   5.497   1.775   5.390  0.1722  0.0225  0.1673
17971TIP3   OH275327   2.963   4.281   5.203  0.9987 -0.0783  0.3609
17971TIP3    H175328   3.050   4.315   5.183  0.9926 -1.1048 -1.5225
17971TIP3    H275329   2.978   4.191   5.232  0.6983  0.2876  1.6880
17972TIP3   OH275330   3.648   7.285   3.584  0.3756  0.2278 -0.3574
17972TIP3    H175331   3.686   7.352   3.642  0.2431 -0.6904  0.8215
17972TIP3    H275332   3.680   7.203   3.620  0.6246 -0.3442 -1.8720
17973TIP3   OH275333   5.165   3.849   5.176 -0.1087 -0.1463 -0.3428
17973TIP3    H175334   5.086   3.800   5.157  0.0798 -0.6684  0.2210
17973TIP3    H275335   5.158   3.927   5.121 -0.4799 -0.7250 -1.1259
17974TIP3   OH275336   3.539   0.941   5.421 -0.4620  0.0671 -0.6974
17974TIP3    H175337   3.513   0.985   5.340 -2.1471 -0.3482 -0.4056
17974TIP3    H275338   3.462   0.891   5.447  0.9735 -2.0485 -0.3345
17975TIP3   OH275339   5.895   2.331   3.673 -0.2604 -0.1671 -0.6820
17975TIP3    H175340   5.950   2.254   3.657 -1.6211 -0.7184 -2.9525
17975TIP3    H275341   5.835   2.303   3.743  1.5305  0.0311  0.9494
17976TIP3   OH275342   4.658   1.387   5.169  0.4211  0.1947  0.1558
17976TIP3    H175343   4.606   1.307   5.161  1.0617 -0.0530 -1.5891
17976TIP3    H275344   4.674   1.415   5.079  2.4724  0.8222  0.6983
17977TIP3   OH275345   5.724   1.712   4.304  0.5898 -0.3519 -0.1285
17977TIP3    H175346   5.712   1.636   4.247  1.2031  0.9872 -2.1075
17977TIP3    H275347   5.781   1.770   4.254  1.6717  0.5949  2.1502
17978TIP3   OH275348   6.973   3.890   3.926 -0.3275  0.1110 -0.5960
17978TIP3    H175349   6.891   3.899   3.876  0.3223  1.1406 -1.4974
17978TIP3    H275350   6.964   3.951   3.999 -0.6206 -0.2284 -0.3487
17979TIP3   OH275351   5.112   4.951   3.912 -0.2108 -0.1432 -0.2838
17979TIP3    H175352   5.152   4.960   3.998  1.8805  2.1153 -1.4444
17979TIP3    H275353   5.112   4.856   3.895 -0.2832 -0.5740  1.9705
17980TIP3   OH275354   6.309   1.483   1.260 -0.0035 -0.2263 -0.3996
17980TIP3    H175355   6.243   1.527   1.206  0.0788 -1.4625 -1.5417
17980TIP3    H275356   6.314   1.395   1.223  0.2953 -0.9928  1.4471
17981TIP3   OH275357   5.405   3.288   4.633 -0.2181 -0.2772 -0.6928
17981TIP3    H175358   5.446   3.360   4.587 -0.4677  0.5175  0.3010
17981TIP3    H275359   5.316   3.320   4.653 -1.3311 -1.9379 -2.7566
17982TIP3   OH275360   3.342   3.821   4.862 -0.7624 -0.1392  0.4023
17982TIP3    H175361   3.304   3.821   4.774 -0.4791 -1.6081  0.2654
17982TIP3    H275362   3.384   3.735   4.870  0.7655  0.6700  1.3086
17983TIP3   OH275363   3.231   3.391   4.579  0.2669  0.1054  0.6351
17983TIP3    H175364   3.196   3.412   4.666 -2.7025 -0.8307 -0.2801
17983TIP3    H275365   3.211   3.298   4.567 -0.4635  0.5085 -1.4988
17984TIP3   OH275366   1.888   2.776   4.872 -0.1620 -0.7506  0.0281
17984TIP3    H175367   1.871   2.704   4.811 -0.5111 -1.1840  0.6259
17984TIP3    H275368   1.870   2.738   4.958  2.4185 -0.7920  0.5802
17985TIP3   OH275369   6.851   1.938   3.236 -0.3971  0.2671  0.4426
17985TIP3    H175370   6.920   1.956   3.299 -1.2183 -0.2753  1.5120
17985TIP3    H275371   6.817   2.024   3.212 -0.1243  0.4729  0.7926
17986TIP3   OH275372   4.660   4.027   4.475  0.5314  0.1259  0.6441
17986TIP3    H175373   4.699   3.997   4.558  0.5440  0.4231  0.7451
17986TIP3    H275374   4.581   4.074   4.501 -1.5232 -3.0025  0.2800
17987TIP3   OH275375   5.506   2.349   3.429  0.8322 -0.3332  0.5303
17987TIP3    H175376   5.520   2.435   3.468  0.4351 -0.1720  0.3248
17987TIP3    H275377   5.586   2.331   3.380  0.1904  0.7241 -0.9272
17988TIP3   OH275378   3.724   2.060   4.764 -0.4106 -0.3690  0.0286
17988TIP3    H175379   3.751   2.126   4.700 -0.9500 -0.8469 -0.7017
17988TIP3    H275380   3.708   2.110   4.844 -1.2500  0.4564 -0.6399
17989TIP3   OH275381   3.837   4.158   4.202  0.4391 -0.1228  0.5435
17989TIP3    H175382   3.884   4.210   4.268  0.8217  0.4349 -0.1575
17989TIP3    H275383   3.756   4.131   4.246 -0.4322  2.2326  0.4984
17990TIP3   OH275384   3.369   2.996   5.110  0.3407  0.0965  0.5917
17990TIP3    H175385   3.455   3.029   5.082  1.1192 -1.5229  1.0234
17990TIP3    H275386   3.357   3.031   5.198  1.6496 -1.5826  1.4735
17991TIP3   OH275387   1.091   2.110   2.585 -0.4892 -0.6489 -0.5734
17991TIP3    H175388   1.143   2.103   2.664  0.0564  0.0164 -0.8693
17991TIP3    H275389   1.033   2.033   2.587 -1.4253  0.0705  1.1337
17992TIP3   OH275390   4.941   3.670   5.124  0.0993 -0.5462  0.0994
17992TIP3    H175391   4.973   3.595   5.174 -0.8292 -1.0167  0.0035
17992TIP3    H275392   4.846   3.668   5.136 -0.1118 -0.4860 -1.4372
17993TIP3   OH275393   3.485   1.260   4.761 -0.6113 -0.9439  0.3099
17993TIP3    H175394   3.412   1.306   4.804 -0.0617  0.1832  0.0580
17993TIP3    H275395   3.506   1.315   4.686  0.2152 -1.5065  0.1294
17994TIP3   OH275396   5.080   2.879   1.682  0.2247 -0.1966 -0.4064
17994TIP3    H175397   5.121   2.930   1.752  0.4309  1.1352 -1.4736
17994TIP3    H275398   5.102   2.788   1.702  0.3835  0.1858  1.1810
17995TIP3   OH275399   0.490   2.574   3.360  0.3294 -0.3236  0.1651
17995TIP3    H175400   0.544   2.529   3.425  1.4468  2.4226  1.1934
17995TIP3    H275401   0.414   2.604   3.409 -0.6030 -1.3857 -0.6037
17996TIP3   OH275402   5.956   1.939   1.948 -0.2545  0.4899  0.0170
17996TIP3    H175403   6.029   1.894   1.906 -0.1549  1.5643 -0.9845
17996TIP3    H275404   5.987   2.028   1.962 -0.3295  0.1907  2.2977
17997TIP3   OH275405   4.418   2.214   5.691  0.1766  0.3409 -0.0292
17997TIP3    H175406   4.458   2.281   5.747 -0.0555  1.4077 -1.1104
17997TIP3    H275407   4.364   2.162   5.750  2.2535 -0.4012  1.2406
17998TIP3   OH275408   5.904   3.201   4.609 -0.3109 -0.1995  0.2983
17998TIP3    H175409   5.880   3.120   4.653 -0.3814  0.5514  1.6677
17998TIP3    H275410   5.855   3.198   4.526  1.1122 -2.3840 -0.5094
17999TIP3   OH275411   5.786   1.959   5.280  0.0279 -0.2313 -0.2018
17999TIP3    H175412   5.698   1.932   5.255  0.1574  1.0015 -2.0334
17999TIP3    H275413   5.799   1.920   5.367 -1.7750 -1.5928 -0.5203
18000TIP3   OH275414   4.135   2.739   5.244  0.2437  0.0100 -0.0750
18000TIP3    H175415   4.103   2.690   5.319  0.6632  0.7392  0.5884
18000TIP3    H275416   4.118   2.831   5.266 -0.1496  0.2013 -1.1143
18001TIP3   OH275417   5.542   1.962   5.142 -0.7395  0.4977 -0.2090
18001TIP3    H175418   5.500   1.875   5.142 -2.3531  1.2549 -1.0671
18001TIP3    H275419   5.483   2.017   5.091  1.0890  1.7350 -1.0275
18002TIP3   OH275420   4.247   2.722   3.490 -0.3447 -0.5529 -0.0815
18002TIP3    H175421   4.307   2.749   3.421  0.0884 -0.6008  0.2718
18002TIP3    H275422   4.288   2.754   3.571 -0.5696 -0.9703  0.1998
18003TIP3   OH275423   5.801   1.644   5.515 -0.0608 -0.0598  0.2319
18003TIP3    H175424   5.812   1.737   5.530 -1.4388 -0.3150  3.1665
18003TIP3    H275425   5.733   1.638   5.448 -0.5788  1.0067  0.6642
18004TIP3   OH275426   3.349   3.410   5.240  0.0357  0.2865  0.4205
18004TIP3    H175427   3.281   3.363   5.288  0.5543 -1.1796 -0.2510
18004TIP3    H275428   3.420   3.421   5.302 -0.5390  1.2353  0.9259
18005TIP3   OH275429   5.438   0.781   4.313 -1.0147 -0.2386  0.1431
18005TIP3    H175430   5.397   0.696   4.301  0.3380 -1.0210  0.8660
18005TIP3    H275431   5.532   0.763   4.308 -0.7169  1.3211 -0.3520
18006TIP3   OH275432   4.494   3.064   5.302  0.2956  0.2749 -0.3460
18006TIP3    H175433   4.410   3.053   5.347  0.3829 -1.5325 -0.5886
18006TIP3    H275434   4.560   3.049   5.370  0.4155 -0.1259 -0.5465
18007TIP3   OH275435   4.236   2.356   6.440 -0.4045 -0.4967 -0.0807
18007TIP3    H175436   4.311   2.411   6.460 -0.1565 -0.7935 -0.1852
18007TIP3    H275437   4.226   2.361   6.345 -1.0322  0.2035  0.0189
18008TIP3   OH275438   4.204   2.386   6.158 -0.2040  0.1903 -0.4787
18008TIP3    H175439   4.152   2.315   6.121 -0.3760  0.1595 -0.1826
18008TIP3    H275440   4.241   2.431   6.082 -1.4334  0.7802 -0.7367
18009TIP3   OH275441   6.178   3.460   3.971 -0.1470  0.2317  0.1440
18009TIP3    H175442   6.126   3.414   3.905  0.5621 -1.2077  0.5729
18009TIP3    H275443   6.229   3.392   4.013  1.5174  1.5303  0.2720
18010TIP3   OH275444   6.053   3.244   1.833 -0.5032  0.4107 -0.0611
18010TIP3    H175445   6.062   3.307   1.905 -2.1954  1.0657 -0.4026
18010TIP3    H275446   6.141   3.235   1.798  0.0653  1.2774  1.0968
18011TIP3   OH275447   5.545   2.907   4.770 -0.6245 -0.5058 -0.5464
18011TIP3    H175448   5.463   2.864   4.750 -1.2762  0.3620  0.2201
18011TIP3    H275449   5.552   2.903   4.865  0.9006 -1.7979 -0.6892
18012TIP3   OH275450   2.374   3.174   4.810  0.1948  0.2626 -0.4241
18012TIP3    H175451   2.446   3.192   4.870 -1.9661  0.4588  2.2316
18012TIP3    H275452   2.317   3.114   4.858 -0.7213 -1.0592 -3.0246
18013TIP3   OH275453   4.838   4.994   3.967  0.7468  0.3742 -0.1075
18013TIP3    H175454   4.905   4.937   3.929 -0.3865  0.7510 -2.7720
18013TIP3    H275455   4.875   5.022   4.051  2.8872 -1.3222 -0.4467
18014TIP3   OH275456   5.197   3.220   3.846 -0.7873 -0.0661 -0.4527
18014TIP3    H175457   5.218   3.151   3.783 -0.0322  1.1784 -1.5997
18014TIP3    H275458   5.264   3.214   3.913  0.2597  0.6006 -1.4212
18015TIP3   OH275459   5.103   4.588   4.784  0.0369  0.4126 -0.1004
18015TIP3    H175460   5.148   4.669   4.809 -2.5678  2.1202 -0.6693
18015TIP3    H275461   5.168   4.519   4.796  2.3486  2.6002  0.3488
18016TIP3   OH275462   5.014   3.215   5.439  0.4894  0.8577 -0.4188
18016TIP3    H175463   4.933   3.228   5.489  0.2285 -0.7158 -0.3897
18016TIP3    H275464   5.084   3.229   5.503  0.1759 -0.3581  0.2090
18017TIP3   OH275465   5.977   2.548   4.993 -0.2698  0.3342  0.5031
18017TIP3    H175466   5.911   2.479   4.997 -1.1850  0.9699 -2.4871
18017TIP3    H275467   6.031   2.534   5.071 -0.5960 -3.5614  0.1157
18018TIP3   OH275468   6.619   4.215   5.268 -0.3295  0.3082 -0.1348
18018TIP3    H175469   6.554   4.170   5.322 -0.5567  0.8278  0.0253
18018TIP3    H275470   6.603   4.308   5.284  0.3797  0.4366 -0.1835
18019TIP3   OH275471   5.370   3.518   5.929 -0.4989 -0.0934  0.1735
18019TIP3    H175472   5.278   3.494   5.939 -0.8272  1.4004  0.9229
18019TIP3    H275473   5.398   3.545   6.016  0.4951  0.0269 -0.1659
18020TIP3   OH275474   4.331   2.039   4.374 -0.1610 -0.4226 -0.2688
18020TIP3    H175475   4.254   2.087   4.345  0.2288 -0.3555 -1.1947
18020TIP3    H275476   4.316   1.949   4.344  1.0014 -0.0062 -2.1520
18021TIP3   OH275477   4.277   1.393   3.372  0.1439 -0.0263  0.1869
18021TIP3    H175478   4.360   1.383   3.327  0.1086  1.6433 -0.2634
18021TIP3    H275479   4.220   1.327   3.332  1.0818 -0.8083  0.1287
18022TIP3   OH275480   5.267   4.784   4.857 -0.2258 -0.1324 -0.3013
18022TIP3    H175481   5.310   4.762   4.940  0.2899  0.0151 -0.5244
18022TIP3    H275482   5.233   4.872   4.870 -2.5854 -1.1358  0.7080
18023TIP3   OH275483   2.704   3.632   5.546 -0.1529 -0.3215  0.1356
18023TIP3    H175484   2.764   3.563   5.574  1.6907  1.1993  0.0098
18023TIP3    H275485   2.738   3.660   5.460  0.5294  2.3213  1.2212
18024TIP3   OH275486   6.111   3.987   4.106  0.3999 -0.3565 -0.1434
18024TIP3    H175487   6.168   4.021   4.176 -1.5079 -0.2415  1.4068
18024TIP3    H275488   6.131   4.041   4.030  3.0007 -0.9149  0.1024
18025TIP3   OH275489   5.984   1.552   5.116  0.2108 -0.2705  0.5893
18025TIP3    H175490   6.042   1.522   5.045 -0.2538 -1.1277  0.5715
18025TIP3    H275491   6.025   1.517   5.196  0.3188  0.0550  0.6755
18026TIP3   OH275492   5.443   2.391   4.307 -0.1729 -0.2299  0.2254
18026TIP3    H175493   5.489   2.461   4.354  0.6835 -2.0146  2.1613
18026TIP3    H275494   5.490   2.382   4.225  1.7632 -0.7066  1.3562
18027TIP3   OH275495   4.455   1.272   3.616 -0.4126 -0.5147 -0.0052
18027TIP3    H175496   4.534   1.297   3.569 -1.4672  0.3848 -1.3501
18027TIP3    H275497   4.452   1.177   3.611 -1.1676 -0.3603 -2.8726
18028TIP3   OH275498   0.317   2.700   4.634 -0.0318  0.2124  0.4137
18028TIP3    H175499   0.383   2.709   4.565 -0.6831 -0.1027 -0.2596
18028TIP3    H275500   0.312   2.605   4.650 -0.8522  0.1740 -0.0620
18029TIP3   OH275501   3.606   3.275   4.828  0.2107  0.3734  0.8130
18029TIP3    H175502   3.529   3.218   4.825  0.7533 -0.4189  1.5223
18029TIP3    H275503   3.680   3.215   4.834  0.9082  1.1240 -0.0976
18030TIP3   OH275504   6.312   3.255   4.095  0.8196  0.5543  0.1260
18030TIP3    H175505   6.371   3.182   4.115  0.0305  0.2024  1.2322
18030TIP3    H275506   6.249   3.254   4.167 -1.7158 -0.3020 -2.0512
18031TIP3   OH275507   6.749   3.155   3.820 -0.0159  0.9603 -0.0793
18031TIP3    H175508   6.673   3.201   3.785  0.3853  0.0090 -2.2739
18031TIP3    H275509   6.786   3.216   3.884 -2.6931  1.3568  1.1595
18032TIP3   OH275510   3.427   2.819   4.236 -0.2334  0.2117  0.0351
18032TIP3    H175511   3.356   2.814   4.172 -0.8264  2.3202  0.4629
18032TIP3    H275512   3.412   2.745   4.295 -0.0261 -1.3880 -1.8836
18033TIP3   OH275513   2.908   2.671   6.128  0.6072 -0.5248  0.0663
18033TIP3    H175514   2.971   2.675   6.200 -1.4454  2.2887  1.8310
18033TIP3    H275515   2.903   2.761   6.096 -2.2119 -0.7534 -0.2430
18034TIP3   OH275516   6.896   1.591   4.663  0.2992  0.5781 -0.4071
18034TIP3    H175517   6.873   1.633   4.745 -1.1956  0.4925 -0.7813
18034TIP3    H275518   6.952   1.517   4.689 -3.1112 -1.6538  0.8546
18035TIP3   OH275519   5.666   3.327   3.250  0.4878 -0.2512  0.0374
18035TIP3    H175520   5.736   3.392   3.260 -0.1427  0.3655  0.4843
18035TIP3    H275521   5.700   3.265   3.185  1.7064 -0.3224  0.7431
18036TIP3   OH275522   2.453   2.556   3.235  0.0986 -0.0365  0.1497
18036TIP3    H175523   2.431   2.506   3.313 -0.5653 -0.3812 -0.2619
18036TIP3    H275524   2.542   2.528   3.213 -0.1947 -0.8807  0.0343
18037TIP3   OH275525   3.984   2.114   5.378 -0.2795 -0.1535  0.1455
18037TIP3    H175526   3.917   2.067   5.427 -2.1061  1.3754 -0.7939
18037TIP3    H275527   4.015   2.183   5.437  1.9804 -2.0923  1.3118
18038TIP3   OH275528   5.199   2.056   4.544  0.5120  0.1417 -0.2094
18038TIP3    H175529   5.147   2.079   4.468  0.3362 -0.8599 -0.4011
18038TIP3    H275530   5.289   2.077   4.519  0.1907  2.0939  0.2093
18039TIP3   OH275531   3.517   3.065   4.070 -0.0672  0.3762  0.5182
18039TIP3    H175532   3.604   3.072   4.111 -0.0608  1.4127  0.3466
18039TIP3    H275533   3.529   3.001   4.000  1.0314  1.8275 -0.6735
18040TIP3   OH275534   3.805   3.750   5.204 -0.3338 -0.3607  0.8151
18040TIP3    H175535   3.710   3.750   5.211 -0.3207  1.6248  1.3319
18040TIP3    H275536   3.835   3.714   5.288 -0.6196 -1.1239  0.5950
18041TIP3   OH275537   4.098   4.775   5.643  0.1251  0.2395 -0.5662
18041TIP3    H175538   4.016   4.808   5.607 -0.7652 -1.0103  0.3045
18041TIP3    H275539   4.075   4.743   5.730  1.4528 -0.5228 -0.4890
18042TIP3   OH275540   4.737   2.203   5.403 -0.7767 -0.0852  0.2687
18042TIP3    H175541   4.654   2.249   5.410 -2.8381 -3.4314 -0.9685
18042TIP3    H275542   4.716   2.112   5.421  2.2237 -1.3659 -2.1177
18043TIP3   OH275543   0.338   3.888   1.531  0.2010 -0.3571  0.1036
18043TIP3    H175544   0.295   3.824   1.587  0.5390 -0.6935 -0.0238
18043TIP3    H275545   0.272   3.955   1.516  0.8618  1.0327  2.9850
18044TIP3   OH275546   4.833   3.801   4.101  0.7256 -0.0135  0.3281
18044TIP3    H175547   4.775   3.862   4.057  0.6161  0.4677  1.1338
18044TIP3    H275548   4.878   3.755   4.030  0.3316  0.5394 -0.2816
18045TIP3   OH275549   4.787   4.354   5.905 -0.0277  0.0048  0.3834
18045TIP3    H175550   4.773   4.449   5.904 -0.7827 -0.1079 -0.5185
18045TIP3    H275551   4.733   4.322   5.978 -0.8919  0.1087 -0.2038
18046TIP3   OH275552   6.901   4.669   4.830 -1.0026 -0.4493 -0.0567
18046TIP3    H175553   6.943   4.637   4.910 -0.2443 -0.3982 -0.4405
18046TIP3    H275554   6.972   4.706   4.778 -1.5477 -0.1702 -0.6058
18047TIP3   OH275555   4.317   0.904   4.140  0.0863  0.1726 -0.0951
18047TIP3    H175556   4.223   0.912   4.129 -0.0121 -0.6967  0.0952
18047TIP3    H275557   4.351   0.991   4.118 -0.7985  0.6371  0.3449
18048TIP3   OH275558   3.132   3.866   4.006 -0.5141  0.6320  0.2364
18048TIP3    H175559   3.157   3.895   3.918  0.8014 -2.4219 -0.4736
18048TIP3    H275560   3.078   3.788   3.991 -1.4096  0.8716  2.0971
18049TIP3   OH275561   3.513   4.436   4.365 -0.1894  0.1531  0.3758
18049TIP3    H175562   3.480   4.352   4.333 -0.4594  0.3759  0.0621
18049TIP3    H275563   3.436   4.494   4.362  0.4384  0.9379 -1.2523
18050TIP3   OH275564   5.320   2.744   5.615  0.4917  0.0185  0.3487
18050TIP3    H175565   5.376   2.722   5.689 -0.2921  0.6681  1.1478
18050TIP3    H275566   5.371   2.720   5.538  1.9069  0.6734  1.0543
18051TIP3   OH275567   3.635   1.552   3.279 -0.0208  0.3337 -0.2025
18051TIP3    H175568   3.670   1.592   3.358  0.4149 -1.2496  0.4320
18051TIP3    H275569   3.603   1.625   3.226  1.0113  1.5140  0.7929
18052TIP3   OH275570   6.324   1.919   4.254  0.0092 -0.0512 -0.0235
18052TIP3    H175571   6.336   1.829   4.287 -0.0524 -0.0464  0.0107
18052TIP3    H275572   6.290   1.967   4.329  1.2180  0.2862  0.3191
18053TIP3   OH275573   6.880   2.823   4.592  0.0873 -0.6934 -0.6556
18053TIP3    H175574   6.935   2.845   4.517  1.3679 -0.2291  0.3946
18053TIP3    H275575   6.804   2.880   4.584  1.4328  1.1922 -0.2191
18054TIP3   OH275576   4.039   1.501   5.458  0.4122  0.0010  0.1491
18054TIP3    H175577   4.114   1.494   5.518  0.2916 -0.1500  0.2809
18054TIP3    H275578   4.024   1.595   5.450  0.9852  0.0573 -0.3319
18055TIP3   OH275579   3.982   2.601   4.932  0.1162 -0.1223  0.1232
18055TIP3    H175580   3.958   2.678   4.881 -1.8439  0.8296  2.4165
18055TIP3    H275581   3.899   2.568   4.967  1.1376 -2.2254  0.6323
18056TIP3   OH275582   7.074   3.508   4.245 -0.0356  0.3089  0.6832
18056TIP3    H175583   6.998   3.556   4.279 -2.2540 -2.6295  0.1107
18056TIP3    H275584   7.067   3.516   4.150  0.1288 -0.2911  0.6170
18057TIP3   OH275585   4.913   7.291   5.183  0.1008  0.4335 -0.5590
18057TIP3    H175586   4.900   7.375   5.228 -1.4455 -0.6757  1.1377
18057TIP3    H275587   4.957   7.236   5.248  1.1397 -0.0848 -1.6744
18058TIP3   OH275588   0.728   1.114   4.726  0.2311  0.9620 -0.9468
18058TIP3    H175589   0.748   1.177   4.657  0.9550 -0.1255 -1.7496
18058TIP3    H275590   0.765   1.153   4.805 -0.4073  2.1141 -1.2054
18059TIP3   OH275591   4.993   2.255   2.655  0.4389 -0.0356 -0.3215
18059TIP3    H175592   4.958   2.167   2.647 -1.4421  0.6751 -0.1589
18059TIP3    H275593   4.973   2.280   2.746 -2.9442  2.1409 -1.5801
18060TIP3   OH275594   2.813   2.848   5.619 -0.5903 -0.0994  0.2249
18060TIP3    H175595   2.816   2.757   5.588  0.8261  0.4345 -1.2833
18060TIP3    H275596   2.815   2.841   5.715  0.0266 -1.6372  0.1137
18061TIP3   OH275597   4.757   1.716   4.973 -0.0655  1.0171  0.3238
18061TIP3    H175598   4.693   1.645   4.960  0.5659  0.6090 -0.6090
18061TIP3    H275599   4.735   1.781   4.907  0.2229  1.0765  0.2876
18062TIP3   OH275600   3.465   5.177   3.940  0.0420 -0.2075 -0.3477
18062TIP3    H175601   3.549   5.152   3.901  0.1648  0.0293 -0.2357
18062TIP3    H275602   3.452   5.268   3.913 -0.5157 -0.4618 -0.9443
18063TIP3   OH275603   3.857   3.249   3.505 -0.0075  0.0876 -0.5469
18063TIP3    H175604   3.904   3.170   3.478 -0.5773 -0.3097 -0.3769
18063TIP3    H275605   3.893   3.318   3.449  1.2207 -0.0876 -0.0043
18064TIP3   OH275606   5.485   1.016   5.572  0.0633 -0.1941 -0.8264
18064TIP3    H175607   5.447   1.089   5.524 -0.0334 -0.5914 -1.3568
18064TIP3    H275608   5.435   0.939   5.544  0.6917 -0.5889 -0.8960
18065TIP3   OH275609   4.265   2.141   6.591  0.3499 -0.1323 -0.1066
18065TIP3    H175610   4.176   2.129   6.625 -0.3747  1.2608 -1.4638
18065TIP3    H275611   4.261   2.222   6.539  3.1468  1.7389  2.3817
18066TIP3   OH275612   2.513   3.917   4.577 -0.7780 -0.0198 -0.3985
18066TIP3    H175613   2.502   3.966   4.659  0.9580  1.9945 -1.3430
18066TIP3    H275614   2.595   3.869   4.588  0.3415  1.5815 -1.5882
18067TIP3   OH275615   5.002   2.731   4.991  0.5760  0.3689 -0.4687
18067TIP3    H175616   5.054   2.668   4.941 -0.1023 -1.6518  1.2870
18067TIP3    H275617   4.911   2.708   4.972  0.3174  1.3921 -0.5102
18068TIP3   OH275618   5.151   3.262   5.687  0.7570 -0.0017  0.3494
18068TIP3    H175619   5.134   3.277   5.780  0.8430  0.1650  0.3390
18068TIP3    H275620   5.151   3.167   5.677  1.7984 -0.0413  0.7170
18069TIP3   OH275621   7.285   3.260   3.053 -0.3310 -0.7092  0.2204
18069TIP3    H175622   7.259   3.179   3.097 -1.1379 -0.7748 -0.3621
18069TIP3    H275623   7.372   3.280   3.088 -0.0044 -1.9781  0.1666
18070TIP3   OH275624   0.471   0.630   5.750  0.8651  0.1781  0.2352
18070TIP3    H175625   0.462   0.542   5.715 -2.1253  1.1948 -1.6750
18070TIP3    H275626   0.501   0.617   5.840 -1.3823 -2.8750  0.5971
18071TIP3   OH275627   0.315   3.940   4.155  0.1820  0.2867 -0.4544
18071TIP3    H175628   0.274   3.854   4.145  2.0578 -0.5951 -0.8725
18071TIP3    H275629   0.408   3.920   4.170  0.3341  2.1887  1.2916
18072TIP3   OH275630   5.574   2.657   2.190 -0.8747  0.4321 -0.1939
18072TIP3    H175631   5.536   2.651   2.278 -0.2063  1.2660  0.1568
18072TIP3    H275632   5.648   2.596   2.192  1.0333  2.7256  0.8223
18073TIP3   OH275633   5.375   0.925   3.945 -0.6605 -0.6971  0.0823
18073TIP3    H175634   5.336   0.883   3.868 -1.1011  0.5215 -0.3623
18073TIP3    H275635   5.324   0.891   4.019 -2.2431  0.4809 -0.4514
18074TIP3   OH275636   3.579   2.830   4.731  0.1708 -0.0501 -0.3798
18074TIP3    H175637   3.540   2.770   4.794  1.8472  0.0002  0.7346
18074TIP3    H275638   3.622   2.774   4.667  1.0677 -0.0555  0.2242
18075TIP3   OH275639   5.767   4.276   5.636 -0.4245 -0.3620 -0.0372
18075TIP3    H175640   5.815   4.301   5.715 -0.4784 -0.1248 -0.0800
18075TIP3    H275641   5.774   4.181   5.634  2.8587 -0.1468 -1.7794
18076TIP3   OH275642   6.973   0.952   5.747 -0.2144  0.4346 -0.4003
18076TIP3    H175643   7.012   1.039   5.761  1.9515 -0.3298 -1.4213
18076TIP3    H275644   6.985   0.907   5.831  0.5078  0.4308 -0.5054
18077TIP3   OH275645   0.239   2.035   6.075  0.0091  0.6949 -0.4957
18077TIP3    H175646   0.322   2.024   6.029 -0.7308  0.4086 -1.7673
18077TIP3    H275647   0.259   2.097   6.146  0.8201  2.2777 -2.0666
18078TIP3   OH275648   0.023   4.191   4.730 -0.0813 -0.8545 -0.4665
18078TIP3    H175649   0.048   4.281   4.751  0.3129 -1.1259  0.2453
18078TIP3    H275650   0.080   4.168   4.656  0.7806 -0.9785  0.2256
18079TIP3   OH275651   0.065   1.455   3.339  0.2145  0.1459 -0.6153
18079TIP3    H175652   0.102   1.383   3.390 -0.2960 -0.4616 -1.0927
18079TIP3    H275653  -0.027   1.432   3.327 -0.1836  1.3455  0.0348
18080TIP3   OH275654   5.917   2.300   5.121 -0.1350 -0.6391  0.0173
18080TIP3    H175655   5.848   2.257   5.070  0.3197  0.7926 -1.8400
18080TIP3    H275656   5.998   2.259   5.091  0.4812  2.6180 -3.0434
18081TIP3   OH275657   5.000   2.480   3.707 -0.3542  0.1379  0.5629
18081TIP3    H175658   5.044   2.497   3.790  0.3955  0.1445  0.1693
18081TIP3    H275659   5.070   2.484   3.642 -0.8876 -0.1705 -0.0317
18082TIP3   OH275660   6.518   1.776   5.662 -0.4667  0.5362 -0.0389
18082TIP3    H175661   6.492   1.723   5.737  0.3136 -0.8697 -0.7538
18082TIP3    H275662   6.603   1.812   5.687  1.8495 -3.3401 -1.8670
18083TIP3   OH275663   6.721   2.174   5.365  0.2017 -0.3508  0.1964
18083TIP3    H175664   6.720   2.098   5.307  1.5926 -0.9252  0.8896
18083TIP3    H275665   6.716   2.136   5.453 -1.7421  0.5016  0.4745
18084TIP3   OH275666   6.692   3.711   4.919  0.3921  0.2509  0.8047
18084TIP3    H175667   6.661   3.743   4.834 -0.2654 -2.3647  0.0286
18084TIP3    H275668   6.787   3.722   4.916  0.4382 -0.4237 -0.5289
18085TIP3   OH275669   0.340   0.945   5.930  0.2166  0.2108 -0.2328
18085TIP3    H175670   0.419   0.929   5.983  0.6645 -1.6811 -1.4181
18085TIP3    H275671   0.362   0.910   5.844 -1.6604  0.3747 -0.7973
18086TIP3   OH275672   7.183   4.043   2.117 -0.3463  0.2201 -0.3570
18086TIP3    H175673   7.121   4.100   2.163 -0.1106 -2.0960  2.9985
18086TIP3    H275674   7.269   4.081   2.135 -0.3334 -0.1100  0.2922
18087TIP3   OH275675   6.898   2.979   4.835 -0.3991 -0.0788 -0.2599
18087TIP3    H175676   6.960   2.911   4.808  0.7686  0.9499 -0.2244
18087TIP3    H275677   6.933   3.059   4.797 -1.5497  0.5693  0.0369
18088TIP3   OH275678   0.003   0.485   4.122  0.2571 -0.2313 -0.0705
18088TIP3    H175679   0.042   0.496   4.035 -1.2972 -0.0474 -0.7625
18088TIP3    H275680  -0.079   0.534   4.118 -1.3452 -2.7773  0.4510
18089TIP3   OH275681   6.976   4.235   6.066  0.0300  0.1244 -0.0112
18089TIP3    H175682   7.065   4.270   6.080 -0.6922  1.1170  2.1854
18089TIP3    H275683   6.960   4.178   6.141 -0.8120 -0.8723 -0.9389
18090TIP3   OH275684   7.184   0.436   5.146  0.8086  0.1450 -0.0451
18090TIP3    H175685   7.114   0.424   5.210  0.2774 -1.1995 -0.8586
18090TIP3    H275686   7.158   0.514   5.097 -0.2848 -0.5138 -0.5357
18091TIP3   OH275687   0.476   0.343   5.674  0.2001 -0.0675 -0.3792
18091TIP3    H175688   0.416   0.271   5.693  0.8564 -0.6424 -0.4348
18091TIP3    H275689   0.550   0.328   5.734 -0.2687  1.3369  0.5699
18092TIP3   OH275690   6.306   2.880   5.436  0.1240  0.2644 -0.0159
18092TIP3    H175691   6.368   2.807   5.442 -0.5169 -0.1510  2.0801
18092TIP3    H275692   6.240   2.850   5.374 -0.2291 -1.0446  0.9605
18093TIP3   OH275693   6.200   4.383   5.639  0.4217  0.3850  0.1371
18093TIP3    H175694   6.228   4.439   5.710 -1.1518  2.5876 -0.9041
18093TIP3    H275695   6.235   4.424   5.560 -0.3437 -0.3406 -0.6025
18094TIP3   OH275696   5.862   4.266   5.018  0.1851 -0.2015  0.4483
18094TIP3    H175697   5.910   4.267   4.936 -1.1797 -1.1094 -0.3931
18094TIP3    H275698   5.877   4.179   5.054  0.5212  0.0840  0.9976
18095TIP3   OH275699   0.396   1.656   4.711 -0.1301 -0.3061 -0.0016
18095TIP3    H175700   0.448   1.577   4.698 -0.9107 -0.9469  0.7022
18095TIP3    H275701   0.454   1.715   4.758 -0.3718 -1.4188  1.7404
18096TIP3   OH275702   0.810   3.961   4.853  0.4064 -0.1228 -0.0098
18096TIP3    H175703   0.841   3.893   4.912 -1.1005 -1.7046 -0.9742
18096TIP3    H275704   0.857   3.945   4.771  0.7788  0.6212  0.0557
18097TIP3   OH275705   6.645   3.872   5.352  0.2330  0.1337 -0.3638
18097TIP3    H175706   6.714   3.823   5.397 -1.1607 -0.4364  1.2016
18097TIP3    H275707   6.691   3.924   5.286  1.9773 -1.5716 -0.5366
18098TIP3   OH275708   0.243   5.281   4.531 -0.3121 -0.7258 -0.1625
18098TIP3    H175709   0.303   5.303   4.602 -0.0423 -1.5312 -0.1399
18098TIP3    H275710   0.167   5.336   4.546  0.7993  1.0116 -0.7277
18099TIP3   OH275711   7.241   2.927   5.255  0.0879 -0.0510  0.6922
18099TIP3    H175712   7.240   2.902   5.163 -0.8025 -0.9263  0.9281
18099TIP3    H275713   7.306   2.998   5.261  0.9496 -0.7474 -0.3983
18100TIP3   OH275714   4.705   3.199   3.935 -0.0386 -0.3094 -0.3926
18100TIP3    H175715   4.755   3.141   3.878 -0.2978 -0.6875 -0.2357
18100TIP3    H275716   4.622   3.214   3.888 -0.1704 -0.4609 -0.2079
18101TIP3   OH275717   1.071   0.116   4.454  0.4945  0.2846 -0.2120
18101TIP3    H175718   1.094   0.116   4.547  0.7329 -0.6101 -0.2637
18101TIP3    H275719   1.091   0.027   4.425 -0.7164  0.2095 -0.8428
18102TIP3   OH275720   5.251   3.592   5.095  0.3914  0.3301 -0.5885
18102TIP3    H175721   5.161   3.573   5.067 -0.3368  1.6197  0.8112
18102TIP3    H275722   5.244   3.673   5.146  2.1936 -0.0931  0.3735
18103TIP3   OH275723   6.846   3.403   5.554  0.0308 -0.2500  0.0990
18103TIP3    H175724   6.851   3.316   5.593 -0.3618 -0.2487  0.1596
18103TIP3    H275725   6.908   3.457   5.603 -0.3110 -0.2981  0.5792
18104TIP3   OH275726   5.689   1.547   4.081  0.0873 -0.0866  0.3166
18104TIP3    H175727   5.748   1.472   4.070  0.4881  0.1329  0.9667
18104TIP3    H275728   5.707   1.603   4.005 -1.3075 -1.3747 -0.9878
18105TIP3   OH275729   0.018   2.025   5.409 -0.2803  0.1991  0.1048
18105TIP3    H175730  -0.035   2.010   5.487  1.1386 -0.2124  1.0103
18105TIP3    H275731   0.022   2.120   5.400  0.0697  0.2710  0.9171
18106TIP3   OH275732   6.045   1.107   5.616 -0.3670 -0.4223  0.1249
18106TIP3    H175733   6.005   1.022   5.633 -0.7947 -0.3236 -0.3762
18106TIP3    H275734   5.978   1.171   5.643  0.1497 -0.2328  0.9992
18107TIP3   OH275735   0.096   0.802   5.307  1.0270 -0.1363 -0.1666
18107TIP3    H175736   0.006   0.773   5.294 -0.0993  1.9961  2.4585
18107TIP3    H275737   0.124   0.760   5.388  1.9296  0.2267 -0.2839
18108TIP3   OH275738   5.337   2.159   2.742 -0.5820  0.2252 -0.0095
18108TIP3    H175739   5.296   2.244   2.758  1.0250  1.1651 -0.7824
18108TIP3    H275740   5.323   2.110   2.823 -1.1754  1.3546  0.5850
18109TIP3   OH275741   6.334   2.150   3.162  0.3577  0.0284  0.2650
18109TIP3    H175742   6.391   2.222   3.188  1.9151 -1.1205  0.0554
18109TIP3    H275743   6.359   2.130   3.072  1.6337 -2.3529  1.0971
18110TIP3   OH275744   4.491   2.910   2.468  0.0495 -0.1801  0.0376
18110TIP3    H175745   4.458   2.826   2.500 -0.5460 -0.3722 -1.0686
18110TIP3    H275746   4.542   2.945   2.541 -0.3889 -1.1198  0.8028
18111TIP3   OH275747   0.392   3.830   6.147  0.0275 -0.0393 -0.0593
18111TIP3    H175748   0.379   3.832   6.053 -1.8989  0.3537  0.1949
18111TIP3    H275749   0.448   3.753   6.162 -1.3578 -1.3352 -1.3285
18112TIP3   OH275750   0.914   3.804   4.379 -0.2873  0.5476  0.1212
18112TIP3    H175751   0.862   3.775   4.304 -1.7701  2.0175  0.5385
18112TIP3    H275752   0.944   3.723   4.420 -2.5729 -0.3551  0.0833
18113TIP3   OH275753   4.724   4.611   5.219  0.4173 -0.2582  0.2385
18113TIP3    H175754   4.653   4.547   5.229 -0.5448  0.6687 -0.4610
18113TIP3    H275755   4.779   4.574   5.150 -1.8817  1.1288 -2.4522
18114TIP3   OH275756   6.987   3.493   4.599  0.4882  0.9101  0.3065
18114TIP3    H175757   6.910   3.448   4.633  1.1653 -0.2618  0.3147
18114TIP3    H275758   6.962   3.585   4.597 -1.2242  0.4502 -0.5340
18115TIP3   OH275759   0.922   3.802   3.326 -0.1612  0.0445  0.2288
18115TIP3    H175760   0.998   3.859   3.315  1.7393 -2.3480  0.4476
18115TIP3    H275761   0.917   3.787   3.420  0.6285 -1.7236  0.0237
18116TIP3   OH275762   1.042   2.912   3.448  0.2424 -0.0653 -0.0316
18116TIP3    H175763   1.027   2.818   3.460 -0.8306  0.1951  0.7111
18116TIP3    H275764   1.086   2.940   3.528 -3.4258  0.9078  1.7712
18117TIP3   OH275765   6.973   2.641   6.223  0.3566 -0.2267  0.2705
18117TIP3    H175766   7.065   2.615   6.215 -0.3551 -2.3901 -1.4540
18117TIP3    H275767   6.936   2.581   6.287 -0.3017 -0.6163 -0.4728
18118TIP3   OH275768   5.772   2.088   3.862 -0.7310  0.0295  0.0955
18118TIP3    H175769   5.755   1.994   3.854  2.9039 -0.7434  0.7909
18118TIP3    H275770   5.708   2.129   3.803 -1.2633 -2.9526 -1.4988
18119TIP3   OH275771   5.706   3.773   4.221 -0.4076 -0.1569 -0.5292
18119TIP3    H175772   5.623   3.800   4.260 -0.5980  0.0735 -1.0874
18119TIP3    H275773   5.733   3.698   4.273  0.0179  0.9673  0.9080
18120TIP3   OH275774   0.812   0.365   4.923  0.0436 -0.4673  0.3811
18120TIP3    H175775   0.816   0.279   4.965  1.2767  0.3749  2.0636
18120TIP3    H275776   0.736   0.407   4.962  0.8397  0.0887  1.3666
18121TIP3   OH275777   6.907   1.961   4.127 -0.3824  0.1215 -0.5883
18121TIP3    H175778   6.832   2.002   4.170  1.5654  1.7810  1.3446
18121TIP3    H275779   6.936   1.894   4.188 -0.0104 -0.2106 -1.1255
18122TIP3   OH275780   1.012   0.953   4.688  0.2615  0.1909 -0.2071
18122TIP3    H175781   0.964   1.023   4.732  0.9119 -0.4538  1.5659
18122TIP3    H275782   0.955   0.877   4.693 -0.6349  0.6590 -2.5257
18123TIP3   OH275783   6.240   2.763   1.517 -0.5920  0.3573 -0.3199
18123TIP3    H175784   6.167   2.778   1.457 -0.3315 -0.0741 -0.7543
18123TIP3    H275785   6.247   2.668   1.524  1.5173  0.3050 -2.3058
18124TIP3   OH275786   4.494   5.580   3.873  0.1352 -0.1904 -0.0544
18124TIP3    H175787   4.426   5.552   3.811 -0.0968  0.4935 -0.1171
18124TIP3    H275788   4.455   5.654   3.919 -0.3448 -1.7573  2.1324
18125TIP3   OH275789   7.072   4.817   4.600 -0.4485 -0.0149  0.0622
18125TIP3    H175790   7.154   4.770   4.614 -0.9504 -1.0124 -0.2976
18125TIP3    H275791   7.099   4.906   4.577  0.5459 -0.4147 -0.3479
18126TIP3   OH275792   0.320   3.047   6.089  0.2404  1.2855  0.2586
18126TIP3    H175793   0.269   3.116   6.132 -1.4256  0.5018 -0.4246
18126TIP3    H275794   0.352   2.993   6.160 -0.8654  1.1321  0.6583
18127TIP3   OH275795   0.517   3.459   3.051  0.0881 -0.7619 -0.1214
18127TIP3    H175796   0.612   3.463   3.053  0.0418  0.9627 -0.5625
18127TIP3    H275797   0.488   3.531   3.107 -0.9406  0.6293 -2.3349
18128TIP3   OH275798   5.987   2.568   5.283  0.0170  0.1784  0.1898
18128TIP3    H175799   5.897   2.536   5.277  0.1959 -0.0889 -1.1582
18128TIP3    H275800   6.028   2.512   5.349  0.3190 -2.3752 -2.0766
18129TIP3   OH275801   0.657   2.923   3.845 -0.2022 -0.2899  0.2040
18129TIP3    H175802   0.678   2.935   3.752  0.3442 -0.1098  0.3491
18129TIP3    H275803   0.711   2.989   3.890  0.3518 -1.1039  0.7335
18130TIP3   OH275804   6.197   3.054   4.268 -0.6784 -0.3039 -0.4147
18130TIP3    H175805   6.229   2.978   4.220  1.2355  1.0799 -1.3988
18130TIP3    H275806   6.254   3.060   4.344 -1.4532 -0.4085  0.1817
18131TIP3   OH275807   4.388   3.647   5.582 -0.1614  0.0648 -0.5382
18131TIP3    H175808   4.460   3.671   5.641  0.6788 -3.1506 -0.1282
18131TIP3    H275809   4.314   3.700   5.611  1.6709  2.5237 -0.1406
18132TIP3   OH275810   2.183   0.116   5.538  0.2752  0.2028 -0.5362
18132TIP3    H175811   2.111   0.066   5.500 -0.1264 -0.5824  1.2027
18132TIP3    H275812   2.144   0.200   5.562  0.0506 -0.0407 -0.0427
18133TIP3   OH275813   0.068   3.301   3.447  0.0761 -0.1091 -0.0330
18133TIP3    H175814   0.106   3.232   3.392 -0.5440 -2.1008  1.9698
18133TIP3    H275815   0.043   3.370   3.385 -0.0236 -2.0226 -2.1875
18134TIP3   OH275816   1.235   0.909   5.520  0.2662 -0.2615  0.5057
18134TIP3    H175817   1.195   0.828   5.552  0.4091 -1.0435 -1.2269
18134TIP3    H275818   1.162   0.960   5.485  0.5935 -1.1714 -1.5685
18135TIP3   OH275819   5.910   1.960   3.200 -0.1832  0.2713 -0.6507
18135TIP3    H175820   5.934   1.881   3.247 -1.8558  0.9138  1.3669
18135TIP3    H275821   5.925   2.031   3.263 -0.0177  1.4150 -1.9518
18136TIP3   OH275822   6.736   1.329   4.316 -0.0154 -0.0870  0.3450
18136TIP3    H175823   6.733   1.389   4.242 -2.6294 -0.7340 -0.1188
18136TIP3    H275824   6.786   1.254   4.285 -0.9040 -0.2546 -0.7134
18137TIP3   OH275825   4.639   3.218   4.211 -0.1990 -0.4161 -0.2003
18137TIP3    H175826   4.706   3.221   4.279  1.0127  2.2442 -1.4286
18137TIP3    H275827   4.684   3.178   4.136 -0.1821  0.7014 -0.7954
18138TIP3   OH275828   7.127   3.938   6.257  0.0655  0.3683 -0.1896
18138TIP3    H175829   7.206   3.917   6.207 -0.9407 -2.7782 -0.5760
18138TIP3    H275830   7.141   3.897   6.342 -1.1626 -0.3298 -0.3081
18139TIP3   OH275831   5.605   0.323   5.340  0.3174  0.1483 -0.2214
18139TIP3    H175832   5.599   0.287   5.252  0.8973 -0.5334  0.0058
18139TIP3    H275833   5.596   0.246   5.397  0.9033  0.4556  0.2885
18140TIP3   OH275834   6.123   0.852   4.418 -0.0902  0.3929  0.0472
18140TIP3    H175835   6.090   0.876   4.504 -0.1311 -0.0547  0.1551
18140TIP3    H275836   6.131   0.757   4.420 -0.0043  0.3864 -0.4115
18141TIP3   OH275837   6.774   3.081   2.241  0.1019  0.0465 -0.3509
18141TIP3    H175838   6.859   3.114   2.269  0.5597  0.6904 -2.4179
18141TIP3    H275839   6.742   3.029   2.315  1.9839  0.3479  0.6848
18142TIP3   OH275840   6.237   0.377   3.966  0.2906 -0.4149  0.5396
18142TIP3    H175841   6.199   0.306   4.018 -0.9876  0.9916  1.5481
18142TIP3    H275842   6.281   0.433   4.030  0.4417  0.2442 -0.1351
18143TIP3   OH275843   5.974   2.557   4.702  0.6840 -0.4080  0.3243
18143TIP3    H175844   5.971   2.524   4.791 -1.9988  1.9101  1.1866
18143TIP3    H275845   6.021   2.640   4.708  0.8389 -0.4283 -0.4903
18144TIP3   OH275846   0.443   3.914   5.862 -0.3985 -0.0662  0.2093
18144TIP3    H175847   0.533   3.889   5.843 -0.6543 -0.7240 -0.1749
18144TIP3    H275848   0.445   4.009   5.871  0.2873 -0.0565 -0.0371
18145TIP3   OH275849   0.602   1.539   3.568  0.2174  0.4223  0.4406
18145TIP3    H175850   0.625   1.572   3.655 -0.8542  1.7301  0.2375
18145TIP3    H275851   0.641   1.451   3.565  1.6303  0.9887  1.6282
18146TIP3   OH275852   0.629   1.921   5.668  0.2889 -0.3724  0.0705
18146TIP3    H175853   0.551   1.866   5.673  1.2200 -1.7844 -0.5688
18146TIP3    H275854   0.656   1.936   5.759  1.2765 -2.7995  0.1993
18147TIP3   OH275855   0.857   2.440   3.061  0.1917  0.1680 -0.3232
18147TIP3    H175856   0.791   2.470   2.999 -2.6859 -1.5301  1.7584
18147TIP3    H275857   0.901   2.368   3.016 -1.4782 -0.6847 -0.6472
18148TIP3   OH275858   0.704   4.687   3.211 -0.5216 -0.4853  0.1956
18148TIP3    H175859   0.653   4.694   3.292 -0.4045 -0.1730  0.2431
18148TIP3    H275860   0.675   4.605   3.171 -2.8047  0.8604 -0.9931
18149TIP3   OH275861   0.335   3.123   2.562 -0.1026 -0.3909 -0.1320
18149TIP3    H175862   0.278   3.097   2.634 -1.3437  1.6912 -0.3170
18149TIP3    H275863   0.388   3.194   2.599 -0.4136  0.3636 -1.1361
18150TIP3   OH275864   5.168   4.811   5.260  0.1331 -0.7289  0.1966
18150TIP3    H175865   5.206   4.878   5.317 -0.7943 -1.3548  1.5512
18150TIP3    H275866   5.119   4.754   5.318 -0.9413 -1.3003 -1.2420
18151TIP3   OH275867   0.663   3.435   6.094  0.3502 -0.5386  0.1727
18151TIP3    H175868   0.578   3.390   6.097  0.3860 -0.5322  1.3132
18151TIP3    H275869   0.705   3.414   6.177  1.5606 -0.7027 -0.4699
18152TIP3   OH275870   0.384   3.906   5.280  0.4374 -0.4153 -0.3096
18152TIP3    H175871   0.310   3.868   5.328  0.2970 -0.0522 -0.2373
18152TIP3    H275872   0.351   3.920   5.191  0.8698 -1.6094 -0.6681
18153TIP3   OH275873   6.249   3.387   5.421  0.1509 -0.4981  0.2740
18153TIP3    H175874   6.181   3.334   5.378  0.4540 -1.3543  0.8237
18153TIP3    H275875   6.205   3.468   5.446 -0.5728 -0.8865  0.2698
18154TIP3   OH275876   0.499   1.929   3.263 -0.1357 -0.2206  0.7221
18154TIP3    H175877   0.535   2.013   3.293  1.2816 -0.8720  0.9000
18154TIP3    H275878   0.576   1.874   3.249 -1.0233 -1.2949  0.0030
18155TIP3   OH275879   4.952   4.391   4.629  0.1300  0.0967  0.1009
18155TIP3    H175880   5.011   4.318   4.612 -1.1472 -0.5835 -1.4686
18155TIP3    H275881   5.005   4.453   4.680  1.9405 -0.8596 -0.5805
18156TIP3   OH275882   6.965   3.974   4.942 -0.6569 -0.5830  0.3062
18156TIP3    H175883   6.929   3.888   4.961 -0.8429 -0.2517  1.4700
18156TIP3    H275884   7.039   3.957   4.883 -0.5425 -1.5551  0.7287
18157TIP3   OH275885   6.362   4.911   5.364 -0.0145 -0.4341  0.0198
18157TIP3    H175886   6.448   4.945   5.390 -0.2552  1.1893 -1.3026
18157TIP3    H275887   6.377   4.871   5.279 -0.8974  1.3411 -0.9953
18158TIP3   OH275888   6.088   4.295   1.843  0.3506 -0.0632 -0.6178
18158TIP3    H175889   6.145   4.372   1.847  0.2897 -0.0079 -0.8072
18158TIP3    H275890   6.008   4.327   1.803  1.1810 -0.7341 -2.8977
18159TIP3   OH275891   0.328   3.030   5.619  0.0289 -0.4996 -0.2749
18159TIP3    H175892   0.418   3.027   5.586 -0.7807 -2.7197 -2.4065
18159TIP3    H275893   0.289   3.105   5.575  0.4511 -0.3491 -0.3963
18160TIP3   OH275894   0.125   4.146   2.173  0.4568  0.6312 -0.2853
18160TIP3    H175895   0.115   4.221   2.231  0.0710  0.2661  0.1236
18160TIP3    H275896   0.172   4.180   2.097 -0.6060  1.5132 -0.5484
18161TIP3   OH275897   0.804   4.440   4.553 -0.3658 -0.3627 -0.1120
18161TIP3    H175898   0.846   4.525   4.546  0.9411 -0.9559  0.3768
18161TIP3    H275899   0.734   4.442   4.487  1.2488  0.1621 -1.8335
18162TIP3   OH275900   7.204   1.618   5.825 -0.3065  0.1115 -0.0339
18162TIP3    H175901   7.174   1.541   5.776  0.0745 -1.6155  2.3555
18162TIP3    H275902   7.221   1.585   5.913 -2.1634  3.3868  1.6327
18163TIP3   OH275903   6.669   4.763   4.722  0.3174 -0.2590  0.3752
18163TIP3    H175904   6.762   4.745   4.730 -0.0085 -3.9094 -2.5521
18163TIP3    H275905   6.628   4.713   4.793  0.3656 -1.6499 -0.5476
18164TIP3   OH275906   5.213   1.947   4.787 -0.1513  0.3801 -0.1773
18164TIP3    H175907   5.185   1.958   4.696  1.4990 -2.3149 -1.0569
18164TIP3    H275908   5.141   1.900   4.829 -0.9512  1.7012 -0.0347
18165TIP3   OH275909   0.498   2.981   4.531  0.2483 -0.0994 -0.0677
18165TIP3    H175910   0.534   3.006   4.616 -0.5268 -0.5740  0.4106
18165TIP3    H275911   0.524   2.889   4.519 -0.5446 -0.3643  0.1592
18166TIP3   OH275912   6.574   3.116   3.376  0.2566 -0.1385 -0.1758
18166TIP3    H175913   6.502   3.076   3.328 -0.0575  0.1832  0.0347
18166TIP3    H275914   6.552   3.105   3.468  1.5635 -2.0575 -0.0717
18167TIP3   OH275915   4.925   1.839   4.654 -0.2136 -0.6964  0.8585
18167TIP3    H175916   4.890   1.873   4.736  0.2403 -1.3603  1.3352
18167TIP3    H275917   4.885   1.752   4.645 -1.7090  0.1103 -0.5703
18168TIP3   OH275918   0.159   0.378   5.239 -0.0341  0.3543 -0.0424
18168TIP3    H175919   0.079   0.394   5.189 -1.1012  0.4193  1.6775
18168TIP3    H275920   0.140   0.410   5.327  2.2371  1.2899  0.1349
18169TIP3   OH275921   5.061   1.583   5.193 -0.1293 -0.2339 -0.2212
18169TIP3    H175922   5.074   1.634   5.113 -0.7886  0.1444 -0.0907
18169TIP3    H275923   4.973   1.606   5.222  0.8283  1.1842  1.7190
18170TIP3   OH275924   6.598   1.266   4.593 -0.1726 -0.3814  0.1198
18170TIP3    H175925   6.659   1.336   4.569  1.6787 -2.1588 -0.5813
18170TIP3    H275926   6.578   1.281   4.685  0.4792  0.8462  0.0680
18171TIP3   OH275927   6.487   2.149   2.133 -0.0635  0.3176 -1.0523
18171TIP3    H175928   6.567   2.168   2.085  0.3657  0.2737 -0.3598
18171TIP3    H275929   6.435   2.229   2.125  0.5078  0.7442 -0.6120
18172TIP3   OH275930   5.066   4.002   5.399 -0.2033  0.2571  0.2445
18172TIP3    H175931   5.078   3.926   5.342  0.6453  0.1123  0.6072
18172TIP3    H275932   4.972   4.021   5.394 -0.0613  0.5738 -1.6114
18173TIP3   OH275933   0.800   3.041   5.645 -0.0720 -0.0112  0.5343
18173TIP3    H175934   0.821   2.996   5.727 -0.1771  0.2266  0.6907
18173TIP3    H275935   0.857   3.118   5.644  0.5421 -0.4674 -0.0237
18174TIP3   OH275936   6.306   0.324   2.923  0.5127 -0.1651 -0.6704
18174TIP3    H175937   6.345   0.400   2.880 -0.6293  2.0748  2.0767
18174TIP3    H275938   6.272   0.358   3.006 -0.6941 -3.5388  0.3134
18175TIP3   OH275939   6.584   2.567   2.756  0.6470 -0.6389  0.3823
18175TIP3    H175940   6.571   2.661   2.770  0.3033 -0.6666  0.2491
18175TIP3    H275941   6.627   2.561   2.671 -2.1742 -0.7605 -1.1232
18176TIP3   OH275942   0.003   0.222   4.584 -0.1698 -0.2883  0.0431
18176TIP3    H175943  -0.081   0.197   4.622  0.1537 -0.8822  0.3724
18176TIP3    H275944  -0.019   0.258   4.498 -0.8064  0.0270  0.3314
18177TIP3   OH275945   4.840   0.424   4.204  0.0777  0.1508 -0.0719
18177TIP3    H175946   4.781   0.488   4.243 -0.6337  0.4136 -1.5748
18177TIP3    H275947   4.783   0.364   4.156  0.8240 -1.0490  0.4991
18178TIP3   OH275948   5.670   2.559   3.766 -0.5272 -0.5687 -0.1130
18178TIP3    H175949   5.729   2.485   3.782  0.6509  0.6860  1.5809
18178TIP3    H275950   5.708   2.631   3.816 -3.3596  0.3628  0.7962
18179TIP3   OH275951   6.099   3.780   4.348 -0.3199 -0.0508  0.3746
18179TIP3    H175952   6.092   3.857   4.292 -1.1224 -0.2635  0.1810
18179TIP3    H275953   6.013   3.739   4.344 -0.0670 -0.6481  0.9280
18180TIP3   OH275954   0.167   4.040   4.523  0.0921 -0.0691 -0.4069
18180TIP3    H175955   0.193   4.079   4.440  4.3300 -1.0286  0.3833
18180TIP3    H275956   0.197   3.949   4.517  1.5709  0.1742  2.6189
18181TIP3   OH275957   5.587   2.250   3.713  0.4304 -0.5782 -0.0823
18181TIP3    H175958   5.561   2.324   3.659  0.4223  0.7054  1.6300
18181TIP3    H275959   5.505   2.201   3.726  0.4202 -0.8595 -1.1489
18182TIP3   OH275960   6.969   1.713   4.226  0.2670 -0.4483  0.4270
18182TIP3    H175961   7.057   1.698   4.261  1.0015  0.5385 -0.9501
18182TIP3    H275962   6.915   1.729   4.303  1.9472  2.2324  1.0962
18183TIP3   OH275963   7.078   2.609   3.967 -0.2728  0.4837 -0.4306
18183TIP3    H175964   7.145   2.594   3.900  0.6789 -0.1268  0.6446
18183TIP3    H275965   7.092   2.700   3.994  2.1756 -0.5589  1.9909
18184TIP3   OH275966   7.233   5.071   5.195 -0.0077 -0.0541  0.3320
18184TIP3    H175967   7.158   5.012   5.188  0.2739 -0.3383 -0.4445
18184TIP3    H275968   7.203   5.143   5.249 -1.0341  0.1361 -0.4837
18185TIP3   OH275969   0.608   2.108   4.881 -0.0311  0.5429 -0.3002
18185TIP3    H175970   0.522   2.151   4.882 -1.9756 -3.1620 -0.9046
18185TIP3    H275971   0.622   2.079   4.971 -1.4513 -2.5758 -1.0179
18186TIP3   OH275972   1.059   2.609   2.393 -0.1004 -0.5310 -0.4122
18186TIP3    H175973   1.064   2.627   2.299  0.0499 -1.1296 -0.5220
18186TIP3    H275974   0.972   2.572   2.406 -0.3452  0.1015 -0.2146
18187TIP3   OH275975   6.152   2.185   5.014 -0.0470  0.3004  0.0691
18187TIP3    H175976   6.187   2.182   4.925  0.6243 -0.9193  0.3784
18187TIP3    H275977   6.140   2.094   5.039 -2.2439  0.6633  0.4546
18188TIP3   OH275978   3.666   0.999   4.957 -0.0431  0.0694  0.5724
18188TIP3    H175979   3.666   0.909   4.989  0.1909 -0.4500 -0.8435
18188TIP3    H275980   3.624   0.993   4.871  2.1256  0.9224 -0.5743
18189TIP3   OH275981   0.144   1.789   6.030 -0.3876  0.0549  0.0749
18189TIP3    H175982   0.060   1.753   6.059 -2.1237  2.7965 -1.3163
18189TIP3    H275983   0.143   1.879   6.063  2.7970 -0.3563  1.4828
18190TIP3   OH275984   5.992   3.225   2.766 -0.8013  0.1614 -0.4442
18190TIP3    H175985   6.018   3.133   2.775 -0.8936  0.2306  0.5599
18190TIP3    H275986   6.060   3.263   2.709  0.7781  0.1067  1.3591
18191TIP3   OH275987   1.013   3.849   3.011 -0.0832 -0.3718 -0.2805
18191TIP3    H175988   0.946   3.912   2.984 -0.3192 -0.1223  0.8571
18191TIP3    H275989   0.964   3.770   3.034 -0.0994  0.1777  1.6325
18192TIP3   OH275990   6.451   0.737   4.675  0.4105 -0.6372  0.2780
18192TIP3    H175991   6.384   0.802   4.694  1.4396  0.6668 -0.4491
18192TIP3    H275992   6.402   0.660   4.646 -0.8242 -0.2126  1.1972
18193TIP3   OH275993   3.527   4.120   4.587 -0.1124  0.5966  0.4277
18193TIP3    H175994   3.432   4.124   4.595 -0.0403  0.0229  1.8562
18193TIP3    H275995   3.552   4.046   4.643  1.2819  1.6117  1.1734
18194TIP3   OH275996   7.081   0.325   3.922  0.4445 -0.8926  0.3652
18194TIP3    H175997   7.067   0.396   3.985  3.7135  2.0618 -2.0403
18194TIP3    H275998   7.029   0.351   3.846  0.7485 -1.6875 -0.1100
18195TIP3   OH275999   6.690   0.930   5.738 -0.2731 -0.1942  0.5953
18195TIP3    H176000   6.684   0.932   5.834  2.5973 -0.8973  0.8345
18195TIP3    H276001   6.782   0.951   5.719 -0.8245  0.0105 -2.0049
18196TIP3   OH276002   1.284   1.597   4.286  0.4688 -0.1172 -0.5561
18196TIP3    H176003   1.279   1.555   4.200  0.7677  1.2256 -1.2482
18196TIP3    H276004   1.378   1.599   4.306  0.3341 -1.1811  0.1840
18197TIP3   OH276005   5.434   2.137   4.411  0.7552 -0.3369  0.3909
18197TIP3    H176006   5.456   2.225   4.380  0.0475  0.1253  1.1736
18197TIP3    H276007   5.437   2.083   4.333 -2.1446  1.0228 -0.7374
18198TIP3   OH276008   5.434   1.592   4.009 -0.3259 -0.3097  0.1300
18198TIP3    H176009   5.452   1.686   4.020 -0.4443 -0.1157 -1.2685
18198TIP3    H276010   5.519   1.550   4.025  0.7276  0.3637 -3.2846
18199TIP3   OH276011   0.685   2.121   5.465 -0.3252  0.1315 -0.6335
18199TIP3    H176012   0.685   2.090   5.374 -1.2897  1.0886 -0.9579
18199TIP3    H276013   0.632   2.057   5.512 -0.8718  0.3321 -0.9777
18200TIP3   OH276014   7.293   1.469   5.518  0.0397  0.0729  0.5135
18200TIP3    H176015   7.325   1.550   5.558  0.6225  0.7328 -1.2562
18200TIP3    H276016   7.198   1.473   5.530  0.0770  0.9639  0.5374
18201TIP3   OH276017   5.821   3.700   4.651  0.5547 -0.8162 -0.2618
18201TIP3    H176018   5.768   3.628   4.686  0.6422 -1.1078 -0.7293
18201TIP3    H276019   5.834   3.758   4.726  0.6801 -1.3983  0.1754
18202TIP3   OH276020   6.261   2.303   5.653  0.4592  1.0124  0.1274
18202TIP3    H176021   6.253   2.207   5.649  0.1070  1.0592 -0.2434
18202TIP3    H276022   6.335   2.318   5.712  0.6091  0.5087  0.0663
18203TIP3   OH276023   1.377   0.687   5.087 -0.3522 -0.4087  0.0463
18203TIP3    H176024   1.447   0.683   5.022  0.7503  1.5631  1.0622
18203TIP3    H276025   1.315   0.751   5.052  0.4317  0.9429  1.0652
18204TIP3   OH276026   0.402   1.728   5.678  0.2540 -0.5307 -0.4118
18204TIP3    H176027   0.456   1.657   5.645  0.7774  0.3975 -1.5611
18204TIP3    H276028   0.312   1.702   5.655  0.6215  0.2164 -2.8251
18205TIP3   OH276029   7.089   2.731   5.376  0.7771  0.4845  0.0619
18205TIP3    H176030   7.136   2.805   5.338  1.0118  0.5208  0.4224
18205TIP3    H276031   7.140   2.706   5.453 -1.5841  2.7460  2.4894
18206TIP3   OH276032   1.121   1.604   5.710  0.4232  0.8021  0.0895
18206TIP3    H176033   1.061   1.532   5.727 -0.3996  1.3907 -0.2727
18206TIP3    H276034   1.137   1.602   5.616 -1.7089  2.6995 -0.3436
18207TIP3   OH276035   6.453   1.189   5.828 -0.3351  0.0394  0.8457
18207TIP3    H176036   6.402   1.176   5.748 -0.3487  1.9140  0.5266
18207TIP3    H276037   6.407   1.257   5.876 -1.2324 -2.1898  3.2810
18208TIP3   OH276038   7.181   2.331   6.148  0.0132 -0.1507 -0.0242
18208TIP3    H176039   7.209   2.420   6.166  0.7979 -0.6405  1.2873
18208TIP3    H276040   7.090   2.328   6.179  1.0804 -0.7398  3.2656
18209TIP3   OH276041   5.028   1.019   5.553 -0.6601 -0.3017 -0.5255
18209TIP3    H176042   5.049   0.988   5.642 -0.4660 -2.2142 -1.2107
18209TIP3    H276043   5.111   1.051   5.519 -1.0936  2.1284  0.6091
18210TIP3   OH276044   4.440   3.263   5.092  0.2651  0.2426 -0.5923
18210TIP3    H176045   4.460   3.184   5.142  0.1653 -1.3700 -3.0100
18210TIP3    H276046   4.353   3.290   5.122 -0.2587 -1.3212 -0.6685
18211TIP3   OH276047   6.514   1.182   3.186 -0.0305  1.0580 -0.4177
18211TIP3    H176048   6.448   1.209   3.122 -1.5526 -1.0465  0.1854
18211TIP3    H276049   6.549   1.100   3.151  1.5506  1.6218 -0.2050
18212TIP3   OH276050   5.142   4.298   5.358  0.2927  0.0676 -0.1586
18212TIP3    H176051   5.154   4.208   5.388 -0.6007  0.3198  1.0283
18212TIP3    H276052   5.047   4.306   5.346  0.4933  0.4510 -1.5832
18213TIP3   OH276053   6.769   3.076   2.982 -0.2388  0.1078 -0.3877
18213TIP3    H176054   6.858   3.083   2.947  0.3434  1.2661  1.2440
18213TIP3    H276055   6.738   3.166   2.985 -1.5128 -0.3021 -1.0228
18214TIP3   OH276056   7.283   2.130   5.960 -0.3866 -0.1547  0.1517
18214TIP3    H176057   7.375   2.107   5.976 -0.6529 -1.4689 -0.1582
18214TIP3    H276058   7.267   2.204   6.018  0.8144 -0.0423  0.3613
18215TIP3   OH276059   0.784   3.356   5.847  0.6813  0.3604  0.7557
18215TIP3    H176060   0.739   3.371   5.930  0.7290 -1.2270  1.0879
18215TIP3    H276061   0.840   3.433   5.836  0.5028  0.6973  2.0812
18216TIP3   OH276062   6.167   1.876   2.699 -0.0109  0.1430  0.1636
18216TIP3    H176063   6.147   1.969   2.696  1.3309  0.6051  3.5990
18216TIP3    H276064   6.208   1.858   2.614  1.2226  3.0255  0.0967
18217TIP3   OH276065   6.801   1.514   1.538 -0.0964 -0.2931 -0.0143
18217TIP3    H176066   6.795   1.439   1.478  3.0065  0.8024 -1.8185
18217TIP3    H276067   6.761   1.586   1.490  2.0244  0.4908 -0.6594
18218TIP3   OH276068   0.275   3.559   5.552 -0.2483 -0.8147 -0.1168
18218TIP3    H176069   0.370   3.567   5.554 -0.4944  2.3933  0.2940
18218TIP3    H276070   0.253   3.558   5.458  0.0543  0.5732 -0.2124
18219TIP3   OH276071   0.088   4.590   5.207  0.6942  0.8365  0.4414
18219TIP3    H176072   0.013   4.590   5.266  1.0558  3.0114  0.9239
18219TIP3    H276073   0.146   4.657   5.242  3.0894 -1.0940  0.3311
18220TIP3   OH276074   0.030   3.937   5.690  0.8688 -0.1775 -0.1444
18220TIP3    H176075   0.108   3.907   5.644  2.2610  0.8054  1.5325
18220TIP3    H276076   0.062   3.966   5.776 -1.6160 -1.7810  1.4125
18221TIP3   OH276077   6.380   1.622   5.907  0.7425  0.1022  0.3440
18221TIP3    H176078   6.392   1.674   5.986 -1.3833  2.2058 -0.6698
18221TIP3    H276079   6.397   1.532   5.934 -0.5741  0.7108  3.3194
18222TIP3   OH276080   0.981   2.931   1.871  0.1380 -0.7816 -0.0281
18222TIP3    H176081   1.035   2.900   1.944 -0.3051  0.7171  0.9551
18222TIP3    H276082   1.013   3.020   1.854  1.8015 -1.8934 -3.1916
18223TIP3   OH276083   6.079   2.811   5.250  0.4754  0.1123 -0.6332
18223TIP3    H176084   6.036   2.727   5.266  1.1882 -0.1905 -0.2953
18223TIP3    H276085   6.018   2.876   5.284  0.3069 -0.3188 -0.1046
18224TIP3   OH276086   6.413   0.200   5.129  0.1616  0.0829 -0.0583
18224TIP3    H176087   6.372   0.278   5.091  0.1197 -0.4111 -1.0439
18224TIP3    H276088   6.365   0.127   5.090  1.8580 -0.4971 -1.0704
18225TIP3   OH276089   6.238   2.009   3.423 -0.1516 -0.1607  0.5007
18225TIP3    H176090   6.258   1.916   3.426  0.6218 -0.0749 -1.4769
18225TIP3    H276091   6.275   2.040   3.340 -2.1379  1.4913  0.1591
18226TIP3   OH276092   6.489   2.084   5.757  0.0395  0.2831 -0.1379
18226TIP3    H176093   6.549   2.159   5.761  0.6397 -0.0841 -1.8986
18226TIP3    H276094   6.542   2.009   5.785 -0.7143  0.5604  2.1803
18227TIP3   OH276095   5.388   6.976   5.046  0.1316  0.2996  0.1882
18227TIP3    H176096   5.432   6.891   5.038  0.5488  0.5885 -0.7144
18227TIP3    H276097   5.295   6.954   5.054  0.2018 -0.2316 -0.4108
18228TIP3   OH276098   6.116   5.061   5.334  0.4497  0.1734 -0.4926
18228TIP3    H176099   6.180   5.001   5.373 -1.6963 -2.0116 -0.2048
18228TIP3    H276100   6.140   5.147   5.368  1.5643 -1.0044  1.8210
18229TIP3   OH276101   6.060   3.924   6.112  0.3748 -0.4021  0.3780
18229TIP3    H176102   5.964   3.922   6.119  0.3779 -1.5814  0.2134
18229TIP3    H276103   6.079   4.011   6.077 -0.7951 -0.9084 -1.6322
18230TIP3   OH276104   0.246   3.635   3.849  0.2511  1.0832  0.4200
18230TIP3    H176105   0.210   3.586   3.923  1.0546  1.4117  1.0327
18230TIP3    H276106   0.169   3.669   3.803 -0.2311  2.0614  1.9069
18231TIP3   OH276107   6.403   4.701   3.875 -0.7856  0.0788 -0.0118
18231TIP3    H176108   6.403   4.692   3.970 -0.8807  2.3076  0.2214
18231TIP3    H276109   6.311   4.700   3.850 -0.7521 -0.7298 -0.1063
18232TIP3   OH276110   4.472   4.440   4.116  0.7595  0.9131 -0.1120
18232TIP3    H176111   4.514   4.524   4.134  0.6485  1.4202 -2.1144
18232TIP3    H276112   4.392   4.462   4.070  0.3513 -0.2699  0.0034
18233TIP3   OH276113   6.244   5.130   5.083  0.4438 -0.1788 -0.5943
18233TIP3    H176114   6.181   5.099   5.148  0.7447  0.7886  0.1823
18233TIP3    H276115   6.229   5.075   5.007 -0.6862 -0.5968 -0.0901
18234TIP3   OH276116   6.021   4.748   4.976 -0.3513  0.1745 -0.4583
18234TIP3    H176117   6.001   4.786   5.061  0.7772  0.9850 -0.5546
18234TIP3    H276118   5.936   4.744   4.931 -1.0487 -0.8595  0.9337
18235TIP3   OH276119   6.021   4.644   4.533  0.6528 -0.3194 -0.5130
18235TIP3    H176120   5.930   4.630   4.508  0.5969 -0.3764 -0.2748
18235TIP3    H276121   6.018   4.717   4.594  0.8243  0.0274 -0.9140
18236TIP3   OH276122   0.253   4.486   5.008  0.6022  0.2038 -0.3027
18236TIP3    H176123   0.321   4.504   5.073  0.4055 -0.4680  0.0922
18236TIP3    H276124   0.171   4.496   5.057  0.2820  3.7748 -1.4160
18237TIP3   OH276125   7.180   3.681   3.404  0.9704 -0.2662 -0.3652
18237TIP3    H176126   7.262   3.633   3.401  0.2453 -1.4428 -1.5616
18237TIP3    H276127   7.184   3.741   3.329  0.6338 -0.4963 -0.5677
18238TIP3   OH276128   5.232   2.436   4.019 -0.6287 -0.1919 -0.5835
18238TIP3    H176129   5.321   2.415   4.046  0.0731  1.5855 -1.4746
18238TIP3    H276130   5.194   2.351   3.995  0.7589 -0.9739 -0.0836
18239TIP3   OH276131   2.777   4.644   5.199  0.1297  0.2250  0.0229
18239TIP3    H176132   2.719   4.648   5.275  0.1017  2.5050 -0.0717
18239TIP3    H276133   2.727   4.599   5.132 -1.5310  2.1191 -0.0423
18240TIP3   OH276134   7.211   0.934   3.907  0.0059 -0.5178 -0.2536
18240TIP3    H176135   7.284   0.941   3.844 -0.3494 -0.2071 -0.6353
18240TIP3    H276136   7.253   0.906   3.989  0.5425 -0.4409 -0.4969
18241TIP3   OH276137   5.720   3.594   5.262 -0.2417  0.1326 -0.1820
18241TIP3    H176138   5.782   3.638   5.320  0.4794 -0.8945 -0.1710
18241TIP3    H276139   5.762   3.597   5.176 -0.0330 -0.8358 -0.1181
18242TIP3   OH276140   7.122   0.820   3.674  0.7383 -0.2140 -0.7115
18242TIP3    H176141   7.065   0.892   3.646  1.8052  0.1639 -1.9215
18242TIP3    H276142   7.152   0.847   3.761 -1.9259 -1.0164  0.5212
18243TIP3   OH276143   6.927   2.435   2.384 -0.0181  0.6108  0.5454
18243TIP3    H176144   6.908   2.462   2.294 -1.3443 -1.4536  0.1888
18243TIP3    H276145   6.850   2.462   2.434 -0.6715 -1.0255  0.4642
18244TIP3   OH276146   4.974   0.842   5.186  0.1120 -0.0729 -0.5049
18244TIP3    H176147   5.047   0.880   5.138  2.2204 -0.5906  2.1573
18244TIP3    H276148   4.923   0.917   5.216  1.0127  0.4128 -0.1746
18245TIP3   OH276149   0.281   1.821   2.885  0.0622  0.2377 -0.4130
18245TIP3    H176150   0.227   1.744   2.868 -0.7423  1.1346 -2.0100
18245TIP3    H276151   0.227   1.875   2.943 -0.8620  1.1886 -2.1034
18246TIP3   OH276152   1.266   3.588   4.551  0.2480 -0.5038 -0.6841
18246TIP3    H176153   1.241   3.552   4.636 -0.7487  2.6343  0.4165
18246TIP3    H276154   1.341   3.644   4.570  1.0417 -1.0243 -2.1664
18247TIP3   OH276155   4.561   1.419   4.868 -0.9415 -0.0030  0.3167
18247TIP3    H176156   4.526   1.330   4.865 -0.5357 -0.1942  1.0765
18247TIP3    H276157   4.484   1.476   4.869 -1.1985 -0.3073 -1.0586
18248TIP3   OH276158   5.312   1.568   2.029 -0.0676  0.1741 -0.2126
18248TIP3    H176159   5.298   1.534   1.941 -0.7558  3.2587 -1.3513
18248TIP3    H276160   5.360   1.650   2.016  1.8157 -0.4464  2.4377
18249TIP3   OH276161   6.551   1.065   4.394 -0.2988 -0.2580  0.1378
18249TIP3    H176162   6.455   1.063   4.388 -0.3176 -2.4179  0.9531
18249TIP3    H276163   6.569   1.134   4.458 -1.2962 -0.0248  0.1876
18250TIP3   OH276164   0.332   3.383   2.282  0.0996  0.3839  0.3758
18250TIP3    H176165   0.275   3.385   2.205 -1.0914 -0.0092  1.2340
18250TIP3    H276166   0.410   3.335   2.253  0.4232  1.7411 -1.0883
18251TIP3   OH276167   6.948   1.218   4.917 -0.0228 -0.0255 -0.0333
18251TIP3    H176168   6.853   1.227   4.930 -0.7639 -3.3841 -2.5351
18251TIP3    H276169   6.966   1.275   4.842 -0.8738 -2.6070 -2.2579
18252TIP3   OH276170   6.335   1.830   6.095  0.4161 -0.7743 -0.5283
18252TIP3    H176171   6.407   1.892   6.087 -0.2905 -0.0026 -1.0817
18252TIP3    H276172   6.344   1.793   6.183  0.1847  0.9633  0.2598
18253TIP3   OH276173   5.853   2.281   5.398  0.8288 -0.1005  0.6716
18253TIP3    H176174   5.784   2.219   5.420  0.7931 -0.1289  0.4842
18253TIP3    H276175   5.877   2.259   5.308  1.0696 -0.0805  0.7301
18254TIP3   OH276176   0.622   2.352   5.988 -0.3838  0.2808  0.1732
18254TIP3    H176177   0.654   2.394   6.068 -2.5738  0.1824  1.1329
18254TIP3    H276178   0.696   2.356   5.927  0.9003  1.4621  1.7820
18255TIP3   OH276179   0.706   4.221   5.557  0.4678 -0.0805 -0.2608
18255TIP3    H176180   0.741   4.211   5.646 -0.4359 -0.1701  0.0982
18255TIP3    H276181   0.641   4.150   5.549  0.6213 -0.1367 -1.0297
18256TIP3   OH276182   1.547   5.536   3.538 -0.4312 -0.3143  0.5231
18256TIP3    H176183   1.639   5.561   3.535 -0.1981 -1.1215  0.7410
18256TIP3    H276184   1.544   5.466   3.604 -1.1519 -0.4639  0.3286
18257TIP3   OH276185   0.122   4.869   5.316  0.1784  0.2433  0.3941
18257TIP3    H176186   0.037   4.895   5.279 -0.1470 -1.1117  0.1660
18257TIP3    H276187   0.183   4.875   5.242  0.1144  0.3933  0.3538
18258TIP3   OH276188   6.249   4.220   4.512 -0.0013  0.0218 -0.4744
18258TIP3    H176189   6.311   4.261   4.572  0.1300 -1.4365  0.3965
18258TIP3    H276190   6.191   4.292   4.486  0.0026  0.7035  1.3153
18259TIP3   OH276191   1.196   5.908   4.288  0.2237 -0.2165  0.8059
18259TIP3    H176192   1.111   5.939   4.257  1.6710  2.0597 -1.1244
18259TIP3    H276193   1.219   5.966   4.360  0.2381 -0.6802  1.1779
18260TIP3   OH276194   1.466   5.765   5.064 -0.5704 -0.3098 -0.1615
18260TIP3    H176195   1.543   5.719   5.099 -0.2852 -0.3489 -0.8242
18260TIP3    H276196   1.462   5.737   4.973  0.3690  1.9963 -0.9480
18261TIP3   OH276197   5.959   3.169   3.379  0.3882 -0.3895 -0.0139
18261TIP3    H176198   5.975   3.235   3.312 -0.3719  0.7565  0.9252
18261TIP3    H276199   5.917   3.217   3.451 -0.0640 -1.8662  0.7207
18262TIP3   OH276200   0.054   4.002   5.155 -0.2337  0.1826 -0.1752
18262TIP3    H176201  -0.002   3.997   5.077 -0.5541  4.1226 -0.2972
18262TIP3    H276202  -0.001   4.046   5.220  2.1289  2.6220  0.2380
18263TIP3   OH276203   1.583   4.355   5.194  0.1644  0.5047 -0.3982
18263TIP3    H176204   1.514   4.295   5.222 -1.2103  2.2817  0.1316
18263TIP3    H276205   1.543   4.442   5.199  2.1679  1.5005 -0.9479
18264TIP3   OH276206   2.013   3.909   3.537  0.1745  0.5823  0.0618
18264TIP3    H176207   2.096   3.932   3.578  1.8037 -2.3640 -1.4071
18264TIP3    H276208   1.947   3.934   3.602  2.3725  0.4689  2.4489
18265TIP3   OH276209   2.150   1.662   5.113 -0.4519 -0.4755 -0.0302
18265TIP3    H176210   2.242   1.686   5.097 -0.3463  0.3074  1.6443
18265TIP3    H276211   2.100   1.735   5.076 -0.3006  0.1627  0.9983
18266TIP3   OH276212   1.057   5.421   4.644 -0.1704  0.3205 -0.3821
18266TIP3    H176213   1.097   5.508   4.648  1.5998 -0.4362 -1.2295
18266TIP3    H276214   1.071   5.384   4.731  1.1408  0.0036 -0.7141
18267TIP3   OH276215   6.410   3.044   5.837 -0.2150  0.5465 -0.0297
18267TIP3    H176216   6.373   3.064   5.923 -3.4949  0.0244 -1.2560
18267TIP3    H276217   6.418   2.949   5.835  1.2815  0.6574  0.2403
18268TIP3   OH276218   7.106   3.181   4.487 -0.6960  0.1072  0.4775
18268TIP3    H176219   7.077   3.189   4.577 -0.0106  0.9456  0.6381
18268TIP3    H276220   7.026   3.182   4.435 -1.0672  0.0976  1.0517
18269TIP3   OH276221   1.506   6.834   4.111 -0.4353  0.3420  0.3941
18269TIP3    H176222   1.541   6.904   4.056 -1.7997  0.4247 -0.3903
18269TIP3    H276223   1.450   6.879   4.174 -0.5411  0.0613  0.5011
18270TIP3   OH276224   1.168   6.038   4.898  0.3482  0.7464  0.1718
18270TIP3    H176225   1.097   6.099   4.879 -0.7110 -0.1944  1.0061
18270TIP3    H276226   1.244   6.093   4.915 -0.3521  1.7872 -0.0427
18271TIP3   OH276227   0.702   5.892   4.206 -0.1585 -0.5284  0.3426
18271TIP3    H176228   0.613   5.911   4.176  0.7704 -0.9598 -2.9284
18271TIP3    H276229   0.734   5.825   4.145  1.8530 -1.5316  2.4295
18272TIP3   OH276230   1.448   3.751   6.156 -0.5448 -0.4391  0.6619
18272TIP3    H176231   1.434   3.657   6.170 -1.6055 -0.2785  0.7552
18272TIP3    H276232   1.363   3.791   6.174 -0.6446  0.3206 -1.3201
18273TIP3   OH276233   2.869   5.297   4.231  0.1572  0.3195 -0.1534
18273TIP3    H176234   2.841   5.328   4.145 -0.0507 -2.1026 -1.0031
18273TIP3    H276235   2.952   5.342   4.246 -0.5965  2.0121 -0.8644
18274TIP3   OH276236   1.941   0.017   5.964 -0.2360  0.4242 -0.2449
18274TIP3    H176237   2.015  -0.043   5.978 -1.1093 -0.7342 -0.4985
18274TIP3    H276238   1.900   0.026   6.050  0.9503  2.1008  0.1701
18275TIP3   OH276239   0.786   6.546   4.519  0.5714  0.1657 -0.4288
18275TIP3    H176240   0.750   6.615   4.463 -0.0384 -0.3882 -0.7260
18275TIP3    H276241   0.859   6.510   4.469  0.7193  0.4155 -0.3917
18276TIP3   OH276242   6.137   3.347   4.606  0.0538  0.4947 -0.3523
18276TIP3    H176243   6.056   3.297   4.594  0.5748  0.1318 -2.6749
18276TIP3    H276244   6.115   3.435   4.576  0.8069  0.1114 -2.1070
18277TIP3   OH276245   1.061   5.797   5.538  0.1086  0.5292 -0.1047
18277TIP3    H176246   1.062   5.715   5.587 -0.2452 -0.2579 -1.3999
18277TIP3    H276247   0.992   5.849   5.580  0.3016  0.1622  0.6891
18278TIP3   OH276248   1.399   4.805   3.706 -0.4127 -0.3491  0.0613
18278TIP3    H176249   1.319   4.774   3.664  0.7805 -2.7939 -0.4784
18278TIP3    H276250   1.392   4.774   3.796 -1.1833  1.5794  0.6975
18279TIP3   OH276251   2.683   4.299   5.678  0.1296  0.6055 -0.6799
18279TIP3    H176252   2.706   4.213   5.711 -1.5192  0.1076 -0.7723
18279TIP3    H276253   2.654   4.283   5.588  0.4084  1.3415 -0.9073
18280TIP3   OH276254   2.827   2.623   5.814  0.4237 -0.1778 -0.2921
18280TIP3    H176255   2.822   2.579   5.899 -0.6269 -0.4503 -0.4917
18280TIP3    H276256   2.896   2.689   5.826  0.9343 -0.8402  0.4801
18281TIP3   OH276257   6.906   2.401   5.150  0.0910  0.2929  0.6047
18281TIP3    H176258   6.909   2.460   5.074 -1.0014  0.1019  0.4113
18281TIP3    H276259   6.918   2.313   5.113 -0.7926  0.1686  0.6162
18282TIP3   OH276260   1.061   0.705   5.512 -0.1707 -0.2618 -0.5910
18282TIP3    H176261   0.966   0.689   5.513  0.1369 -2.1433 -0.4837
18282TIP3    H276262   1.100   0.621   5.538  1.4780  0.9381  0.9348
18283TIP3   OH276263   1.709   0.678   2.777 -0.2733 -0.1578  0.5615
18283TIP3    H176264   1.751   0.728   2.707 -0.7321 -1.0291 -0.3501
18283TIP3    H276265   1.674   0.600   2.733 -0.2471 -0.8898  1.8283
18284TIP3   OH276266   2.504   6.014   5.647  0.4045  0.2980  0.4409
18284TIP3    H176267   2.593   5.982   5.633 -1.2084 -3.7757 -1.2703
18284TIP3    H276268   2.468   5.957   5.715 -1.6235  0.3636 -0.5308
18285TIP3   OH276269   1.157   1.215   4.560  0.6034 -0.2052 -0.2150
18285TIP3    H176270   1.065   1.240   4.558  0.2993 -1.3035 -0.3106
18285TIP3    H276271   1.204   1.298   4.573 -0.3070  0.5425 -1.5508
18286TIP3   OH276272   1.892   6.427   4.484  0.1751  0.0257 -0.0428
18286TIP3    H176273   1.816   6.368   4.487  0.9679 -0.9454  1.8947
18286TIP3    H276274   1.932   6.419   4.571  0.6994  2.9133  0.0285
18287TIP3   OH276275   7.153   3.292   5.260  0.1263  0.0944  0.0417
18287TIP3    H176276   7.212   3.264   5.330  0.8915  1.1248 -0.1754
18287TIP3    H276277   7.071   3.311   5.304  0.8353  1.5086  0.8057
18288TIP3   OH276278   1.586   5.166   4.632  0.1494  0.3654 -0.0735
18288TIP3    H176279   1.534   5.094   4.596  0.2560  0.0772  0.3378
18288TIP3    H276280   1.632   5.203   4.557  1.4659 -1.1275 -0.0458
18289TIP3   OH276281   0.549   5.618   4.500  0.1131  0.1340 -0.1181
18289TIP3    H176282   0.560   5.704   4.539 -1.9075  0.0933  0.6334
18289TIP3    H276283   0.549   5.635   4.405  0.1145  0.9167  0.0164
18290TIP3   OH276284   7.228   5.694   3.913  0.4275 -0.0996  0.2583
18290TIP3    H176285   7.147   5.652   3.941  1.3383 -2.1288 -0.0382
18290TIP3    H276286   7.284   5.692   3.990  0.9293 -0.6141 -0.1102
18291TIP3   OH276287   4.833   6.159   4.404 -0.0686  0.7066  0.6025
18291TIP3    H176288   4.835   6.111   4.322  0.3137 -0.5435  1.3279
18291TIP3    H276289   4.923   6.186   4.419 -0.0790  0.6632  0.7510
18292TIP3   OH276290   0.378   6.061   4.825  0.0066  0.3998 -0.1208
18292TIP3    H176291   0.470   6.060   4.851 -0.3802 -1.4057  1.2393
18292TIP3    H276292   0.337   6.125   4.885 -0.2146 -1.1676  1.4350
18293TIP3   OH276293   2.706   5.520   4.447 -0.4963 -0.0020  0.4796
18293TIP3    H176294   2.616   5.495   4.427  0.2436 -0.9351 -1.9378
18293TIP3    H276295   2.712   5.612   4.421  0.0097 -0.7621 -2.3357
18294TIP3   OH276296   1.896   3.522   4.691 -0.4225  0.4168 -0.1503
18294TIP3    H176297   1.891   3.427   4.690  2.2303  0.2380  0.8737
18294TIP3    H276298   1.843   3.549   4.766  0.0747 -0.3302  0.4652
18295TIP3   OH276299   0.838   4.064   2.920 -0.0702  0.0384 -0.5746
18295TIP3    H176300   0.820   4.079   2.827 -2.6533  1.1816  0.0665
18295TIP3    H276301   0.752   4.068   2.962  1.2381  1.3290  2.0996
18296TIP3   OH276302   1.193   5.025   4.695 -0.3149 -0.3199 -0.2280
18296TIP3    H176303   1.154   5.100   4.651  0.0401 -0.0716 -0.1170
18296TIP3    H276304   1.274   5.008   4.648 -0.2677 -0.4737 -0.0938
18297TIP3   OH276305   6.860   1.990   4.817  0.2083  0.5135  0.3276
18297TIP3    H176306   6.813   1.965   4.737 -0.0324  0.2522  0.5496
18297TIP3    H276307   6.820   1.937   4.886 -0.6026  1.8176  0.8798
18298TIP3   OH276308   7.042   3.495   3.958  0.2887  0.4093 -0.8967
18298TIP3    H176309   7.099   3.424   3.928  0.4400  0.3503 -0.4715
18298TIP3    H276310   7.041   3.557   3.885  0.9317  0.4242 -0.8999
18299TIP3   OH276311   2.290   4.047   5.701  0.2624 -0.1269 -0.4124
18299TIP3    H176312   2.314   4.065   5.792 -1.1809  1.3805 -0.3062
18299TIP3    H276313   2.270   3.953   5.700  1.2723 -0.3580  0.5910
18300TIP3   OH276314   7.212   0.934   4.350  0.6218  0.1425 -0.1039
18300TIP3    H176315   7.287   0.916   4.293  0.7858  1.2400 -0.2373
18300TIP3    H276316   7.159   0.997   4.302 -0.3180 -0.5131  0.0586
18301TIP3   OH276317   0.645   5.052   5.516  0.0253 -0.1480 -0.5159
18301TIP3    H176318   0.671   5.099   5.595  0.7898 -1.1179 -0.1737
18301TIP3    H276319   0.711   4.983   5.507  0.7149  0.7619 -2.7431
18302TIP3   OH276320   1.517   4.053   3.748 -0.3874 -0.2327  0.8646
18302TIP3    H176321   1.532   3.992   3.820 -0.2549  0.0076  1.0420
18302TIP3    H276322   1.604   4.067   3.710 -0.7473 -1.9465 -0.6382
18303TIP3   OH276323   0.217   6.598   3.186 -0.1747 -0.6709 -0.3051
18303TIP3    H176324   0.192   6.654   3.113  0.2045  2.6548  1.9971
18303TIP3    H276325   0.142   6.603   3.246  1.2883  0.2017  1.4978
18304TIP3   OH276326   2.630   4.288   2.554  0.2530 -0.3041  0.2253
18304TIP3    H176327   2.607   4.380   2.567 -0.5321 -0.3913 -0.4809
18304TIP3    H276328   2.617   4.273   2.460  0.7507 -1.0305  0.2673
18305TIP3   OH276329   1.329   4.135   3.543 -0.1355  0.6840  0.2268
18305TIP3    H176330   1.402   4.113   3.485 -1.8026 -0.2526 -1.6008
18305TIP3    H276331   1.359   4.111   3.631  1.5107 -0.2938 -0.5773
18306TIP3   OH276332   1.429   5.540   4.781  0.3161 -0.1926  0.1620
18306TIP3    H176333   1.469   5.464   4.823  0.7984 -0.2290 -0.3637
18306TIP3    H276334   1.498   5.575   4.724 -0.2790 -0.0382 -0.4664
18307TIP3   OH276335   2.062   5.052   6.090 -0.1432  0.6783  0.0332
18307TIP3    H176336   2.019   5.136   6.105 -2.2253 -0.4796  0.8313
18307TIP3    H276337   2.017   5.015   6.014  1.9513  1.0311 -1.4082
18308TIP3   OH276338   1.441   3.808   4.250 -0.0687 -0.1582 -0.3738
18308TIP3    H176339   1.466   3.787   4.160 -0.4368  0.6318 -0.6636
18308TIP3    H276340   1.427   3.722   4.291 -0.1990 -0.5185 -1.1484
18309TIP3   OH276341   7.151   5.076   4.529  0.6637  0.3290 -0.8701
18309TIP3    H176342   7.116   5.152   4.482  1.5787  0.1575 -1.8549
18309TIP3    H276343   7.183   5.112   4.612  0.3278  0.8803 -0.9728
18310TIP3   OH276344   1.744   3.055   5.245  0.1791 -0.5628  0.0487
18310TIP3    H176345   1.835   3.060   5.214 -0.1769 -1.1330 -1.1242
18310TIP3    H276346   1.743   3.107   5.325  1.5783 -0.6625  0.1474
18311TIP3   OH276347   1.356   4.206   5.258  0.5668 -0.2191  0.7812
18311TIP3    H176348   1.273   4.211   5.210  1.1595 -0.4253 -0.2729
18311TIP3    H276349   1.375   4.113   5.263  0.0336 -0.2639  2.2636
18312TIP3   OH276350   2.146   6.391   5.408 -0.5863 -0.9705 -0.1758
18312TIP3    H176351   2.194   6.317   5.444  0.4542 -0.3119 -0.1878
18312TIP3    H276352   2.186   6.406   5.322  0.8016  1.0615  0.7802
18313TIP3   OH276353   0.820   1.944   4.820 -0.8161  0.0889  0.8146
18313TIP3    H176354   0.771   1.863   4.837 -2.6984  1.3199  1.4599
18313TIP3    H276355   0.752   2.011   4.811  0.7219  1.6297  0.4023
18314TIP3   OH276356   0.554   4.522   3.934 -0.0954 -0.0628  0.5815
18314TIP3    H176357   0.494   4.453   3.909 -1.0616 -0.0899  2.8068
18314TIP3    H276358   0.641   4.482   3.931 -0.3729 -0.5681 -0.7946
18315TIP3   OH276359   5.109   3.820   4.209 -0.1232  0.1284  0.1398
18315TIP3    H176360   5.022   3.792   4.180  0.0347  0.3590 -0.5664
18315TIP3    H276361   5.093   3.867   4.291 -0.5692 -0.5682  0.4488
18316TIP3   OH276362   1.731   3.744   4.480 -0.1286 -0.2819 -0.3179
18316TIP3    H176363   1.804   3.763   4.538 -0.9955  0.8936  0.4134
18316TIP3    H276364   1.772   3.707   4.402  1.3924  1.6886 -0.5051
18317TIP3   OH276365   0.743   4.317   5.835 -0.5552  0.5028  0.2926
18317TIP3    H176366   0.837   4.302   5.845 -0.9130 -2.2922 -0.3025
18317TIP3    H276367   0.736   4.412   5.819  2.1591  0.7220  0.1597
18318TIP3   OH276368   6.165   4.188   3.067 -0.6671 -0.7387  0.2530
18318TIP3    H176369   6.110   4.206   2.991 -1.7711 -2.8450  0.5119
18318TIP3    H276370   6.104   4.183   3.140  0.3045  0.5033  1.1791
18319TIP3   OH276371   6.541   5.144   5.571 -0.1144 -0.0144 -0.3806
18319TIP3    H176372   6.584   5.106   5.648 -0.3382  0.4843 -0.0126
18319TIP3    H276373   6.460   5.181   5.604 -0.1890  0.2453 -0.8483
18320TIP3   OH276374   0.935   4.438   5.320  0.2810 -0.1422  0.2263
18320TIP3    H176375   0.953   4.348   5.294  0.4592 -0.6486  2.0404
18320TIP3    H276376   0.840   4.441   5.335  0.4118 -0.2663  1.0684
18321TIP3   OH276377   0.589   3.262   5.044 -0.2746  0.3765 -0.0812
18321TIP3    H176378   0.644   3.334   5.012  0.4976  0.1225  0.6816
18321TIP3    H276379   0.509   3.269   4.991 -0.0354  1.5307 -0.3103
18322TIP3   OH276380   2.019   4.278   4.874 -0.5641 -0.7565  1.0017
18322TIP3    H176381   2.037   4.271   4.968 -0.6198 -1.4621  0.9649
18322TIP3    H276382   1.925   4.292   4.867 -0.8570 -2.5456  0.9933
18323TIP3   OH276383   1.179   4.822   5.046 -0.1386 -0.2074  0.6334
18323TIP3    H176384   1.245   4.758   5.072 -0.8797 -0.7147  1.2668
18323TIP3    H276385   1.223   4.907   5.056  1.1075 -0.6362 -0.9876
18324TIP3   OH276386   2.348   5.236   1.818  0.1126 -0.0024  0.2146
18324TIP3    H176387   2.317   5.207   1.733  2.4855 -0.9644 -0.3718
18324TIP3    H276388   2.441   5.211   1.819  0.9063  2.8559  1.8102
18325TIP3   OH276389   7.157   4.732   5.603  0.5202 -0.6786 -0.2267
18325TIP3    H176390   7.234   4.713   5.656  0.8326  0.7429 -0.1517
18325TIP3    H276391   7.085   4.735   5.665  0.5293 -1.2028 -0.1884
18326TIP3   OH276392   2.520   5.564   4.751 -0.0883  0.7215 -0.3638
18326TIP3    H176393   2.457   5.554   4.679  1.6742 -2.7576 -1.5807
18326TIP3    H276394   2.470   5.544   4.830 -0.7478 -1.2253 -1.2415
18327TIP3   OH276395   4.068   4.857   4.736 -0.0306 -0.0325  0.0519
18327TIP3    H176396   3.977   4.849   4.763  0.4522  1.6054  2.2768
18327TIP3    H276397   4.064   4.890   4.646 -1.6300 -0.7508 -0.1474
18328TIP3   OH276398   6.638   3.971   4.039 -0.0691  0.1823  0.2252
18328TIP3    H176399   6.675   3.940   3.956 -1.7502 -0.2790 -0.3741
18328TIP3    H276400   6.594   3.894   4.075 -0.9749  0.8755  0.6058
18329TIP3   OH276401   1.614   6.335   4.986  0.0925  0.1676 -0.6400
18329TIP3    H176402   1.554   6.383   4.929 -0.8862 -0.4495 -0.1510
18329TIP3    H276403   1.601   6.243   4.961  0.2072 -0.0400  0.0662
18330TIP3   OH276404   0.290   5.211   6.090 -0.3334  0.4449 -0.4689
18330TIP3    H176405   0.219   5.246   6.145 -0.9664  0.7644 -1.4701
18330TIP3    H276406   0.340   5.155   6.149 -0.4215  1.5472  0.6938
18331TIP3   OH276407   0.875   4.840   3.038 -0.0289 -0.0590  0.5293
18331TIP3    H176408   0.833   4.783   3.102 -0.7053  1.2080  1.2314
18331TIP3    H276409   0.939   4.784   2.994  0.4006 -0.9665  2.2639
18332TIP3   OH276410   6.544   5.033   2.586 -0.1714 -0.2926 -0.6777
18332TIP3    H176411   6.506   5.078   2.662 -1.4208  1.3040 -2.2023
18332TIP3    H276412   6.468   4.997   2.540  0.6317 -1.7797 -0.8601
18333TIP3   OH276413   5.610   4.339   5.153  0.3662 -0.3152  0.0161
18333TIP3    H176414   5.627   4.420   5.200  0.5947 -0.4831  0.2267
18333TIP3    H276415   5.685   4.329   5.095  1.7603 -1.8150  1.9959
18334TIP3   OH276416   1.861   5.119   3.543  0.2190 -0.4250  0.0206
18334TIP3    H176417   1.918   5.194   3.561  0.0345 -0.5666  1.2216
18334TIP3    H276418   1.832   5.132   3.452  0.8432  0.5214 -0.0469
18335TIP3   OH276419   1.731   4.276   5.405 -0.2977 -0.0609  0.1830
18335TIP3    H176420   1.817   4.319   5.399 -0.3505 -0.0453 -0.5578
18335TIP3    H276421   1.676   4.325   5.344 -0.6594 -0.4783  0.1726
18336TIP3   OH276422   0.582   6.689   5.312  0.1822 -0.1484  0.0416
18336TIP3    H176423   0.515   6.652   5.255 -0.0494  1.2707 -0.6094
18336TIP3    H276424   0.661   6.638   5.290  0.1425  0.4859 -1.6776
18337TIP3   OH276425   4.066   5.728   4.910  0.1835  0.0521 -0.2967
18337TIP3    H176426   4.136   5.692   4.963 -0.1329  1.1560  0.9055
18337TIP3    H276427   4.110   5.783   4.845  0.4808  0.1143 -0.0430
18338TIP3   OH276428   0.512   4.680   4.891  0.4168 -0.1500  0.2580
18338TIP3    H176429   0.547   4.591   4.901  0.3222 -0.2623 -0.3877
18338TIP3    H276430   0.545   4.709   4.806  0.4382  0.4296  0.4654
18339TIP3   OH276431   1.433   5.069   3.815 -0.0891  0.2614  0.5182
18339TIP3    H176432   1.517   5.068   3.862  0.9016  0.6389 -1.1921
18339TIP3    H276433   1.428   4.982   3.776  0.4810  0.9132 -1.0362
18340TIP3   OH276434   0.454   6.063   5.544 -0.3581 -0.2116  0.1806
18340TIP3    H176435   0.430   5.983   5.496  0.3223 -0.0662 -0.4073
18340TIP3    H276436   0.412   6.053   5.629  0.0719 -1.3902  0.2607
18341TIP3   OH276437   6.375   6.336   5.637 -0.0783 -0.3914 -0.3636
18341TIP3    H176438   6.453   6.386   5.611  0.1694 -0.6493 -0.1260
18341TIP3    H276439   6.393   6.309   5.727 -1.0025  0.6273  0.1273
18342TIP3   OH276440   2.003   6.914   5.411  0.0166  0.3855 -0.0180
18342TIP3    H176441   1.934   6.869   5.362  0.8157 -0.3832 -0.4380
18342TIP3    H276442   2.029   6.987   5.355  0.7177 -0.3154 -0.6216
18343TIP3   OH276443   1.402   5.986   3.355  0.0142  0.2947  0.0822
18343TIP3    H176444   1.358   5.978   3.271 -0.0709 -1.3722  0.2684
18343TIP3    H276445   1.351   5.931   3.414  1.9865 -1.1996  0.4351
18344TIP3   OH276446   1.789   6.539   4.020 -0.2495  1.1439 -0.4535
18344TIP3    H176447   1.832   6.453   4.022 -2.3721  0.0856  0.7317
18344TIP3    H276448   1.787   6.567   4.111 -0.3275  2.0755 -0.7362
18345TIP3   OH276449   0.811   6.251   4.542  0.2304  0.4097 -0.7185
18345TIP3    H176450   0.764   6.333   4.527 -0.5605 -0.2457 -1.9899
18345TIP3    H276451   0.767   6.211   4.617  1.0310  1.4424  0.3072
18346TIP3   OH276452   0.501   4.819   3.919  0.4842  0.6160  0.2454
18346TIP3    H176453   0.579   4.835   3.866 -1.3413 -0.1379 -2.8108
18346TIP3    H276454   0.499   4.725   3.932 -0.8167  0.4331 -1.1737
18347TIP3   OH276455   3.003   5.904   3.736  0.1767  0.9606  0.3992
18347TIP3    H176456   2.983   5.933   3.647 -1.6160 -0.9269  0.1672
18347TIP3    H276457   2.918   5.885   3.775  1.0484  0.2032  1.9750
18348TIP3   OH276458   1.930   7.227   5.154 -0.3440 -0.3159  0.0989
18348TIP3    H176459   1.917   7.241   5.248  0.0823  0.5974  0.0252
18348TIP3    H276460   1.968   7.309   5.123 -1.4164 -0.2434 -1.0576
18349TIP3   OH276461   0.533   0.149   5.093  0.3851 -0.1485 -0.4011
18349TIP3    H176462   0.606   0.112   5.045  1.0238  1.2936 -0.5692
18349TIP3    H276463   0.563   0.236   5.120 -1.2100  0.4278 -0.3882
18350TIP3   OH276464   3.179   7.002   3.912  0.0522  0.1146  1.0544
18350TIP3    H176465   3.119   7.039   3.847  1.3156  1.0557  0.4033
18350TIP3    H276466   3.129   6.932   3.954 -1.2109  0.3368 -0.0531
18351TIP3   OH276467   1.913   6.673   4.750  0.5375  0.1790  0.2127
18351TIP3    H176468   1.872   6.713   4.827  0.0771 -1.0786  0.6423
18351TIP3    H276469   1.842   6.661   4.688  0.9562  1.4171 -0.5142
18352TIP3   OH276470   2.292   3.990   5.344  0.7873 -0.1880  0.7557
18352TIP3    H176471   2.301   3.898   5.321  0.0262 -0.0098 -0.2487
18352TIP3    H276472   2.218   3.994   5.404  0.1924 -0.1113  0.0303
18353TIP3   OH276473   1.496   4.487   5.969  0.2546  0.2152 -0.0384
18353TIP3    H176474   1.576   4.448   6.003  0.4647  0.1353 -0.6168
18353TIP3    H276475   1.526   4.547   5.900  0.0655  2.5293  1.8099
18354TIP3   OH276476   2.180   6.656   4.683  0.5972 -0.0291  0.2740
18354TIP3    H176477   2.213   6.726   4.626  0.1264 -0.3748 -0.4293
18354TIP3    H276478   2.097   6.689   4.716  0.5657 -0.0924  0.2581
18355TIP3   OH276479   0.103   4.102   5.930  0.1582 -0.5258 -0.6023
18355TIP3    H176480   0.142   4.158   5.863  1.6447 -0.6190  0.1706
18355TIP3    H276481   0.037   4.157   5.972  0.5381  0.1444 -0.8805
18356TIP3   OH276482   4.070   3.140   4.711  0.8543 -0.7594  0.0811
18356TIP3    H176483   4.117   3.094   4.781 -1.2537 -1.8679  0.8111
18356TIP3    H276484   4.139   3.184   4.661  2.4042  0.0570  2.8406
18357TIP3   OH276485   0.874   6.126   5.905 -0.5244  0.2847 -0.1834
18357TIP3    H176486   0.938   6.145   5.974  0.0517  3.0314 -1.3721
18357TIP3    H276487   0.816   6.060   5.943 -0.1912  1.6689  2.9169
18358TIP3   OH276488   6.141   4.710   3.759  0.0903 -0.5648  0.1605
18358TIP3    H176489   6.060   4.662   3.740 -0.2890  0.3436 -0.5320
18358TIP3    H276490   6.161   4.756   3.677  1.7209 -1.3701  0.0783
18359TIP3   OH276491   0.374   5.091   5.552 -0.0318 -0.6660  0.3187
18359TIP3    H176492   0.468   5.089   5.568  0.2074 -0.9384 -1.0582
18359TIP3    H276493   0.366   5.078   5.458 -1.4205 -0.0229  0.3428
18360TIP3   OH276494   6.875   4.343   5.270 -0.1176 -0.1848 -0.4774
18360TIP3    H176495   6.931   4.306   5.339 -1.9661 -0.1432  1.0887
18360TIP3    H276496   6.812   4.273   5.250 -0.6862  0.4353 -0.8808
18361TIP3   OH276497   2.660   5.075   6.098 -0.7631 -0.5194  0.5769
18361TIP3    H176498   2.603   5.021   6.043  0.0898  0.3334 -1.1985
18361TIP3    H276499   2.748   5.046   6.076 -0.3326  1.0126  0.1985
18362TIP3   OH276500   0.167   1.839   4.807 -0.6188 -0.5269 -0.4543
18362TIP3    H176501   0.140   1.883   4.726 -0.3074  0.7888  0.1468
18362TIP3    H276502   0.225   1.768   4.778 -1.2952 -0.6836 -1.4459
18363TIP3   OH276503   0.461   3.975   4.521  0.0163 -0.1874  0.5344
18363TIP3    H176504   0.469   3.899   4.463  3.0073  0.4092  0.0765
18363TIP3    H276505   0.490   3.943   4.607  2.6776  0.7345  0.0258
18364TIP3   OH276506   7.283   4.648   4.696 -0.0692 -0.2837 -0.0541
18364TIP3    H176507   7.255   4.577   4.637  0.5201  0.0812 -0.7854
18364TIP3    H276508   7.359   4.612   4.742 -0.0632 -0.2977 -0.0746
18365TIP3   OH276509   0.604   5.432   5.000  0.1694  0.0311  0.1920
18365TIP3    H176510   0.624   5.420   5.093 -0.5398 -0.3292  0.3058
18365TIP3    H276511   0.629   5.349   4.959  0.3172  0.1266  0.0880
18366TIP3   OH276512   0.228   3.183   5.150  0.3193  0.0011  0.1684
18366TIP3    H176513   0.275   3.127   5.211  1.4341 -0.9835 -1.5673
18366TIP3    H276514   0.160   3.127   5.114 -0.5915  0.6974  0.7767
18367TIP3   OH276515   0.624   6.284   5.740 -0.3723  0.6576 -0.7206
18367TIP3    H176516   0.683   6.360   5.739 -0.4316  0.7353  0.5134
18367TIP3    H276517   0.637   6.243   5.655  2.6204 -0.2055  0.0801
18368TIP3   OH276518   0.801   4.284   2.624 -0.0271 -0.2818 -0.3669
18368TIP3    H176519   0.878   4.316   2.578  1.1392 -0.5958  1.3305
18368TIP3    H276520   0.811   4.315   2.714 -1.5466 -0.8754  0.0294
18369TIP3   OH276521   1.698   4.717   5.560 -0.0051  0.5933 -0.0721
18369TIP3    H176522   1.785   4.743   5.590  1.4315 -0.3181 -3.1805
18369TIP3    H276523   1.658   4.799   5.531  0.0920  0.9331  0.7541
18370TIP3   OH276524   1.131   4.855   3.325  0.6518 -0.3448  0.0931
18370TIP3    H176525   1.177   4.840   3.408 -2.1719 -0.4232  1.7286
18370TIP3    H276526   1.200   4.873   3.262  2.8993 -0.4106  2.4418
18371TIP3   OH276527   0.150   4.333   4.418 -0.3473  0.1692  0.4152
18371TIP3    H176528   0.056   4.351   4.427 -0.3097  0.5205  0.0820
18371TIP3    H276529   0.191   4.420   4.416 -0.2637  0.0976 -2.3273
18372TIP3   OH276530   1.561   4.105   3.364  0.0142  0.3121 -0.1769
18372TIP3    H176531   1.644   4.153   3.358  0.3589  0.0450  1.9064
18372TIP3    H276532   1.572   4.031   3.304  1.2730  0.3173  0.0142
18373TIP3   OH276533   5.427   5.945   5.117 -0.5612  0.2509  0.0473
18373TIP3    H176534   5.427   6.030   5.074 -0.1832  1.0308  1.5358
18373TIP3    H276535   5.478   5.888   5.059  1.0935  1.6249  0.1167
18374TIP3   OH276536   6.505   2.348   3.218 -0.4071 -0.2021  0.2772
18374TIP3    H176537   6.554   2.420   3.258 -0.2001  0.0871 -0.4890
18374TIP3    H276538   6.535   2.347   3.127  0.4288 -1.9631  0.5453
18375TIP3   OH276539   2.578   4.525   0.665  0.4069 -0.7878 -0.1499
18375TIP3    H176540   2.576   4.443   0.617 -1.2891  0.2065 -1.8322
18375TIP3    H276541   2.506   4.519   0.727  1.2190 -1.1533  0.7880
18376TIP3   OH276542   1.237   5.685   5.890 -0.5713 -0.4282  0.1642
18376TIP3    H176543   1.169   5.622   5.912 -0.1787 -0.3903  1.4974
18376TIP3    H276544   1.287   5.696   5.970 -0.0715  0.8828 -0.3084
18377TIP3   OH276545   1.263   3.898   5.264  0.2895 -0.4398  0.3900
18377TIP3    H176546   1.203   3.972   5.269  0.1375 -0.4150 -1.3307
18377TIP3    H276547   1.236   3.839   5.334 -0.3704  0.5563  0.9782
18378TIP3   OH276548   0.551   6.118   3.590 -0.0021 -0.3210 -0.5954
18378TIP3    H176549   0.632   6.144   3.634  0.3465 -3.1292  0.5697
18378TIP3    H276550   0.482   6.165   3.636  0.5306 -1.8435  1.8545
18379TIP3   OH276551   2.118   5.256   4.890 -0.0259  0.5667  0.2565
18379TIP3    H176552   2.055   5.254   4.962 -0.6126 -0.0465 -0.2682
18379TIP3    H276553   2.150   5.166   4.884  0.5300  0.7653  0.1922
18380TIP3   OH276554   0.977   4.559   3.668  0.3948  0.6233  0.3634
18380TIP3    H176555   0.912   4.600   3.725 -0.9851 -1.0399  0.0192
18380TIP3    H276556   1.005   4.481   3.715 -0.6434 -0.6817 -1.1526
18381TIP3   OH276557   1.764   3.328   3.010 -0.3422 -0.2978 -0.3143
18381TIP3    H176558   1.809   3.387   2.950 -1.1315  0.5192 -0.1121
18381TIP3    H276559   1.735   3.255   2.955  0.0302 -0.1581 -0.6958
18382TIP3   OH276560   2.590   4.268   5.114  0.8695  0.0551 -0.6919
18382TIP3    H176561   2.591   4.235   5.204  1.9616  0.2067 -0.6390
18382TIP3    H276562   2.505   4.240   5.079  0.6592 -0.4659  0.2140
18383TIP3   OH276563   0.271   4.973   3.787  0.8649 -0.0760 -0.1227
18383TIP3    H176564   0.348   4.923   3.815  0.8259 -0.3565 -0.5008
18383TIP3    H276565   0.295   5.007   3.701  0.1700 -1.0585 -0.7191
18384TIP3   OH276566   1.918   5.193   5.080  0.4178 -0.3727 -0.5315
18384TIP3    H176567   1.834   5.187   5.035 -0.7938  2.7000  1.1665
18384TIP3    H276568   1.934   5.105   5.113 -1.5308 -1.2903 -1.9190
18385TIP3   OH276569   0.850   6.051   5.381 -0.3333  0.0113 -0.1496
18385TIP3    H176570   0.822   6.142   5.383 -2.2085 -0.5535  0.9816
18385TIP3    H276571   0.840   6.021   5.471  1.9103 -0.8659 -0.1392
18386TIP3   OH276572   1.593   3.474   3.450 -0.0850 -0.2551 -0.0326
18386TIP3    H176573   1.607   3.413   3.377  0.3827 -1.0439  0.7173
18386TIP3    H276574   1.681   3.500   3.477 -0.2768  1.2107 -0.7058
18387TIP3   OH276575   1.692   3.978   5.403 -0.3807 -0.2560 -0.3124
18387TIP3    H176576   1.717   4.070   5.413  0.8885 -0.6723  0.4811
18387TIP3    H276577   1.622   3.965   5.467 -1.3127  0.4211 -1.1768
18388TIP3   OH276578   1.821   4.238   3.891 -0.0551 -0.5022 -0.1706
18388TIP3    H176579   1.890   4.301   3.872  1.5342 -1.8803  0.8918
18388TIP3    H276580   1.762   4.284   3.951  1.0835 -0.0463  0.5987
18389TIP3   OH276581   6.150   4.111   5.730  0.1089 -0.0880 -0.1244
18389TIP3    H176582   6.186   4.124   5.818 -0.6762  1.1323  0.0368
18389TIP3    H276583   6.181   4.186   5.680 -0.6206 -0.0310 -0.4978
18390TIP3   OH276584   6.511   4.428   6.236  0.1084  0.3494 -0.1076
18390TIP3    H176585   6.542   4.506   6.189 -0.1824  0.0736 -0.7660
18390TIP3    H276586   6.560   4.355   6.196 -0.2027  0.1027 -0.0403
18391TIP3   OH276587   0.107   4.918   4.661 -0.3670  0.0590 -0.0246
18391TIP3    H176588   0.061   4.969   4.727 -1.5651  0.2008 -0.9465
18391TIP3    H276589   0.084   4.827   4.681  1.1511 -0.0771  1.1546
18392TIP3   OH276590   1.562   3.802   5.213  0.3381  1.0332 -0.1003
18392TIP3    H176591   1.614   3.851   5.276 -1.5352  2.9921 -0.0455
18392TIP3    H276592   1.476   3.793   5.254 -0.1237 -0.0152 -1.2487
18393TIP3   OH276593   5.384   3.834   4.849  0.3273 -0.2461 -0.2206
18393TIP3    H176594   5.364   3.755   4.899 -1.6973  1.0117  1.0411
18393TIP3    H276595   5.383   3.805   4.758  0.6070 -1.8846  0.2872
18394TIP3   OH276596   7.263   5.323   5.704  0.2101 -0.8564  0.1245
18394TIP3    H176597   7.293   5.414   5.703 -1.9954 -0.1182 -0.9956
18394TIP3    H276598   7.201   5.320   5.777 -0.0364 -1.3723 -0.1087
18395TIP3   OH276599   6.674   4.108   5.923 -0.2471 -0.6705 -0.4689
18395TIP3    H176600   6.636   4.196   5.930 -0.4102 -0.7514 -0.3593
18395TIP3    H276601   6.703   4.087   6.012  1.0132 -0.1708 -0.7557
18396TIP3   OH276602   0.405   5.033   6.287  0.3752 -0.3456  0.0519
18396TIP3    H176603   0.496   5.015   6.311  0.9578 -0.0073 -1.8278
18396TIP3    H276604   0.375   4.952   6.245 -0.0022 -0.2591  0.1578
18397TIP3   OH276605   2.076   5.147   4.629 -0.1060 -0.4484 -0.4045
18397TIP3    H176606   2.110   5.063   4.660 -0.7519 -0.4977  0.1951
18397TIP3    H276607   2.086   5.206   4.704 -1.8062 -0.6018 -0.0250
18398TIP3   OH276608   1.471   4.605   4.363 -0.2958 -0.3080  0.0384
18398TIP3    H176609   1.419   4.664   4.308 -0.5418 -0.8059 -0.2579
18398TIP3    H276610   1.486   4.528   4.309  0.5225 -0.2800  0.2250
18399TIP3   OH276611   6.925   0.500   3.709 -0.0054 -0.1083  0.6424
18399TIP3    H176612   6.840   0.512   3.750 -2.0856 -2.2762 -2.7762
18399TIP3    H276613   6.956   0.589   3.692 -2.6500  0.7117 -0.0967
18400TIP3   OH276614   1.323   6.739   3.584 -0.7648 -0.3703 -0.0847
18400TIP3    H176615   1.312   6.762   3.676  2.9282 -0.2587  0.3844
18400TIP3    H276616   1.314   6.822   3.537  2.3244  0.4340  0.6667
18401TIP3   OH276617   1.642   3.956   1.596  0.1612 -0.6513 -0.1654
18401TIP3    H176618   1.560   4.006   1.604 -0.1717 -0.8014 -2.4059
18401TIP3    H276619   1.681   3.962   1.683 -1.5761  0.5678  0.5785
18402TIP3   OH276620   6.552   5.992   3.161  0.6657  0.6542  0.1851
18402TIP3    H176621   6.506   6.057   3.214  1.4727  1.0276  0.4447
18402TIP3    H276622   6.583   6.041   3.085  2.1121  0.8038  0.8514
18403TIP3   OH276623   2.817   3.922   5.511 -0.4470  0.0759  0.2169
18403TIP3    H176624   2.741   3.868   5.490 -0.7231  0.0138  1.3285
18403TIP3    H276625   2.823   3.918   5.606  0.5844  0.5820  0.1781
18404TIP3   OH276626   1.230   5.668   4.103 -0.1599 -0.6551 -0.1857
18404TIP3    H176627   1.196   5.751   4.070 -0.9841 -1.7405 -2.1155
18404TIP3    H276628   1.174   5.648   4.178 -0.5116  0.0831 -0.2449
18405TIP3   OH276629   1.057   0.768   3.958  0.3170 -0.1339  0.0393
18405TIP3    H176630   1.094   0.831   3.897 -1.4019  1.9679  1.1015
18405TIP3    H276631   1.100   0.788   4.042  0.8142 -1.3235  0.0766
18406TIP3   OH276632   3.127   2.681   3.540 -0.2036 -0.0602  0.2046
18406TIP3    H176633   3.213   2.704   3.576 -1.4524  3.3848  1.1812
18406TIP3    H276634   3.072   2.668   3.616 -1.3539  1.1055 -0.4131
18407TIP3   OH276635   2.423   6.048   3.936 -0.0912 -0.3343  0.0739
18407TIP3    H176636   2.374   6.125   3.908 -1.6561 -1.0581  0.7518
18407TIP3    H276637   2.494   6.083   3.989  0.7280  0.7999 -1.7345
18408TIP3   OH276638   1.188   0.422   4.768  0.5674 -0.3054  0.4323
18408TIP3    H176639   1.167   0.401   4.677  2.2496 -0.7445  0.1145
18408TIP3    H276640   1.257   0.360   4.791  1.9385  1.4392  1.1660
18409TIP3   OH276641   0.616   4.436   4.367  0.1904 -0.2158  0.9898
18409TIP3    H176642   0.586   4.345   4.359  0.6901 -0.2825 -0.1759
18409TIP3    H276643   0.571   4.483   4.297  1.7533 -0.0439  0.0856
18410TIP3   OH276644   6.555   2.593   3.887  0.1287  0.4778 -0.4057
18410TIP3    H176645   6.500   2.585   3.965  1.0761 -0.7077  0.1515
18410TIP3    H276646   6.637   2.549   3.910  0.2761 -0.2375 -2.1912
18411TIP3   OH276647   0.567   2.963   5.506  0.2136  0.2087 -0.2903
18411TIP3    H176648   0.612   2.891   5.461 -0.5128 -2.0377  2.4548
18411TIP3    H276649   0.632   2.997   5.567  0.2502  1.3107 -0.9282
18412TIP3   OH276650   0.955   5.853   3.366  0.1513 -0.4202 -0.2505
18412TIP3    H176651   0.905   5.933   3.346 -1.3986 -0.6750  2.3895
18412TIP3    H276652   1.036   5.886   3.405  0.0849 -0.1081 -0.3675
18413TIP3   OH276653   2.412   5.052   4.580  0.4704  0.5185  0.3058
18413TIP3    H176654   2.445   4.992   4.513 -1.2686  1.9485 -1.8632
18413TIP3    H276655   2.491   5.085   4.623  1.5313 -2.0074  0.4313
18414TIP3   OH276656   1.309   5.354   3.376  0.9513  0.5424  0.6065
18414TIP3    H176657   1.235   5.410   3.400 -1.9216 -2.9386  0.3036
18414TIP3    H276658   1.322   5.298   3.452  0.5795 -1.6045 -0.8810
18415TIP3   OH276659   7.088   3.986   5.567 -0.3748  0.6395 -0.1548
18415TIP3    H176660   7.172   3.991   5.612 -0.5331 -1.0489  0.3757
18415TIP3    H276661   7.023   3.996   5.636 -0.6244 -2.6157  0.1547
18416TIP3   OH276662   3.156   2.335   4.478  0.7330  0.0708 -0.0370
18416TIP3    H176663   3.064   2.312   4.496  1.0892 -1.0634  0.3551
18416TIP3    H276664   3.207   2.265   4.518  1.7945  0.8264 -0.0400
18417TIP3   OH276665   3.144   4.579   4.168  0.2801  0.0075 -0.1185
18417TIP3    H176666   3.075   4.596   4.103  0.0511  0.9461  0.3670
18417TIP3    H276667   3.184   4.497   4.139 -0.3561 -0.0020 -0.9920
18418TIP3   OH276668   1.965   5.556   5.354  0.7343 -0.2213  0.7911
18418TIP3    H176669   2.000   5.587   5.437  1.5463  0.6735  0.1323
18418TIP3    H276670   1.947   5.636   5.304 -0.6161 -0.7176  0.4564
18419TIP3   OH276671   0.609   4.795   6.276 -0.0223 -0.0515  0.4284
18419TIP3    H176672   0.516   4.773   6.282 -0.3525  1.1782 -0.0048
18419TIP3    H276673   0.652   4.711   6.261 -1.2814 -0.3751 -1.5418
18420TIP3   OH276674   1.902   4.649   5.998 -0.2808  0.2288  0.2538
18420TIP3    H176675   1.850   4.701   5.936  0.9376 -0.9367 -1.8083
18420TIP3    H276676   1.849   4.645   6.077 -2.5179  0.5659 -1.2009
18421TIP3   OH276677   2.644   3.463   3.890  0.0570 -0.2891  0.8339
18421TIP3    H176678   2.734   3.495   3.902  0.0074  0.3684 -0.5129
18421TIP3    H276679   2.622   3.485   3.800 -1.8405  0.4864  1.4567
18422TIP3   OH276680   0.060   5.033   5.577  0.5400  0.2467  0.1718
18422TIP3    H176681   0.089   5.007   5.490 -0.8786  0.2903 -0.3238
18422TIP3    H276682   0.028   4.952   5.617 -1.0120  0.6282 -0.2408
18423TIP3   OH276683   0.233   3.753   4.512  0.1743 -0.2800  0.2606
18423TIP3    H176684   0.185   3.713   4.439 -0.7622 -1.1239  1.3135
18423TIP3    H276685   0.311   3.699   4.522  0.0267 -0.5031  0.2266
18424TIP3   OH276686   7.281   4.991   4.898  0.2943 -0.4409 -0.1128
18424TIP3    H176687   7.233   5.071   4.879  1.3565  0.4892  1.0338
18424TIP3    H276688   7.265   4.975   4.991 -1.7013 -2.7857 -0.8214
18425TIP3   OH276689   3.370   2.300   4.747  0.6952 -0.0751 -0.6573
18425TIP3    H176690   3.275   2.288   4.755  0.4283  1.7869 -0.7346
18425TIP3    H276691   3.403   2.214   4.722 -1.0481 -0.6134 -1.1883
18426TIP3   OH276692   1.146   1.343   2.049  0.1650  0.6181 -0.3037
18426TIP3    H176693   1.200   1.275   2.088 -0.0161  0.4550 -0.3370
18426TIP3    H276694   1.188   1.425   2.074  1.3827  0.4485 -1.7579
18427TIP3   OH276695   4.503   5.043   4.731 -0.2323  0.1165  0.0246
18427TIP3    H176696   4.455   5.029   4.651  0.6903  0.2366 -0.5622
18427TIP3    H276697   4.586   5.081   4.703  0.6591 -1.1101  0.9154
18428TIP3   OH276698   0.139   2.829   5.679  0.4473  0.0418 -0.2986
18428TIP3    H176699   0.152   2.802   5.770  0.2086 -0.1598 -0.3246
18428TIP3    H276700   0.223   2.869   5.654 -0.3870  2.7328  0.9434
18429TIP3   OH276701   0.908   6.375   5.789 -0.0722 -0.0002 -0.1442
18429TIP3    H176702   0.885   6.291   5.829 -0.9994 -0.5610 -1.7627
18429TIP3    H276703   0.913   6.436   5.862  1.5207 -1.6423  1.1682
18430TIP3   OH276704   1.644   6.179   5.498  0.7108 -0.4426 -0.3450
18430TIP3    H176705   1.647   6.157   5.591 -0.8037 -0.4323 -0.2825
18430TIP3    H276706   1.554   6.210   5.484  1.4580  1.2695 -1.4192
18431TIP3   OH276707   2.172   3.389   5.319 -0.0247 -0.4869  0.0303
18431TIP3    H176708   2.231   3.335   5.372  1.0900  1.4214  0.8144
18431TIP3    H276709   2.195   3.369   5.229  1.1598 -0.4875  0.3228
18432TIP3   OH276710   1.118   5.005   4.290 -0.4085  0.0670  0.4624
18432TIP3    H176711   1.057   5.031   4.359  1.4440 -0.1364  2.2209
18432TIP3    H276712   1.163   5.086   4.266 -2.8048  0.6470 -2.3667
18433TIP3   OH276713   0.978   4.776   4.218 -0.1400  0.3589  0.3637
18433TIP3    H176714   0.982   4.871   4.230  1.7988  0.5692 -1.6502
18433TIP3    H276715   0.946   4.743   4.302  0.9939  2.6449  1.7633
18434TIP3   OH276716   5.764   4.957   3.775  0.1364  0.2825  0.1991
18434TIP3    H176717   5.738   4.899   3.704  1.0151  2.0023 -1.5724
18434TIP3    H276718   5.722   4.920   3.853 -0.3142 -1.9942 -1.0862
18435TIP3   OH276719   0.732   0.610   5.451  0.5572  0.3988 -0.7432
18435TIP3    H176720   0.650   0.601   5.402  1.3662  1.8548 -2.4059
18435TIP3    H276721   0.793   0.552   5.407  0.3314 -1.0221  0.7643
18436TIP3   OH276722   2.363   5.126   5.181 -0.0745 -0.1327 -0.5806
18436TIP3    H176723   2.410   5.045   5.203  0.2849  0.2101 -0.0892
18436TIP3    H276724   2.346   5.167   5.266 -0.3250  0.2701 -0.8284
18437TIP3   OH276725   1.292   4.806   5.361  0.2968 -0.0878 -0.1857
18437TIP3    H176726   1.362   4.832   5.421 -2.1873  1.2860  2.2136
18437TIP3    H276727   1.297   4.870   5.290  0.9639  0.4629  0.3445
18438TIP3   OH276728   0.459   4.498   2.562 -0.2861 -0.1951 -0.2596
18438TIP3    H176729   0.377   4.465   2.599 -0.2795  1.1038  1.0025
18438TIP3    H276730   0.486   4.432   2.499 -0.9855 -1.8561  1.1606
18439TIP3   OH276731   2.319   5.339   5.423  0.6092 -0.1283 -0.3493
18439TIP3    H176732   2.348   5.422   5.384  0.6695 -0.0392 -0.1130
18439TIP3    H276733   2.228   5.329   5.393  0.4294  0.2850  0.0483
18440TIP3   OH276734   4.065   6.479   3.376  0.2894 -0.2815  0.3041
18440TIP3    H176735   4.078   6.523   3.292 -1.7446 -1.3910 -0.6232
18440TIP3    H276736   3.981   6.511   3.408  0.0936 -1.3934  0.9357
18441TIP3   OH276737   7.269   3.493   4.662 -0.5440 -0.0563 -0.3947
18441TIP3    H176738   7.301   3.523   4.578 -0.3114 -2.4847 -1.2262
18441TIP3    H276739   7.175   3.508   4.659 -0.7088 -1.2507 -1.5995
18442TIP3   OH276740   3.819   4.041   5.514 -0.1057  0.7520 -0.3496
18442TIP3    H176741   3.895   4.086   5.478  0.4846  0.3942  0.4479
18442TIP3    H276742   3.751   4.052   5.447  0.2130  2.2962 -0.4384
18443TIP3   OH276743   0.778   3.517   4.918  0.0368 -0.6780  0.4178
18443TIP3    H176744   0.740   3.603   4.934  0.1686 -0.2029 -1.6993
18443TIP3    H276745   0.873   3.532   4.921  0.0965 -1.3308  2.9195
18444TIP3   OH276746   5.864   4.293   5.929  0.0087  0.5350 -0.4439
18444TIP3    H176747   5.926   4.329   5.994  1.0457 -0.9186 -0.6052
18444TIP3    H276748   5.848   4.204   5.958  0.0666  0.0370 -1.8993
18445TIP3   OH276749   0.188   3.561   4.811  0.0294 -0.5206  0.1638
18445TIP3    H176750   0.225   3.536   4.726 -0.2900 -1.6002  0.3226
18445TIP3    H276751   0.095   3.538   4.804  0.1652 -1.3939  1.0875
18446TIP3   OH276752   1.466   1.840   3.221  0.1314 -0.0895  0.1339
18446TIP3    H176753   1.399   1.816   3.157  1.7230 -0.4736 -1.4436
18446TIP3    H276754   1.465   1.935   3.222  0.3476 -0.0716 -0.7531
18447TIP3   OH276755   1.182   2.696   3.875 -0.1874 -0.7137  0.1481
18447TIP3    H176756   1.218   2.609   3.859  0.9357  0.0765 -1.6332
18447TIP3    H276757   1.229   2.728   3.952 -0.5625 -1.6381  0.7721
18448TIP3   OH276758   2.466   4.544   5.226 -0.2311 -0.0968  0.1547
18448TIP3    H176759   2.384   4.503   5.200 -0.4440  0.5940 -0.2618
18448TIP3    H276760   2.511   4.564   5.143 -0.2642  0.7848  0.3475
18449TIP3   OH276761   0.134   3.563   5.318  0.1724  0.7400  0.2433
18449TIP3    H176762   0.172   3.542   5.233 -0.2335  0.5448  0.1056
18449TIP3    H276763   0.047   3.598   5.297  0.3363  1.3310  0.5417
18450TIP3   OH276764   1.201   1.889   4.135 -0.3569 -0.2582 -0.0169
18450TIP3    H176765   1.179   1.930   4.051  1.3690  0.9292  0.0838
18450TIP3    H276766   1.151   1.938   4.200  1.2895  1.3903  0.0437
18451TIP3   OH276767   5.441   3.984   3.350 -0.3280  0.3480  0.1425
18451TIP3    H176768   5.495   3.908   3.370  0.5227  0.3779 -1.9184
18451TIP3    H276769   5.440   4.035   3.431  1.3292 -0.5096  0.7201
18452TIP3   OH276770   1.876   5.390   4.758 -0.5034 -0.2867  0.1532
18452TIP3    H176771   1.864   5.305   4.800  1.0569 -1.3673 -1.4980
18452TIP3    H276772   1.865   5.372   4.665 -1.3521  1.5704 -0.1218
18453TIP3   OH276773   2.878   5.037   3.768  0.4789 -0.0081  0.4180
18453TIP3    H176774   2.920   5.123   3.776 -1.2257  0.7648  1.5403
18453TIP3    H276775   2.916   4.985   3.839  1.0078  0.0349  0.1670
18454TIP3   OH276776   4.809   4.843   5.532 -0.4818 -0.2357 -0.1246
18454TIP3    H176777   4.875   4.861   5.599 -0.9011  0.6641  0.0545
18454TIP3    H276778   4.732   4.815   5.580 -1.0724  1.2766 -0.1540
18455TIP3   OH276779   0.474   3.562   5.815  0.0294  0.3680 -0.0972
18455TIP3    H176780   0.508   3.545   5.727 -1.0030  0.3829 -0.5037
18455TIP3    H276781   0.544   3.612   5.859  0.3104  0.8420 -1.0837
18456TIP3   OH276782   1.275   4.664   5.589 -0.0161  0.3839  0.3556
18456TIP3    H176783   1.263   4.697   5.500 -1.2137 -0.9055  0.0156
18456TIP3    H276784   1.239   4.733   5.645 -0.1864  0.7579 -0.2108
18457TIP3   OH276785   0.526   2.427   4.361  0.2625 -0.2533 -0.4199
18457TIP3    H176786   0.602   2.485   4.361  0.7438 -0.8719  0.4042
18457TIP3    H276787   0.521   2.395   4.270  0.3656  0.5865 -0.7224
18458TIP3   OH276788   1.473   6.102   4.635  0.0945  0.6662  0.5960
18458TIP3    H176789   1.502   6.013   4.616 -2.3464 -0.3606  1.5325
18458TIP3    H276790   1.467   6.105   4.731 -0.3464  1.6723  0.5382
18459TIP3   OH276791   1.713   4.959   4.404 -0.5119  0.5685  0.0574
18459TIP3    H176792   1.690   4.870   4.431 -1.5426  0.8488  0.1526
18459TIP3    H276793   1.727   4.952   4.309  0.0747  0.1792  0.1702
18460TIP3   OH276794   1.410   3.042   3.804  0.0589  0.9630 -0.1318
18460TIP3    H176795   1.469   3.048   3.879  0.9740  0.1051 -0.7601
18460TIP3    H276796   1.465   3.005   3.734 -1.4798 -0.8615 -0.4257
18461TIP3   OH276797   3.343   4.414   5.469  0.3650 -0.5781 -0.2718
18461TIP3    H176798   3.342   4.500   5.512  0.0075 -1.0690  0.7141
18461TIP3    H276799   3.288   4.426   5.391 -0.0157 -0.0258  0.0751
18462TIP3   OH276800   2.113   5.683   5.542  0.4429  0.5911 -0.3822
18462TIP3    H176801   2.184   5.663   5.603 -1.2488 -0.0735  1.4290
18462TIP3    H276802   2.111   5.779   5.539  2.1659  0.6096 -1.3728
18463TIP3   OH276803   0.745   4.992   5.249  0.0112  0.1566  0.2704
18463TIP3    H176804   0.792   4.960   5.326  2.4563 -0.1771 -1.2947
18463TIP3    H276805   0.717   5.080   5.272  2.0025  0.6201  1.0481
18464TIP3   OH276806   2.168   4.599   5.917 -0.5003  0.1220 -0.8621
18464TIP3    H176807   2.084   4.621   5.958  0.0813  0.1303  0.3404
18464TIP3    H276808   2.146   4.584   5.825 -1.6190  1.4094 -0.8308
18465TIP3   OH276809   6.318   4.450   4.176  0.1398  0.4127  0.1534
18465TIP3    H176810   6.393   4.390   4.172  0.2704  0.4941  1.0693
18465TIP3    H276811   6.357   4.536   4.189 -0.1062  0.4770  0.4676
18466TIP3   OH276812   3.527   5.854   4.732 -0.3608  0.4586  0.2102
18466TIP3    H176813   3.597   5.838   4.669  0.7560  1.3804  1.1903
18466TIP3    H276814   3.451   5.876   4.679  0.1964 -0.1876 -0.8537
18467TIP3   OH276815   4.776   7.194   1.791  0.1496 -0.1907  0.1650
18467TIP3    H176816   4.737   7.282   1.790  1.1113  0.3129  2.7665
18467TIP3    H276817   4.834   7.195   1.867 -0.6855 -3.4698  0.8936
18468TIP3   OH276818   4.785   3.531   4.291  0.0925 -0.1730 -0.6985
18468TIP3    H176819   4.699   3.524   4.334  0.8606  1.1129  1.0935
18468TIP3    H276820   4.777   3.607   4.234  0.4806  0.8076  0.5406
18469TIP3   OH276821   4.587   2.738   2.876  0.3104  0.2234  0.5441
18469TIP3    H176822   4.589   2.653   2.919  4.0685  0.4279  0.9874
18469TIP3    H276823   4.646   2.793   2.928 -0.0552  2.3509 -1.1894
18470TIP3   OH276824   2.789   5.907   4.685  0.2270 -0.4749  0.1459
18470TIP3    H176825   2.738   5.940   4.611  2.0045  1.4729 -0.2546
18470TIP3    H276826   2.723   5.874   4.746 -1.3316 -0.8385 -1.6812
18471TIP3   OH276827   2.551   2.142   1.683  0.6207  0.4299  0.0907
18471TIP3    H176828   2.629   2.165   1.733  0.9132  0.4917 -0.3935
18471TIP3    H276829   2.527   2.055   1.714  1.1785  0.1987 -0.1206
18472TIP3   OH276830   1.529   5.301   4.864 -0.3463  0.3306 -0.4544
18472TIP3    H176831   1.456   5.252   4.902 -3.1006  2.6984 -2.5275
18472TIP3    H276832   1.553   5.252   4.786 -1.2814  0.7561 -1.0232
18473TIP3   OH276833   4.431   6.347   3.686 -0.0341  0.1607 -0.1010
18473TIP3    H176834   4.526   6.340   3.682 -0.0916 -1.4147  0.8374
18473TIP3    H276835   4.408   6.406   3.615  1.7091  1.1529  0.1371
18474TIP3   OH276836   4.436   6.310   5.780 -0.5198 -0.0986  1.2593
18474TIP3    H176837   4.461   6.401   5.797 -2.6762  0.9741 -1.0337
18474TIP3    H276838   4.518   6.268   5.753 -0.1053  1.9925 -0.8984
18475TIP3   OH276839   2.873   4.451   5.820 -0.4067 -0.1073 -1.0063
18475TIP3    H176840   2.844   4.541   5.827 -0.7256 -0.3883  2.3399
18475TIP3    H276841   2.806   4.407   5.768 -1.4348  1.0996 -0.7095
18476TIP3   OH276842   6.303   1.718   3.589  0.5577  0.4255 -0.4141
18476TIP3    H176843   6.375   1.780   3.575 -0.2059  1.2726 -0.6210
18476TIP3    H276844   6.258   1.751   3.667 -0.9702  1.2246 -1.5948
18477TIP3   OH276845   3.384   5.770   4.959  0.1892 -0.1918  0.0890
18477TIP3    H176846   3.312   5.751   4.898  0.2266 -1.0553  0.3103
18477TIP3    H276847   3.460   5.781   4.902 -0.0509  0.3707 -0.1220
18478TIP3   OH276848   4.962   4.443   1.750  0.8094 -0.4682  0.0081
18478TIP3    H176849   4.880   4.395   1.751  0.6544 -0.1987  1.0283
18478TIP3    H276850   4.948   4.513   1.687  0.5978 -1.0140 -0.5483
18479TIP3   OH276851   2.637   4.383   3.789 -0.0394 -0.5846  0.4815
18479TIP3    H176852   2.700   4.312   3.794 -0.3967 -0.9235  0.1101
18479TIP3    H276853   2.580   4.370   3.865  0.8894  0.2488  1.3368
18480TIP3   OH276854   2.573   4.808   4.813  0.5098  0.4894  0.2599
18480TIP3    H176855   2.582   4.893   4.856  1.2264  0.1184  0.8682
18480TIP3    H276856   2.618   4.818   4.730  0.2950  0.8047  0.1786
18481TIP3   OH276857   2.151   4.500   4.820 -0.1803  0.4624  0.3015
18481TIP3    H176858   2.092   4.542   4.758  2.4198  1.2285 -1.7536
18481TIP3    H276859   2.119   4.410   4.827 -2.8343  1.4153  0.9340
18482TIP3   OH276860   2.349   7.183   4.358  0.6110 -0.6397 -0.0138
18482TIP3    H176861   2.354   7.213   4.267 -0.4736  1.8200  0.6764
18482TIP3    H276862   2.324   7.261   4.407  0.0332 -2.1968  2.2489
18483TIP3   OH276863   4.652   2.772   4.885  0.2872  0.8504 -0.0033
18483TIP3    H176864   4.645   2.865   4.863  1.9837  0.7731 -0.9406
18483TIP3    H276865   4.692   2.732   4.807  0.5759 -0.4707  0.8134
18484TIP3   OH276866   3.497   4.963   4.974  0.2317  0.6992  0.9403
18484TIP3    H176867   3.591   4.964   4.993  0.4562 -1.3274  0.0711
18484TIP3    H276868   3.492   4.953   4.879 -0.8513 -0.7339  1.1284
18485TIP3   OH276869   2.513   6.424   5.379 -0.6894 -0.0936  0.3623
18485TIP3    H176870   2.581   6.360   5.401 -0.9086  0.0617  1.5220
18485TIP3    H276871   2.524   6.439   5.285  0.4246 -0.6016  0.3989
18486TIP3   OH276872   0.884   4.760   3.815  0.0381  0.5832 -0.1474
18486TIP3    H176873   0.816   4.812   3.773  0.2607  1.7376  0.9012
18486TIP3    H276874   0.964   4.812   3.803  0.4285  0.0493  0.1229
18487TIP3   OH276875   5.943   6.671   4.963  0.2773  0.9848  0.3471
18487TIP3    H176876   5.882   6.597   4.955  0.6515  0.7642 -0.5691
18487TIP3    H276877   6.030   6.630   4.965  0.3953  1.2908  1.7566
18488TIP3   OH276878   3.587   4.567   3.881  0.3030  0.0709  0.1859
18488TIP3    H176879   3.671   4.613   3.883  0.4218 -0.1549  0.3617
18488TIP3    H276880   3.606   4.480   3.915 -0.4455  0.7241  2.3438
18489TIP3   OH276881   4.752   5.142   3.523  0.2469  0.1062 -0.3185
18489TIP3    H176882   4.701   5.216   3.555  0.5692 -0.9661  2.8955
18489TIP3    H276883   4.828   5.139   3.580  2.4937 -0.0969 -3.1941
18490TIP3   OH276884   2.955   4.557   4.858  0.1617 -0.7031  0.1734
18490TIP3    H176885   2.945   4.527   4.949 -0.0315 -0.2465  0.3029
18490TIP3    H276886   3.045   4.589   4.853  0.6303 -2.0372 -0.1834
18491TIP3   OH276887   0.783   3.892   3.601  1.1812  0.4632  0.8197
18491TIP3    H176888   0.746   3.977   3.577  1.2801  0.1741 -0.3929
18491TIP3    H276889   0.727   3.828   3.557  2.6726  0.0007 -0.4904
18492TIP3   OH276890   1.583   3.256   5.794  0.5571 -0.3042 -0.2076
18492TIP3    H176891   1.651   3.189   5.783  0.7476 -0.4602  1.8325
18492TIP3    H276892   1.628   3.329   5.835  0.1431  0.7707 -1.6294
18493TIP3   OH276893   2.730   6.310   5.832  0.3271  0.2840 -0.4437
18493TIP3    H176894   2.674   6.241   5.868 -0.3518  0.5213 -1.0147
18493TIP3    H276895   2.737   6.375   5.902  0.8120 -0.2858  0.0282
18494TIP3   OH276896   3.220   6.220   5.094  0.3398 -0.0295 -0.1738
18494TIP3    H176897   3.152   6.285   5.114  0.5117 -0.4207  1.7969
18494TIP3    H276898   3.174   6.150   5.047 -0.3691  0.3122  0.0078
18495TIP3   OH276899   5.362   5.699   4.079  0.6389  0.2038  0.1120
18495TIP3    H176900   5.385   5.792   4.074 -0.8898  0.6560  1.2320
18495TIP3    H276901   5.429   5.661   4.136  0.4126  0.8991  0.8450
18496TIP3   OH276902   1.602   3.615   5.694 -0.0739 -0.2680  0.4742
18496TIP3    H176903   1.683   3.633   5.647 -0.2421  0.9258  0.6032
18496TIP3    H276904   1.560   3.701   5.701 -1.2857 -0.8606  0.5120
18497TIP3   OH276905   5.057   5.058   3.444  0.1488  0.3593 -0.0193
18497TIP3    H176906   5.049   5.107   3.526  1.9783 -0.1551  0.4866
18497TIP3    H276907   5.024   4.971   3.464  1.2744  0.0218  0.3719
18498TIP3   OH276908   2.614   5.244   4.128  0.1660  0.1901  0.2639
18498TIP3    H176909   2.624   5.338   4.141 -0.4085  0.3571 -0.4811
18498TIP3    H276910   2.667   5.205   4.197  0.4035  1.0592  0.5819
18499TIP3   OH276911   4.989   6.118   2.825  0.1260  0.0427 -0.0793
18499TIP3    H176912   5.064   6.092   2.879  0.0968 -1.5245 -0.7580
18499TIP3    H276913   5.020   6.107   2.735 -0.2747  1.3243 -0.3909
18500TIP3   OH276914   3.148   4.859   3.435 -0.1281 -0.1487  0.1371
18500TIP3    H176915   3.146   4.954   3.427  4.1012 -0.0850 -1.7280
18500TIP3    H276916   3.129   4.827   3.347 -1.4114 -1.0332  0.7237
18501TIP3   OH276917   3.115   6.771   4.401  0.4034  0.0071  1.0039
18501TIP3    H176918   3.059   6.779   4.324 -0.4337  0.0548  1.5993
18501TIP3    H276919   3.147   6.860   4.417 -1.0012  0.3735  1.8557
18502TIP3   OH276920   3.763   2.720   4.518 -0.0343  0.1082 -0.1309
18502TIP3    H176921   3.830   2.653   4.504  1.4890  1.7567 -1.0151
18502TIP3    H276922   3.751   2.760   4.432 -3.3882 -1.2194 -0.3419
18503TIP3   OH276923   1.662   4.414   4.125  0.3166 -0.1464  0.6025
18503TIP3    H176924   1.750   4.435   4.156  0.2181 -0.6980  1.2581
18503TIP3    H276925   1.618   4.377   4.201  0.2720 -2.1204 -0.3739
18504TIP3   OH276926   6.123   4.140   3.515  0.0554 -0.2373 -0.1915
18504TIP3    H176927   6.108   4.188   3.597 -0.3733  1.2533 -1.1323
18504TIP3    H276928   6.218   4.141   3.503  0.1194 -0.4607  0.2760
18505TIP3   OH276929   0.985   4.690   5.632  0.3406 -0.0417 -0.2967
18505TIP3    H176930   1.053   4.630   5.600  1.0108 -0.4725  1.7957
18505TIP3    H276931   1.032   4.750   5.691 -0.8018  0.7700 -0.1880
18506TIP3   OH276932   1.113   4.980   3.808 -0.6179  0.3869  0.3886
18506TIP3    H176933   1.181   5.048   3.801 -0.0265 -0.3120 -0.9920
18506TIP3    H276934   1.061   5.006   3.884  1.4782  0.6953  1.7789
18507TIP3   OH276935   5.479   6.067   5.486  0.3738  0.4901 -0.0532
18507TIP3    H176936   5.471   6.058   5.391 -0.1608  1.6411 -0.1176
18507TIP3    H276937   5.393   6.095   5.515  0.1204 -1.2507  0.9568
18508TIP3   OH276938   3.197   4.955   5.953  0.0720  0.5738 -0.1388
18508TIP3    H176939   3.124   4.960   6.016  0.2080 -0.7376  0.1445
18508TIP3    H276940   3.261   5.018   5.986 -1.6546  3.0989 -1.3926
18509TIP3   OH276941   2.554   4.901   4.394 -0.6650 -0.0823  0.5431
18509TIP3    H176942   2.636   4.949   4.383 -0.9034  0.4964  1.2627
18509TIP3    H276943   2.581   4.810   4.404 -0.0683  0.1650  1.2647
18510TIP3   OH276944   2.100   4.281   3.936 -0.6886  0.0106  0.3557
18510TIP3    H176945   2.109   4.222   4.010  0.0516 -0.0574  0.2155
18510TIP3    H276946   2.139   4.233   3.862  1.1457  1.1977  0.5223
18511TIP3   OH276947   2.987   5.166   2.878 -0.2937 -0.4248  0.2734
18511TIP3    H176948   2.908   5.115   2.897 -0.2185  0.1547  2.3262
18511TIP3    H276949   3.048   5.142   2.948 -0.0725  2.0506  0.9945
18512TIP3   OH276950   3.926   4.236   3.952 -0.1475 -0.1393 -0.1629
18512TIP3    H176951   3.897   4.215   4.041  0.0764  0.8554  0.1444
18512TIP3    H276952   4.002   4.180   3.938 -0.0429 -0.1270  0.3576
18513TIP3   OH276953   3.715   2.826   4.272 -0.1221  0.2057  0.2023
18513TIP3    H176954   3.624   2.799   4.258 -0.0254 -0.7678  1.4169
18513TIP3    H276955   3.759   2.805   4.190 -0.8867  0.2120 -0.2145
18514TIP3   OH276956   1.654   5.001   5.003  0.0228 -0.0180  0.1170
18514TIP3    H176957   1.681   4.913   5.029  2.0794  1.1027  1.9887
18514TIP3    H276958   1.707   5.020   4.925  0.6556  0.1025  0.5706
18515TIP3   OH276959   0.574   3.850   4.762 -0.1043  0.2987  0.4818
18515TIP3    H176960   0.505   3.826   4.824 -0.2296  0.1739  0.2958
18515TIP3    H276961   0.643   3.887   4.816 -0.6817  1.2437  0.5924
18516TIP3   OH276962   2.469   4.941   1.535 -0.5269 -0.1134  0.6005
18516TIP3    H176963   2.398   4.888   1.497 -1.8257 -0.1598  2.9997
18516TIP3    H276964   2.528   4.957   1.461 -2.3784 -1.1396 -1.1837
18517TIP3   OH276965   5.303   6.097   2.979 -0.4702 -0.2727  0.6917
18517TIP3    H176966   5.358   6.048   3.041  0.5214 -0.2112 -0.1181
18517TIP3    H276967   5.341   6.078   2.893 -2.3062 -0.9679  0.0028
18518TIP3   OH276968   4.414   5.247   3.345 -0.9286  0.1938 -0.7299
18518TIP3    H176969   4.381   5.204   3.266 -2.8323  1.5346 -0.7048
18518TIP3    H276970   4.395   5.186   3.416 -0.1144 -0.5829 -1.1761
18519TIP3   OH276971   3.711   3.338   5.408 -0.9036 -0.1016  0.1057
18519TIP3    H176972   3.739   3.412   5.463 -0.4892  0.5638 -1.0006
18519TIP3    H276973   3.616   3.335   5.419 -0.8554  0.2061  0.6414
18520TIP3   OH276974   1.445   4.703   2.906  0.1790 -0.1722 -0.3814
18520TIP3    H176975   1.366   4.735   2.861  0.9415 -0.0739 -1.6734
18520TIP3    H276976   1.498   4.664   2.836  2.3384  1.8527  0.0624
18521TIP3   OH276977   1.535   4.321   4.611  0.0796 -0.0385  0.0732
18521TIP3    H176978   1.481   4.372   4.671  0.0196  1.8895 -1.5834
18521TIP3    H276979   1.623   4.323   4.650 -0.6873 -1.9954  2.0272
18522TIP3   OH276980   3.518   3.503   3.649 -0.2129 -0.1233 -0.0608
18522TIP3    H176981   3.581   3.432   3.664  2.3996  2.4152  1.8110
18522TIP3    H276982   3.472   3.512   3.733  0.1050  0.9455  0.0071
18523TIP3   OH276983   3.233   5.155   5.667 -0.0744  0.3714  0.3061
18523TIP3    H176984   3.200   5.242   5.647  0.0671  0.1107 -1.0712
18523TIP3    H276985   3.198   5.136   5.754 -0.1915  1.7557  0.5760
18524TIP3   OH276986   3.862   4.538   4.696 -0.8182 -0.1466 -0.0273
18524TIP3    H176987   3.823   4.614   4.739  1.2085 -1.0103  3.5258
18524TIP3    H276988   3.792   4.473   4.694 -0.9749 -0.0425  1.8756
18525TIP3   OH276989   0.843   4.431   4.968 -0.2134 -0.0983 -0.0656
18525TIP3    H176990   0.749   4.419   4.975 -0.0561  0.0400  2.6034
18525TIP3    H276991   0.861   4.514   5.013  1.2624 -0.4811  0.0811
18526TIP3   OH276992   0.538   3.636  15.005  0.0410  0.4432 -0.7735
18526TIP3    H176993   0.567   3.545  15.000 -1.1227  0.1344 -1.9738
18526TIP3    H276994   0.506   3.646  15.095  1.7542  0.1563 -0.1257
18527TIP3   OH276995   0.470   3.610   2.837 -0.0920  0.1513  0.1640
18527TIP3    H176996   0.516   3.613   2.753  1.7309 -0.4073  1.1152
18527TIP3    H276997   0.532   3.569   2.897 -1.6938 -0.2655  1.5925
18528TIP3   OH276998   2.419   5.832   3.748 -0.7682  0.2029 -0.6751
18528TIP3    H176999   2.471   5.755   3.774 -2.0078 -0.8895 -1.3660
18528TIP3    H277000   2.418   5.887   3.826  0.3412 -0.3743 -0.2401
18529TIP3   OH277001   3.136   4.225   5.509 -0.2146  0.6245  0.0648
18529TIP3    H177002   3.220   4.268   5.528  0.4374 -0.4717 -0.2910
18529TIP3    H277003   3.144   4.139   5.552 -1.5030  0.8533  0.7777
18530TIP3   OH277004   4.009   6.590   3.089  0.1055  0.3066 -0.0035
18530TIP3    H177005   3.975   6.668   3.044 -0.0914  0.1720 -0.0902
18530TIP3    H277006   4.012   6.522   3.021  1.6442  0.6198 -0.2731
18531TIP3   OH277007   0.010   2.824   5.003 -0.3741  0.0580  0.3601
18531TIP3    H177008   0.045   2.789   4.921 -1.2071 -0.0532  0.0426
18531TIP3    H277009   0.002   2.918   4.988  0.3902  0.1720  0.6585
18532TIP3   OH277010   4.319   3.814   3.643 -0.2767 -0.3941 -0.0602
18532TIP3    H177011   4.248   3.771   3.691  0.2449 -1.7593 -0.5005
18532TIP3    H277012   4.355   3.746   3.587  0.5198  0.6394 -0.8300
18533TIP3   OH277013   7.276   3.569   2.741 -0.0815  0.4166  0.1419
18533TIP3    H177014   7.229   3.523   2.811  0.5640  2.4188  1.9699
18533TIP3    H277015   7.365   3.535   2.746  0.1322  1.0555  0.7708
18534TIP3   OH277016   3.231   4.119   3.090  0.1178  0.1293 -0.0050
18534TIP3    H177017   3.205   4.139   3.000  0.9968 -0.3826 -0.3881
18534TIP3    H277018   3.193   4.033   3.107  0.1900  0.0997  0.0084
18535TIP3   OH277019   3.666   6.841   5.146  0.1961  0.2695 -0.2508
18535TIP3    H177020   3.645   6.934   5.139 -0.3431  0.0627 -1.4312
18535TIP3    H277021   3.581   6.797   5.135  0.4805 -0.3746  0.0913
18536TIP3   OH277022   1.917   3.940   5.244 -0.0189 -0.4623 -0.0648
18536TIP3    H177023   1.960   4.010   5.293  2.1688 -0.7117 -1.5561
18536TIP3    H277024   1.837   3.921   5.294  0.3688  1.6963  1.4435
18537TIP3   OH277025   5.261   4.948   5.477 -0.5559 -0.1531 -0.1996
18537TIP3    H177026   5.198   4.895   5.526  2.0032 -1.9305  1.2501
18537TIP3    H277027   5.254   5.036   5.516 -2.3921 -0.2313 -0.3280
18538TIP3   OH277028   1.095   4.219   4.213 -0.4613  0.7061 -0.2559
18538TIP3    H177029   1.078   4.189   4.302 -2.8743  0.4163 -0.8038
18538TIP3    H277030   1.175   4.173   4.187 -0.1998  0.1787  1.4470
18539TIP3   OH277031   4.830   4.486   4.989 -0.3910 -0.1489  1.0223
18539TIP3    H177032   4.815   4.563   4.935 -0.5729 -0.5846  0.4502
18539TIP3    H277033   4.922   4.491   5.015 -0.8534  1.2179  2.4880
18540TIP3   OH277034   2.154   5.560   3.662 -0.1884  0.2123  0.2703
18540TIP3    H177035   2.162   5.631   3.726  3.1594  1.7168 -1.6783
18540TIP3    H277036   2.192   5.484   3.705  0.6519  0.8300  0.6328
18541TIP3   OH277037   6.492   3.380   3.190  0.5163 -0.3018  0.2819
18541TIP3    H177038   6.532   3.382   3.277  0.8558 -0.0448  0.1197
18541TIP3    H277039   6.497   3.470   3.159 -1.3066 -0.0266  0.7569
18542TIP3   OH277040   2.008   4.463   2.598 -0.0683 -0.5308 -0.2274
18542TIP3    H177041   2.067   4.509   2.658 -0.0274  1.4587 -1.7530
18542TIP3    H277042   1.920   4.481   2.632 -0.1260  1.7195 -1.4853
18543TIP3   OH277043   2.434   5.938   5.396 -0.2691 -0.0601 -0.0377
18543TIP3    H177044   2.353   5.986   5.377 -0.6622 -0.3757  0.8309
18543TIP3    H277045   2.472   5.983   5.471 -1.9317 -2.5958  2.4294
18544TIP3   OH277046   3.203   5.676   4.755  0.0321  0.1992 -0.4373
18544TIP3    H177047   3.123   5.627   4.736 -0.0642 -0.6145  1.8391
18544TIP3    H277048   3.266   5.645   4.691 -1.1957  0.1066 -1.6209
18545TIP3   OH277049   2.676   5.696   5.621  0.6875  0.3139 -1.0397
18545TIP3    H177050   2.658   5.765   5.684 -0.2168 -0.1514 -0.7722
18545TIP3    H277051   2.764   5.666   5.642  0.9850  1.2098 -0.9995
18546TIP3   OH277052   3.213   5.202   4.854 -0.3566 -0.4993  0.4178
18546TIP3    H177053   3.192   5.143   4.926  0.2124  0.2310  1.1898
18546TIP3    H277054   3.201   5.290   4.890  1.0793 -0.1080 -0.0151
18547TIP3   OH277055   2.066   4.857   5.384 -0.4328  0.0690  0.0066
18547TIP3    H177056   2.095   4.897   5.302 -0.0454 -1.2385 -0.5085
18547TIP3    H277057   2.146   4.846   5.435 -0.4725 -0.4386 -0.0346
18548TIP3   OH277058   1.629   3.544   4.836 -0.1189 -0.0414 -0.1476
18548TIP3    H177059   1.569   3.615   4.856 -1.0589 -0.5906 -0.9687
18548TIP3    H277060   1.587   3.466   4.874  0.2195 -0.3751 -0.4501
18549TIP3   OH277061   1.435   4.093   4.253 -0.2399 -0.4646  0.2655
18549TIP3    H177062   1.451   4.003   4.279 -2.0571 -1.1598 -0.8677
18549TIP3    H277063   1.373   4.086   4.180  2.0365  1.5496 -1.9725
18550TIP3   OH277064   3.581   4.899   0.828  0.3937  0.1910  0.4859
18550TIP3    H177065   3.556   4.947   0.907  0.1715  3.4132 -1.4340
18550TIP3    H277066   3.663   4.940   0.800  0.4406 -0.8418 -0.9804
18551TIP3   OH277067   2.975   4.447   5.462 -0.1140  0.2251  0.0300
18551TIP3    H177068   2.915   4.374   5.478  0.1049  0.3554  1.4996
18551TIP3    H277069   3.037   4.414   5.397 -1.3053 -0.1730 -0.9151
18552TIP3   OH277070   1.895   5.145   1.776 -0.1053  0.8143 -0.1794
18552TIP3    H177071   1.824   5.185   1.827  1.5143  1.5648  1.5396
18552TIP3    H277072   1.940   5.088   1.838  1.9487  1.7976 -0.7204
18553TIP3   OH277073   4.949   2.756   4.171  0.0410 -0.7906 -0.1431
18553TIP3    H177074   4.961   2.845   4.137 -0.3616 -0.8084 -0.3358
18553TIP3    H277075   4.877   2.764   4.233  0.4598 -0.8506  0.3560
18554TIP3   OH277076   2.326   4.190   5.091  0.5700 -0.0811  0.2085
18554TIP3    H177077   2.323   4.196   5.187  2.3278 -1.5411  0.4018
18554TIP3    H277078   2.268   4.117   5.070  0.8584 -0.3184  0.2361
18555TIP3   OH277079   3.975   5.887   4.507  0.0811 -0.5579 -0.1022
18555TIP3    H177080   3.949   5.805   4.465 -1.8465  0.7462 -1.5949
18555TIP3    H277081   3.892   5.927   4.533  0.8020  2.1391 -1.8017
18556TIP3   OH277082   2.353   4.838   5.024  0.1319  0.2858  0.0051
18556TIP3    H177083   2.439   4.829   4.983  0.7336 -0.4654  1.4042
18556TIP3    H277084   2.370   4.826   5.118 -1.3917  0.8318  0.3639
18557TIP3   OH277085   3.617   5.368   4.603 -0.0943 -0.4773 -0.4517
18557TIP3    H177086   3.638   5.328   4.688  3.6913  0.6545 -0.7279
18557TIP3    H277087   3.653   5.307   4.539 -0.0146  0.2412 -1.0981
18558TIP3   OH277088   2.761   5.949   5.576  0.2385  0.3870  0.0033
18558TIP3    H177089   2.853   5.971   5.591  0.3459  0.3961 -0.6685
18558TIP3    H277090   2.761   5.856   5.555 -0.0822  0.0081  1.5558
18559TIP3   OH277091   4.112   5.285   3.487 -0.1746 -0.0108 -0.0474
18559TIP3    H177092   4.161   5.258   3.410  0.2148 -0.2071  0.2719
18559TIP3    H277093   4.068   5.366   3.460  0.9219  0.5845 -0.0989
18560TIP3   OH277094   4.281   5.792   5.194  0.2022 -0.1374  0.0176
18560TIP3    H177095   4.261   5.706   5.157 -3.8673  0.4273  0.7423
18560TIP3    H277096   4.285   5.777   5.289 -0.5022  0.4581  0.1455
18561TIP3   OH277097   4.988   5.704   4.461 -0.6578 -0.0204  0.2561
18561TIP3    H177098   4.956   5.783   4.505 -1.3931 -1.0875  1.6899
18561TIP3    H277099   4.963   5.632   4.520  0.3649 -1.2851 -0.8240
18562TIP3   OH277100   1.032   4.355   3.842 -0.3916  0.1590 -0.2769
18562TIP3    H177101   1.008   4.310   3.761 -0.2972 -2.2222  0.9962
18562TIP3    H277102   0.963   4.331   3.904  0.2539  0.8942  0.7366
18563TIP3   OH277103   6.823   5.925   3.160  0.3080 -0.0655  0.1988
18563TIP3    H177104   6.865   6.010   3.149  0.6601 -0.2038  0.4857
18563TIP3    H277105   6.733   5.947   3.186 -0.2840  0.2508 -1.9922
18564TIP3   OH277106   1.279   5.251   3.612  0.3208  0.2388  0.1432
18564TIP3    H177107   1.303   5.331   3.659  0.9546  0.8420 -1.1714
18564TIP3    H277108   1.331   5.182   3.654  1.3378  0.8669 -0.0592
18565TIP3   OH277109   5.353   3.648   4.296 -0.9072 -0.2429 -0.0127
18565TIP3    H177110   5.419   3.717   4.290 -1.3962  0.1993 -0.3468
18565TIP3    H277111   5.316   3.656   4.384 -1.6504  0.5477 -0.3996
18566TIP3   OH277112   2.404   6.620   3.795 -0.1807  0.2271  0.0178
18566TIP3    H177113   2.460   6.627   3.717 -0.2549  2.8833  0.1662
18566TIP3    H277114   2.455   6.662   3.864 -1.0826 -0.1145  0.8943
18567TIP3   OH277115   1.500   3.741   3.505 -0.6256  0.1210  0.5213
18567TIP3    H177116   1.552   3.791   3.568  0.4407 -1.1131  0.6567
18567TIP3    H277117   1.549   3.659   3.494 -0.2404  0.7409 -2.7253
18568TIP3   OH277118   1.296   5.392   3.853  0.3832  0.6154  0.1714
18568TIP3    H177119   1.375   5.425   3.897  1.0245 -1.3970  0.5898
18568TIP3    H277120   1.279   5.308   3.894 -0.3683 -0.2528 -1.8488
18569TIP3   OH277121   5.874   4.329   4.151  0.2861  0.9854 -0.1847
18569TIP3    H177122   5.930   4.406   4.137  0.1050  1.0306 -0.6763
18569TIP3    H277123   5.936   4.256   4.158  0.4478  1.1438  0.0347
18570TIP3   OH277124   3.557   1.104   5.186  0.2113  0.0740 -1.0176
18570TIP3    H177125   3.632   1.150   5.223  0.1370 -1.1686  0.7379
18570TIP3    H277126   3.591   1.064   5.106  1.3946 -0.3586 -0.3140
18571TIP3   OH277127   6.526   4.986   4.005  0.1824  0.0379  0.1047
18571TIP3    H177128   6.499   4.895   4.018  1.1647 -0.3992 -0.7663
18571TIP3    H277129   6.515   5.000   3.910 -0.9153  1.1475  0.3855
18572TIP3   OH277130   4.114   1.306   3.600 -0.3270  0.1393  0.2243
18572TIP3    H177131   4.040   1.334   3.547  0.0356  0.4803 -0.1082
18572TIP3    H277132   4.191   1.330   3.548 -0.0247 -2.5743 -0.6154
18573TIP3   OH277133   3.066   3.924   5.296  0.2986 -0.5146  0.3591
18573TIP3    H177134   3.069   3.832   5.271  1.2288 -0.0966 -1.0968
18573TIP3    H277135   3.050   3.922   5.391  2.2131 -2.2026  0.6699
18574TIP3   OH277136   2.106   5.194   3.803  0.5895 -0.5372  0.3984
18574TIP3    H177137   2.014   5.222   3.797  0.7574  0.3501  1.7163
18574TIP3    H277138   2.108   5.110   3.757 -0.8424 -0.4722  0.1695
18575TIP3   OH277139   1.920   3.320   5.458 -0.4079  1.1368  0.5204
18575TIP3    H177140   1.902   3.231   5.487 -0.4787  1.4033  1.3280
18575TIP3    H277141   2.012   3.318   5.429 -0.9863  0.3604 -1.2918
18576TIP3   OH277142   1.406   3.474   5.824  0.7008 -0.1327  0.1006
18576TIP3    H177143   1.459   3.537   5.775 -0.0874  1.1605  0.8830
18576TIP3    H277144   1.470   3.423   5.874  1.2604  1.0075  0.5641
18577TIP3   OH277145   3.298   2.466   3.701 -0.2729  0.0356 -0.3233
18577TIP3    H177146   3.208   2.435   3.713  0.0221 -0.9301 -0.5563
18577TIP3    H277147   3.330   2.481   3.789 -0.0740 -1.3579 -0.1425
18578TIP3   OH277148   4.855   4.637   4.397  0.7963  0.4640 -0.3657
18578TIP3    H177149   4.837   4.724   4.432  1.1427  0.7838 -0.9806
18578TIP3    H277150   4.811   4.577   4.458 -0.7585  1.1313 -0.8198
18579TIP3   OH277151   0.030   5.636   4.158  0.3787 -0.1534  0.4832
18579TIP3    H177152   0.097   5.650   4.225  1.3634 -0.1304 -0.4813
18579TIP3    H277153   0.022   5.541   4.153  0.6598 -0.1702  0.3031
18580TIP3   OH277154   2.837   5.363   5.521 -0.3822  0.0180 -0.0653
18580TIP3    H177155   2.786   5.371   5.441 -0.4794 -1.5724 -0.1807
18580TIP3    H277156   2.906   5.429   5.513 -0.1363 -0.4230 -1.6634
18581TIP3   OH277157   2.782   0.764   4.153  0.0125  0.0894 -0.0915
18581TIP3    H177158   2.832   0.717   4.221  1.1819 -1.1306 -1.7588
18581TIP3    H277159   2.691   0.748   4.175  0.3840 -2.2378 -0.0866
18582TIP3   OH277160   0.805   4.174   4.186  0.1881  0.1871  0.2338
18582TIP3    H177161   0.807   4.088   4.227  1.1282 -0.5448 -1.2804
18582TIP3    H277162   0.896   4.204   4.190  0.5548 -0.4424 -2.3668
18583TIP3   OH277163   0.754   5.231   4.570 -0.0493 -0.4640  0.0578
18583TIP3    H177164   0.712   5.262   4.490 -0.6508 -1.0765  0.1288
18583TIP3    H277165   0.742   5.302   4.633  0.8312  0.2091 -0.5319
18584TIP3   OH277166   0.317   4.218   4.128  0.2624  0.6524  0.5506
18584TIP3    H177167   0.357   4.251   4.209  0.8088  0.0272  0.5455
18584TIP3    H277168   0.307   4.125   4.144 -1.0342  0.7791  0.4640
18585TIP3   OH277169   3.304   5.569   6.230  0.3218 -0.2623  0.5031
18585TIP3    H177170   3.341   5.528   6.151  1.9091  0.9431  0.5745
18585TIP3    H277171   3.368   5.637   6.253 -1.8179  1.6946  0.8493
18586TIP3   OH277172   3.501   5.083   5.719 -0.1607  0.3665 -0.2232
18586TIP3    H177173   3.406   5.087   5.706 -0.1544 -0.1398 -0.4716
18586TIP3    H277174   3.528   5.007   5.667 -0.0987 -1.6113  2.5965
18587TIP3   OH277175   2.296   5.682   4.993 -0.7554  0.5837 -0.2397
18587TIP3    H177176   2.351   5.749   4.954 -0.3863 -0.2166 -1.1115
18587TIP3    H277177   2.208   5.699   4.958 -0.5256  0.1851 -1.0254
18588TIP3   OH277178   3.978   0.891   1.535 -0.5576 -0.4301  0.4048
18588TIP3    H177179   3.966   0.923   1.624  3.3936  1.9039  0.2058
18588TIP3    H277180   4.072   0.878   1.526 -0.9664 -1.6384 -3.1266
18589TIP3   OH277181   2.424   3.560   5.826  0.4883 -0.0296  0.1108
18589TIP3    H177182   2.444   3.531   5.915  0.5869 -0.2224  0.0253
18589TIP3    H277183   2.488   3.629   5.808  0.8176 -0.3746 -0.0182
18590TIP3   OH277184   2.944   4.696   3.999 -0.0740  0.2344  0.0096
18590TIP3    H177185   2.894   4.671   3.922  2.1458 -0.2001 -1.3414
18590TIP3    H277186   3.001   4.766   3.970 -2.1808  3.0581  2.3653
18591TIP3   OH277187   1.055   4.133   5.628 -0.2973 -0.3705 -0.3027
18591TIP3    H177188   1.059   4.229   5.631  0.3458 -0.4239  1.3378
18591TIP3    H277189   1.098   4.105   5.709 -1.2425 -2.0289 -0.3494
18592TIP3   OH277190   0.959   4.071   2.645 -0.3843  0.0666 -0.2385
18592TIP3    H177191   1.003   4.119   2.716 -0.6920  1.0421 -0.6934
18592TIP3    H277192   0.884   4.127   2.622 -0.8801 -0.7557 -0.6193
18593TIP3   OH277193   4.333   3.533   4.619 -0.5194 -0.1683  0.4448
18593TIP3    H177194   4.346   3.525   4.714 -1.3099 -1.3393  0.4773
18593TIP3    H277195   4.272   3.605   4.609 -1.5169 -0.9303  0.9331
18594TIP3   OH277196   1.015   3.867   5.800 -0.2819  1.1214 -0.5705
18594TIP3    H177197   1.068   3.932   5.846 -0.9803  0.6401  0.9180
18594TIP3    H277198   0.989   3.804   5.867 -1.5150  0.5404 -1.5702
18595TIP3   OH277199   0.852   3.329   5.556  0.2203  0.0889 -0.0451
18595TIP3    H177200   0.826   3.410   5.512 -0.3949 -0.2421 -0.2993
18595TIP3    H277201   0.834   3.346   5.649  0.1463  0.2631 -0.0903
18596TIP3   OH277202   3.426   5.626   5.169  0.1318  0.0770 -0.2281
18596TIP3    H177203   3.398   5.671   5.089  0.3772  0.9064  0.1489
18596TIP3    H277204   3.382   5.542   5.165 -0.8298  0.5889 -0.6385
18597TIP3   OH277205   1.867   5.810   4.744  0.0168  0.2207  0.3400
18597TIP3    H177206   1.774   5.797   4.729  0.2633 -0.2035 -0.8471
18597TIP3    H277207   1.910   5.764   4.672  1.1443  0.3965  0.8863
18598TIP3   OH277208   1.420   3.369   4.953  0.7305  0.4972 -0.1903
18598TIP3    H177209   1.392   3.403   5.038  0.0426  0.8187 -0.5470
18598TIP3    H277210   1.488   3.305   4.975 -0.3678 -0.3996  0.6814
18599TIP3   OH277211   5.079   4.441   4.194 -0.0254  0.1821  0.5393
18599TIP3    H177212   5.079   4.508   4.263  1.7827 -0.7719  1.4895
18599TIP3    H277213   5.059   4.360   4.240  1.1225 -0.4496 -0.0566
18600TIP3   OH277214   2.118   3.711   5.231 -0.0268  0.0456  0.1368
18600TIP3    H177215   2.056   3.639   5.243 -1.9963  1.0238 -3.3238
18600TIP3    H277216   2.066   3.790   5.252  0.7454  0.7227 -0.4744
18601TIP3   OH277217   1.508   4.338   4.345  0.4146  0.4822  0.4487
18601TIP3    H177218   1.471   4.259   4.306 -0.8928  0.3697  1.8712
18601TIP3    H277219   1.540   4.310   4.430 -0.5770  1.5971  1.2019
18602TIP3   OH277220   1.616   3.131   5.518 -0.0224 -0.6746 -0.3640
18602TIP3    H177221   1.571   3.211   5.546  0.0560 -1.1819  1.2409
18602TIP3    H277222   1.671   3.107   5.592  0.4906 -1.8368 -1.1060
18603TIP3   OH277223   5.036   5.806   5.822 -0.4711 -0.2268  0.7711
18603TIP3    H177224   5.065   5.744   5.889  1.5491  0.3322  0.4497
18603TIP3    H277225   5.025   5.888   5.869 -0.2269 -0.1190  0.6395
18604TIP3   OH277226   1.028   4.037   4.431 -0.1453  0.6843  0.0580
18604TIP3    H177227   0.965   3.968   4.409 -0.2756  0.5836  0.7472
18604TIP3    H277228   1.113   3.994   4.432 -0.2367  0.5163  0.5719
18605TIP3   OH277229   2.069   5.667   3.357  0.0279 -0.2347  0.2390
18605TIP3    H177230   2.157   5.675   3.393  0.4449  0.0297 -0.8211
18605TIP3    H277231   2.055   5.749   3.311 -1.0399 -0.0041  0.9592
18606TIP3   OH277232   3.151   4.660   5.511 -0.2189  0.6118 -0.1137
18606TIP3    H177233   3.101   4.585   5.482  1.5671 -0.5200 -0.3449
18606TIP3    H277234   3.107   4.689   5.591 -0.5808 -1.0428  0.3016
18607TIP3   OH277235   3.120   3.865   5.569  0.3249 -0.1202  0.5602
18607TIP3    H177236   3.051   3.863   5.635 -0.2955 -1.7118 -0.1169
18607TIP3    H277237   3.201   3.864   5.620 -0.1461 -0.3868  1.3162
18608TIP3   OH277238   3.026   4.311   4.747  0.0362  0.1392  0.4117
18608TIP3    H177239   2.980   4.389   4.778 -2.2016 -0.9409 -0.0604
18608TIP3    H277240   3.049   4.263   4.827  0.2853  0.6629  0.6540
18609TIP3   OH277241   1.889   3.413   6.427 -0.1153 -0.1484  0.3364
18609TIP3    H177242   1.968   3.455   6.461  0.7276 -0.1171 -1.6024
18609TIP3    H277243   1.920   3.330   6.390 -0.8686  0.2319 -1.1690
18610TIP3   OH277244   6.978   5.886   4.602 -0.1040 -0.2261 -0.3965
18610TIP3    H177245   6.949   5.929   4.522  0.6009 -0.4959 -0.8037
18610TIP3    H277246   7.011   5.957   4.657 -3.4707  0.3849  0.9694
18611TIP3   OH277247   0.762   4.376   3.994 -0.6582  0.0143  0.4622
18611TIP3    H177248   0.771   4.312   4.064  1.1722 -1.5725 -1.1708
18611TIP3    H277249   0.809   4.453   4.027  1.6833 -1.3031  0.3211
18612TIP3   OH277250   4.714   5.455   4.514  0.3811 -0.2140  0.2816
18612TIP3    H177251   4.676   5.368   4.502  0.5729 -0.5121  1.6936
18612TIP3    H277252   4.653   5.499   4.574  0.2847  0.6285 -0.4243
18613TIP3   OH277253   5.202   4.324   4.842 -0.5313  0.3752  0.5289
18613TIP3    H177254   5.142   4.272   4.895 -1.7713  0.1027 -1.1184
18613TIP3    H277255   5.267   4.262   4.811 -1.3105  0.0440 -0.4318
18614TIP3   OH277256   2.295   4.361   5.502 -0.0689 -0.1864 -0.4950
18614TIP3    H177257   2.339   4.277   5.500 -1.0314 -0.7366  0.6712
18614TIP3    H277258   2.363   4.424   5.527  0.3546 -0.8071 -0.0866
18615TIP3   OH277259   6.593   6.084   4.225 -0.2788 -0.3535  0.3493
18615TIP3    H177260   6.600   6.032   4.145  0.8155  0.6640 -0.2425
18615TIP3    H277261   6.525   6.148   4.207  0.6374  0.5050 -0.1606
18616TIP3   OH277262   3.926   6.214   4.834 -0.1803  0.0337 -0.4036
18616TIP3    H177263   3.969   6.296   4.811  1.0251 -0.1835  1.0771
18616TIP3    H277264   3.842   6.241   4.872 -1.3843  0.4538 -3.2181
18617TIP3   OH277265   4.215   5.546   5.040 -0.0596 -0.2785 -0.3892
18617TIP3    H177266   4.149   5.534   5.108  0.6871  0.7690  0.5446
18617TIP3    H277267   4.272   5.469   5.047  1.3846  0.9235  1.7713
18618TIP3   OH277268   5.157   5.082   4.155 -0.1375 -0.5097  0.0402
18618TIP3    H177269   5.197   5.109   4.238 -1.0944  1.1556 -0.0134
18618TIP3    H277270   5.085   5.145   4.142  0.5433 -0.2121 -2.4930
18619TIP3   OH277271   3.075   4.147   4.134 -0.1557 -0.2305 -0.0696
18619TIP3    H177272   3.165   4.152   4.102 -1.1723 -1.2716 -3.2895
18619TIP3    H277273   3.065   4.056   4.163  0.0553  0.0930  1.0319
18620TIP3   OH277274   3.635   3.915   4.748 -0.4449  0.1410 -0.5158
18620TIP3    H177275   3.712   3.943   4.797  0.2478 -2.1492 -0.2000
18620TIP3    H277276   3.578   3.876   4.815 -0.0300 -1.8857 -1.2862
18621TIP3   OH277277   4.165   6.339   2.757 -0.2313 -0.3849 -0.4591
18621TIP3    H177278   4.185   6.296   2.673 -0.8291 -1.7179  0.0695
18621TIP3    H277279   4.139   6.428   2.732 -0.9388 -0.9329 -1.7287
18622TIP3   OH277280   6.519   3.727   1.948 -0.0451  0.8321  0.3795
18622TIP3    H177281   6.516   3.693   1.859  1.4060 -0.0592  0.6522
18622TIP3    H277282   6.537   3.821   1.937  0.3674  0.6844 -0.2568
18623TIP3   OH277283   2.553   2.747   5.171 -0.2577 -0.4711 -0.4265
18623TIP3    H177284   2.462   2.748   5.199 -0.4571 -0.9439 -1.0493
18623TIP3    H277285   2.589   2.830   5.202 -0.7205 -0.5806  0.4066
18624TIP3   OH277286   4.350   3.463   4.885  0.4850 -0.5041 -0.7923
18624TIP3    H177287   4.407   3.412   4.827  2.8067  1.1179  0.0046
18624TIP3    H277288   4.391   3.455   4.971 -0.1887  1.1117 -0.3036
18625TIP3   OH277289   2.387   4.622   4.561 -0.2852  0.3823  0.2207
18625TIP3    H177290   2.436   4.689   4.610 -0.7132  0.1892  0.9203
18625TIP3    H277291   2.321   4.591   4.623  1.1435 -2.0758  0.5615
18626TIP3   OH277292   5.128   5.172   1.464  0.1009 -0.1022  0.2042
18626TIP3    H177293   5.206   5.119   1.445  0.4082  0.9534 -1.5863
18626TIP3    H277294   5.141   5.203   1.553  1.5866 -0.2093  0.0431
18627TIP3   OH277295   3.788   6.627   3.425 -0.0792  0.0021 -0.0250
18627TIP3    H177296   3.755   6.612   3.337 -2.2392  2.5935  0.2614
18627TIP3    H277297   3.760   6.550   3.475 -0.2964 -0.6974 -1.2221
18628TIP3   OH277298   1.497   2.406   3.223  0.2805  0.3147 -0.0495
18628TIP3    H177299   1.493   2.450   3.308  1.6763  2.4970 -1.0636
18628TIP3    H277300   1.493   2.478   3.159 -0.8777 -1.2913 -1.8324
18629TIP3   OH277301   5.092   0.820   3.319  0.2544 -0.2734 -0.3862
18629TIP3    H177302   5.067   0.760   3.389  0.7305 -0.3355 -0.2671
18629TIP3    H277303   5.048   0.787   3.241  0.1611 -0.5173 -0.2287
18630TIP3   OH277304   5.507   5.311   5.412  0.0395 -0.2602  0.0099
18630TIP3    H177305   5.523   5.406   5.414  0.8197 -0.4112  1.0606
18630TIP3    H277306   5.465   5.296   5.327 -0.3246  1.0683 -0.0556
18631TIP3   OH277307   3.088   5.424   4.340  0.0984  0.0507 -0.0742
18631TIP3    H177308   3.063   5.402   4.430 -0.1899  1.3409  0.1822
18631TIP3    H277309   3.168   5.375   4.324  0.7476  0.6462  1.2705
18632TIP3   OH277310   3.774   4.344   5.359  0.9819  0.0636  0.8892
18632TIP3    H177311   3.748   4.257   5.329 -0.6578  0.0287  2.2866
18632TIP3    H277312   3.698   4.400   5.340  0.6654  0.4327  3.0654
18633TIP3   OH277313   3.437   3.601   5.920 -0.4663 -0.2489  0.0913
18633TIP3    H177314   3.519   3.572   5.961 -0.0454 -1.4004 -1.4988
18633TIP3    H277315   3.371   3.541   5.954 -0.6004  0.4791  1.1287
18634TIP3   OH277316   4.979   4.166   2.772  0.1523  0.4345 -0.4598
18634TIP3    H177317   4.939   4.225   2.708  0.0054  1.1913  0.3302
18634TIP3    H277318   5.064   4.144   2.734 -0.5951 -0.4109 -1.6883
18635TIP3   OH277319   2.261   3.231   5.794 -0.5829 -0.6688 -0.1863
18635TIP3    H177320   2.170   3.204   5.779  0.0602 -2.5145 -0.8860
18635TIP3    H277321   2.269   3.236   5.889 -1.4449 -0.3670 -0.1237
18636TIP3   OH277322   3.612   0.184   5.151 -0.3893 -0.1790 -0.2191
18636TIP3    H177323   3.529   0.138   5.146  0.5287 -1.8423 -0.5355
18636TIP3    H277324   3.673   0.130   5.101  0.7054  1.4291 -0.6883
18637TIP3   OH277325   3.481   2.983   4.454  0.4735  0.3203  0.2841
18637TIP3    H177326   3.463   2.933   4.375  0.7698  0.4099  0.1583
18637TIP3    H277327   3.575   3.002   4.449  0.2105  1.6274 -0.0989
18638TIP3   OH277328   4.604   2.708   4.024  0.3589  0.0536 -0.3687
18638TIP3    H177329   4.638   2.661   4.100 -2.3026 -3.2887 -1.0914
18638TIP3    H277330   4.542   2.771   4.061 -0.5982 -1.2512  0.2854
18639TIP3   OH277331   0.799   4.134   5.324 -0.3885  0.3329  0.2328
18639TIP3    H177332   0.762   4.190   5.392 -0.0422 -0.2703  0.9142
18639TIP3    H277333   0.731   4.132   5.256 -0.5545  1.2769  0.3719
18640TIP3   OH277334   2.710   1.605   4.784 -0.3344 -0.1251  0.4961
18640TIP3    H177335   2.798   1.595   4.821  0.0759  0.1292 -0.3814
18640TIP3    H277336   2.687   1.696   4.800  0.6969  0.5633 -1.6355
18641TIP3   OH277337   1.530   4.546   5.674  0.0999 -0.7735  0.3187
18641TIP3    H177338   1.445   4.573   5.640  0.1517  0.3350  1.0428
18641TIP3    H277339   1.592   4.607   5.634  0.6861 -2.1420 -0.9246
18642TIP3   OH277340   3.141   4.764   5.771  0.2438 -0.4368  0.0954
18642TIP3    H177341   3.182   4.691   5.816  1.3786  0.4657  0.5499
18642TIP3    H277342   3.153   4.838   5.831  3.3209  1.2015 -2.4341
18643TIP3   OH277343   1.092   5.034   5.443 -0.6909 -0.2697  0.4116
18643TIP3    H177344   1.021   4.975   5.469 -0.2449 -1.1303 -0.3036
18643TIP3    H277345   1.159   5.022   5.510 -0.9478  0.0583  0.7308
18644TIP3   OH277346   0.630   6.418   3.655 -0.3907 -0.2405  0.1039
18644TIP3    H177347   0.690   6.448   3.724 -1.0404  1.4781 -0.0409
18644TIP3    H277348   0.687   6.388   3.584  0.2937  0.5708  0.3034
18645TIP3   OH277349   2.879   5.364   5.125 -0.1343 -0.0566  0.4254
18645TIP3    H177350   2.838   5.321   5.051  1.4219 -1.1446  0.1605
18645TIP3    H277351   2.929   5.436   5.086  0.5986 -0.5639  0.4180
18646TIP3   OH277352   5.033   3.871   5.655  0.4928  0.1772  0.2766
18646TIP3    H177353   5.060   3.935   5.589  1.3555 -0.4081  0.0502
18646TIP3    H277354   5.052   3.786   5.614 -0.2639 -0.2134  0.7291
18647TIP3   OH277355   2.436   3.792   4.944  0.0763  0.1839  0.2597
18647TIP3    H177356   2.518   3.830   4.912 -1.2923 -0.5921 -4.6287
18647TIP3    H277357   2.381   3.868   4.963  0.7568  0.6888  0.2569
18648TIP3   OH277358   4.784   5.954   5.617  0.3509  0.6977 -0.1829
18648TIP3    H177359   4.841   5.884   5.584 -0.1853  0.4792 -0.6454
18648TIP3    H277360   4.711   5.957   5.556 -1.2086 -0.4441  1.5716
18649TIP3   OH277361   1.511   5.960   3.679 -0.7467  0.4425 -0.3625
18649TIP3    H177362   1.452   6.006   3.738 -1.8368 -0.6647 -0.5729
18649TIP3    H277363   1.456   5.894   3.636  0.2298  0.6460 -1.9557
18650TIP3   OH277364   4.273   4.839   5.424 -0.2796  0.0867 -0.5551
18650TIP3    H177365   4.316   4.923   5.433  0.3965 -0.3558  0.3767
18650TIP3    H277366   4.226   4.826   5.506  0.6759 -1.0351 -0.1740
18651TIP3   OH277367   3.380   6.823   5.454  0.0016  0.2651  0.1947
18651TIP3    H177368   3.333   6.879   5.392 -1.0320 -0.1944  0.5360
18651TIP3    H277369   3.396   6.879   5.530  1.3418  0.8499 -0.5078
18652TIP3   OH277370   2.547   5.036   4.950 -0.0990  0.1623  0.0279
18652TIP3    H177371   2.558   5.062   5.041 -1.1955  0.5525  0.0478
18652TIP3    H277372   2.593   5.103   4.900 -0.2583  0.4264  0.2398
18653TIP3   OH277373   3.954   3.469   5.094 -0.0877 -0.0096  0.8126
18653TIP3    H177374   4.018   3.537   5.072 -1.8215  1.3078 -0.3377
18653TIP3    H277375   3.879   3.488   5.038 -1.9614 -0.8068  2.9670
18654TIP3   OH277376   4.604   5.859   5.247  0.2364  0.1693  0.0170
18654TIP3    H177377   4.636   5.794   5.186  1.3264  0.1440  0.6142
18654TIP3    H277378   4.521   5.823   5.280  0.7296 -0.8134  0.1867
18655TIP3   OH277379   3.991   6.397   4.438  0.7406  0.2744  0.0269
18655TIP3    H177380   4.053   6.458   4.477  0.3918  0.7413 -0.1386
18655TIP3    H277381   4.027   6.310   4.456  2.2419  0.5789 -1.4257
18656TIP3   OH277382   4.010   3.900   4.218 -0.4443 -0.5390  0.3196
18656TIP3    H177383   3.923   3.859   4.221 -0.4702 -0.6920 -2.0671
18656TIP3    H277384   3.992   3.990   4.191  0.0975 -0.4126  0.3846
18657TIP3   OH277385   1.044   2.832   5.726  0.2132 -0.1741 -0.5442
18657TIP3    H177386   1.041   2.895   5.798 -1.8149 -0.5658 -0.2597
18657TIP3    H277387   0.986   2.761   5.753  2.1808 -2.0030 -1.0376
18658TIP3   OH277388   2.025   1.766   3.937  0.3652 -0.8622 -0.1553
18658TIP3    H177389   1.968   1.692   3.913  0.8364 -1.4453  0.5069
18658TIP3    H277390   2.114   1.733   3.923  0.5627 -0.1884 -0.5039
18659TIP3   OH277391   3.005   5.605   5.111 -0.0047  0.2469  0.0071
18659TIP3    H177392   2.912   5.627   5.106  0.4845  2.3253 -0.0857
18659TIP3    H277393   3.050   5.689   5.117  1.8762 -0.7412  0.1058
18660TIP3   OH277394   2.894   2.226   4.500  0.4570 -0.0015 -0.5019
18660TIP3    H177395   2.856   2.313   4.516  0.3838 -0.1770  0.3125
18660TIP3    H277396   2.824   2.165   4.522  0.4131 -0.2677 -1.3534
18661TIP3   OH277397   3.791   5.464   4.910  0.2595  0.5850  0.6435
18661TIP3    H177398   3.765   5.390   4.856  0.0831  0.5529  0.7738
18661TIP3    H277399   3.748   5.539   4.870  0.6862  0.6650  0.3266
18662TIP3   OH277400   2.823   2.602   4.439  0.2594  0.8043 -0.1299
18662TIP3    H177401   2.795   2.666   4.504 -0.3406  0.2086  0.1928
18662TIP3    H277402   2.744   2.581   4.389  0.2700 -0.3310  0.3176
18663TIP3   OH277403   1.158   4.318   3.008  0.0026  0.4414 -0.7488
18663TIP3    H177404   1.130   4.296   3.097  1.3035  0.8905 -0.2146
18663TIP3    H277405   1.251   4.341   3.017  0.1283  0.5589 -2.2109
18664TIP3   OH277406   1.531   2.106   3.224  0.3814 -0.2002  0.1442
18664TIP3    H177407   1.518   2.114   3.319  0.0012  0.5019  0.0366
18664TIP3    H277408   1.566   2.191   3.197  0.9184 -0.5533 -0.2764
18665TIP3   OH277409   7.294   1.942   4.485 -0.1741  0.5485 -0.1600
18665TIP3    H177410   7.362   1.981   4.541 -1.6272  2.8777  0.0539
18665TIP3    H277411   7.254   1.874   4.539 -0.4683  1.6735  1.0639
18666TIP3   OH277412   3.948   0.450   5.547 -0.4159 -0.7976  0.2724
18666TIP3    H177413   3.865   0.484   5.579 -0.7222 -1.0688 -0.2336
18666TIP3    H277414   3.932   0.357   5.530  0.7696 -1.5552  2.9106
18667TIP3   OH277415   6.158   3.941   4.837 -0.4807 -0.1422 -0.3536
18667TIP3    H177416   6.213   3.976   4.907 -1.2316 -0.7868  0.5683
18667TIP3    H277417   6.130   3.855   4.868 -3.2016  0.7600 -0.1429
18668TIP3   OH277418   1.619   3.433   6.020  0.4520 -0.2187 -0.0826
18668TIP3    H177419   1.629   3.513   6.073  1.5802 -0.7333  0.4989
18668TIP3    H277420   1.563   3.377   6.073  0.2567 -0.0959 -0.1596
18669TIP3   OH277421   3.396   5.037   5.239  0.0129  0.1714  0.0959
18669TIP3    H177422   3.330   4.969   5.248 -0.6041  0.5215 -1.5912
18669TIP3    H277423   3.433   5.023   5.151  0.8421  1.1528  0.2792
18670TIP3   OH277424   7.037   6.628   4.133 -0.7736  0.6553  0.0204
18670TIP3    H177425   7.027   6.533   4.128  0.6042  0.5083 -0.3620
18670TIP3    H277426   7.113   6.646   4.077 -1.5278  2.0755 -0.5612
18671TIP3   OH277427   2.943   1.493   5.000  0.1517 -0.4791 -0.3801
18671TIP3    H177428   2.969   1.585   5.005 -2.4612  0.4598 -2.9003
18671TIP3    H277429   2.882   1.481   5.072  0.7316 -0.3530  0.1416
18672TIP3   OH277430   0.967   4.856   4.723  0.0774 -0.3175  0.5149
18672TIP3    H177431   1.051   4.901   4.732  0.5017 -0.8162 -0.7966
18672TIP3    H277432   0.933   4.851   4.812  1.3498  0.0600  1.0394
18673TIP3   OH277433   6.037   5.749   3.962 -0.0773 -0.1714 -0.3087
18673TIP3    H177434   5.958   5.760   3.908  1.2241 -0.3923 -2.2911
18673TIP3    H277435   6.109   5.743   3.900  1.8201  2.2571  1.5187
18674TIP3   OH277436   6.349   5.276   5.690  0.4091  0.3123  0.1175
18674TIP3    H177437   6.265   5.234   5.671 -0.0686  1.0011  0.6533
18674TIP3    H277438   6.327   5.369   5.699  0.8632  0.2070  2.4612
18675TIP3   OH277439   4.650   0.279   4.024 -0.1242 -1.0305  0.4786
18675TIP3    H177440   4.569   0.229   4.023 -0.6764 -0.1195 -0.3642
18675TIP3    H277441   4.704   0.238   3.956  0.9427 -2.9389  2.3947
18676TIP3   OH277442   6.175   5.418   4.386 -0.0310 -0.0332 -0.5789
18676TIP3    H177443   6.200   5.424   4.294  1.1986  1.8173 -0.1553
18676TIP3    H277444   6.101   5.478   4.394 -0.3846 -0.4857 -0.4327
18677TIP3   OH277445   5.605   5.574   5.401  0.2036 -0.1858  0.4062
18677TIP3    H177446   5.692   5.614   5.396 -0.5235  1.1733 -3.3745
18677TIP3    H277447   5.547   5.645   5.426 -0.1805 -0.4689  0.3303
18678TIP3   OH277448   6.040   2.574   4.286  0.0969  0.0182 -0.0588
18678TIP3    H177449   5.948   2.580   4.313  0.9481  1.2245  2.7670
18678TIP3    H277450   6.089   2.569   4.368  2.5316 -1.5381 -1.5433
18679TIP3   OH277451   4.820   1.980   3.983 -0.0252 -0.1336 -0.6120
18679TIP3    H177452   4.881   2.044   3.947 -0.0243  0.5875  0.6486
18679TIP3    H277453   4.859   1.895   3.964  0.5046  0.2707 -1.3365
18680TIP3   OH277454   5.669   4.585   2.575  0.2734  0.4954  0.3042
18680TIP3    H177455   5.625   4.552   2.496  0.8636  0.4981 -0.0324
18680TIP3    H277456   5.599   4.598   2.638 -0.2440  0.7328 -0.3097
18681TIP3   OH277457   5.155   5.328   5.780 -0.5528  0.7662  0.2240
18681TIP3    H177458   5.160   5.265   5.707  0.9680  1.9364 -0.7185
18681TIP3    H277459   5.065   5.321   5.812 -0.6353 -1.2969 -0.3910
18682TIP3   OH277460   5.920   5.260   5.480  0.8482  0.2241 -0.3707
18682TIP3    H177461   5.996   5.299   5.436 -0.0747  0.9591 -1.3177
18682TIP3    H277462   5.957   5.217   5.558  2.1939  0.8255 -0.6692
18683TIP3   OH277463   6.667   3.975   2.929 -0.0714  0.4172 -0.4147
18683TIP3    H177464   6.755   3.942   2.908 -0.1276  0.5849 -0.9111
18683TIP3    H277465   6.613   3.949   2.854 -0.3143  0.8438 -0.3891
18684TIP3   OH277466   1.987   7.075   3.004  0.0315  0.0254  0.2955
18684TIP3    H177467   1.969   7.136   2.933  1.4746 -0.2592 -0.3187
18684TIP3    H277468   2.005   6.991   2.961  0.0436 -0.3580  1.0293
18685TIP3   OH277469   4.068   4.061   5.229 -0.4312  0.0370 -0.4250
18685TIP3    H177470   4.052   4.018   5.146 -2.6779  2.2283 -1.2145
18685TIP3    H277471   4.101   4.148   5.205  0.4921  0.1043  1.0150
18686TIP3   OH277472   5.922   5.160   3.880 -0.0413 -0.4535 -0.2500
18686TIP3    H177473   6.003   5.117   3.853 -0.1935  0.8507 -2.9995
18686TIP3    H277474   5.853   5.113   3.834 -0.6039  0.0121  0.1078
18687TIP3   OH277475   6.160   5.998   1.771 -0.0230  0.3143 -0.8439
18687TIP3    H177476   6.245   5.971   1.736 -0.5837 -1.9609 -0.5255
18687TIP3    H277477   6.180   6.074   1.826  1.9336 -0.7247 -0.0530
18688TIP3   OH277478   6.405   3.401   5.724  0.3659 -0.2702  0.5001
18688TIP3    H177479   6.432   3.488   5.754 -2.2357  0.2332  1.5537
18688TIP3    H277480   6.355   3.365   5.798 -1.2473 -1.3825 -1.0966
18689TIP3   OH277481   6.615   4.491   4.903  0.2979  0.2404 -0.6383
18689TIP3    H177482   6.647   4.565   4.954 -0.5989  1.5771 -1.9851
18689TIP3    H277483   6.529   4.471   4.940  0.0580  0.5995 -0.9951
18690TIP3   OH277484   2.523   6.511   3.345 -0.2098 -0.6026 -0.5821
18690TIP3    H177485   2.523   6.480   3.254 -1.0666 -0.5162 -0.6094
18690TIP3    H277486   2.450   6.465   3.387 -1.0177  0.7931 -0.4287
18691TIP3   OH277487   4.344   5.317   5.519  0.5723  0.3826 -0.5066
18691TIP3    H177488   4.328   5.255   5.590  0.2945  1.3111  0.2505
18691TIP3    H277489   4.326   5.267   5.440 -0.2127 -0.3367  0.1131
18692TIP3   OH277490   5.547   2.613   4.462 -0.6261 -0.1466 -0.5522
18692TIP3    H177491   5.531   2.698   4.422 -0.9717 -0.4200 -1.0015
18692TIP3    H277492   5.467   2.595   4.512 -1.2390 -0.9537 -1.7974
18693TIP3   OH277493   5.021   4.000   3.251  0.3408 -0.2784  0.4670
18693TIP3    H177494   5.002   4.011   3.344  1.4016 -0.0416  0.6661
18693TIP3    H277495   4.967   4.065   3.208  1.1785  0.8222  1.0649
18694TIP3   OH277496   4.978   4.634   5.425 -0.1756  0.1852 -0.2520
18694TIP3    H177497   4.916   4.706   5.437  0.5996  0.6595  1.0328
18694TIP3    H277498   4.925   4.555   5.432 -0.7725  0.5991 -0.0531
18695TIP3   OH277499   4.430   5.818   4.141 -0.2833  0.2422  0.2218
18695TIP3    H177500   4.486   5.889   4.109 -0.4397  1.4146  2.4760
18695TIP3    H277501   4.349   5.828   4.090  0.1660  0.8950 -0.3798
18696TIP3   OH277502   4.744   4.662   5.867 -0.6533  0.5822  0.3833
18696TIP3    H177503   4.712   4.711   5.943 -4.7070 -0.6552 -0.3972
18696TIP3    H277504   4.665   4.647   5.814  1.5257 -1.5527 -2.3503
18697TIP3   OH277505   6.066   6.967   5.095 -0.0031 -0.4490 -0.6127
18697TIP3    H177506   6.058   6.922   5.179 -1.0366 -2.4295 -1.7144
18697TIP3    H277507   6.154   7.003   5.094  0.1219 -0.6925  1.1750
18698TIP3   OH277508   4.330   4.020   5.474  0.2677 -0.0754 -0.1193
18698TIP3    H177509   4.277   3.960   5.525  0.7375 -0.0481  0.4096
18698TIP3    H277510   4.420   4.005   5.504  0.5508 -0.0357 -0.9132
18699TIP3   OH277511   5.303   4.251   3.061 -0.2501 -0.0877  0.4519
18699TIP3    H177512   5.292   4.158   3.042 -1.4879 -0.0606  0.9582
18699TIP3    H277513   5.245   4.267   3.135  1.4300  0.6727  1.6240
18700TIP3   OH277514   5.953   5.839   3.319  0.1069  0.2587  0.1388
18700TIP3    H177515   6.018   5.831   3.388  0.5980 -0.5411 -0.4048
18700TIP3    H277516   5.938   5.749   3.289  1.1644  0.7314 -1.9373
18701TIP3   OH277517   4.242   6.790   4.974 -0.2592  0.4809 -0.5078
18701TIP3    H177518   4.277   6.705   4.948 -0.3319  0.7676 -1.5432
18701TIP3    H277519   4.158   6.796   4.929 -0.0064  1.3408 -0.8624
18702TIP3   OH277520   6.593   6.226   3.398  0.4031  0.1671 -0.3463
18702TIP3    H177521   6.500   6.211   3.384  0.3912 -0.1890  0.1051
18702TIP3    H277522   6.599   6.317   3.426  0.0455 -0.2013  0.9508
18703TIP3   OH277523   6.865   4.618   6.221 -0.3644 -0.2606  0.4153
18703TIP3    H177524   6.784   4.630   6.172  0.7387  0.0413 -1.3509
18703TIP3    H277525   6.871   4.695   6.277 -1.0511 -0.0507  0.2023
18704TIP3   OH277526   1.492   5.925   5.961 -0.0150 -0.0379  0.1901
18704TIP3    H177527   1.585   5.910   5.944  0.2460  1.9842 -0.3064
18704TIP3    H277528   1.449   5.904   5.878  0.1023 -0.1351  0.1536
18705TIP3   OH277529   5.517   6.029   5.754 -0.6218 -0.3439 -0.6507
18705TIP3    H177530   5.527   6.061   5.664  0.3831 -1.3111 -0.8925
18705TIP3    H277531   5.507   5.934   5.745  1.1250 -0.6445  0.3487
18706TIP3   OH277532   5.614   4.095   4.649  0.0446 -0.1473  0.1472
18706TIP3    H177533   5.654   4.181   4.654  0.2628 -0.2234 -0.3292
18706TIP3    H277534   5.622   4.069   4.558  2.0612 -1.6668  0.7301
18707TIP3   OH277535   5.138   3.402   5.950  0.2141 -0.0980  0.1415
18707TIP3    H177536   5.068   3.467   5.938 -0.2135 -0.1425  2.3089
18707TIP3    H277537   5.093   3.318   5.949  0.1018 -0.0936  2.2521
18708TIP3   OH277538   6.734   5.503   3.555 -0.2171 -0.7227  0.0934
18708TIP3    H177539   6.765   5.423   3.597  0.5155 -0.5353 -0.0812
18708TIP3    H277540   6.684   5.548   3.623 -1.0175 -1.5370  0.0586
18709TIP3   OH277541   5.570   4.297   3.137  0.0127 -0.0999 -0.4475
18709TIP3    H177542   5.495   4.244   3.109  0.3392 -1.2148  0.7808
18709TIP3    H277543   5.617   4.315   3.055 -1.2041  0.0128 -1.1364
18710TIP3   OH277544   6.971   3.678   4.901 -0.2153 -0.0041 -0.1469
18710TIP3    H177545   7.022   3.625   4.840  0.6814  0.8851 -0.1666
18710TIP3    H277546   6.999   3.649   4.987 -0.1982 -0.0084 -0.1534
18711TIP3   OH277547   6.242   4.514   3.351  0.1240  0.4911  0.2184
18711TIP3    H177548   6.279   4.452   3.288  0.4683  0.6298  0.2815
18711TIP3    H277549   6.316   4.539   3.406 -0.2658  0.0515  0.9437
18712TIP3   OH277550   6.318   5.174   3.037 -0.0929  0.0239 -0.1713
18712TIP3    H177551   6.252   5.240   3.058 -0.3424 -0.1421 -0.4436
18712TIP3    H277552   6.401   5.222   3.040 -0.2370  0.2594  0.0412
18713TIP3   OH277553   3.471   5.256   3.244  0.4629 -0.3488  0.4601
18713TIP3    H177554   3.452   5.346   3.270 -0.1517 -0.0276 -1.0626
18713TIP3    H277555   3.538   5.265   3.176 -0.8558 -0.9259 -0.9327
18714TIP3   OH277556   6.160   5.762   4.578 -0.3314  0.4534  0.3091
18714TIP3    H177557   6.218   5.703   4.626  1.1883  1.0534 -0.7445
18714TIP3    H277558   6.162   5.844   4.626 -1.0902  0.1718  0.8225
18715TIP3   OH277559   5.139   5.013   6.366 -0.1900  0.4036  0.0676
18715TIP3    H177560   5.069   5.049   6.311  0.4585  1.3304 -0.1687
18715TIP3    H277561   5.137   5.066   6.446 -2.7463 -2.5075  2.0406
18716TIP3   OH277562   4.245   5.134   5.105 -0.2846 -0.0848  0.0949
18716TIP3    H177563   4.303   5.178   5.042  1.3971 -0.3746  1.4074
18716TIP3    H277564   4.272   5.042   5.101 -1.9615 -0.5642 -0.6573
18717TIP3   OH277565   4.246   6.835   3.554 -0.3654 -0.0578  0.3948
18717TIP3    H177566   4.192   6.848   3.476 -0.9649 -0.8454  0.6736
18717TIP3    H277567   4.320   6.895   3.542  0.0273 -0.8230 -1.2290
18718TIP3   OH277568   0.438   6.941   4.473  0.5920  0.0524 -0.0193
18718TIP3    H177569   0.470   7.020   4.516 -1.6893 -0.0554  2.0171
18718TIP3    H277570   0.407   6.886   4.545 -1.0283 -1.2171 -1.6411
18719TIP3   OH277571   2.202   6.387   4.040  0.4890  0.0125  0.0686
18719TIP3    H177572   2.188   6.482   4.035 -1.0545 -0.1686  0.6576
18719TIP3    H277573   2.238   6.363   3.955  0.8911  1.1312 -0.0848
18720TIP3   OH277574   4.992   5.793   5.433  0.2341  0.0304  0.0694
18720TIP3    H177575   4.920   5.732   5.416  0.7599 -0.0686 -1.8859
18720TIP3    H277576   5.046   5.748   5.498 -0.8715 -0.3700  0.7302
18721TIP3   OH277577   5.559   4.869   6.360 -0.1300 -0.1009 -0.2532
18721TIP3    H177578   5.612   4.868   6.440 -0.0273 -0.1227 -0.3207
18721TIP3    H277579   5.603   4.933   6.303  0.0596 -0.4215 -0.4692
18722TIP3   OH277580   5.746   6.657   6.088  0.0964 -0.1695 -0.4119
18722TIP3    H177581   5.836   6.690   6.084 -0.2790  1.3444  2.5089
18722TIP3    H277582   5.704   6.691   6.008  1.4840  1.0150 -0.6503
18723TIP3   OH277583   6.110   5.395   4.715  0.0343 -0.4445  1.3217
18723TIP3    H177584   6.175   5.384   4.785  0.7382 -0.3080  0.7003
18723TIP3    H277585   6.162   5.409   4.636 -0.7460 -1.0789  0.6815
18724TIP3   OH277586   5.268   6.397   2.918  0.3656 -0.8168  0.4929
18724TIP3    H177587   5.288   6.303   2.923 -2.7682 -1.6901 -1.9963
18724TIP3    H277588   5.249   6.413   2.826 -0.5971  1.9634  1.1172
18725TIP3   OH277589   3.890   6.284   5.505 -0.1706 -0.1906  0.4638
18725TIP3    H177590   3.887   6.256   5.596 -0.7919 -2.3877 -0.1883
18725TIP3    H277591   3.800   6.310   5.485 -0.3287 -1.0116  0.0977
18726TIP3   OH277592   5.881   6.097   3.279  0.2819 -0.2116  0.2113
18726TIP3    H177593   5.925   6.012   3.274 -1.3847 -1.0803  0.1262
18726TIP3    H277594   5.898   6.138   3.194 -1.3729 -1.7008 -0.8740
18727TIP3   OH277595   3.077   0.679   4.384 -0.3093 -0.3782 -0.6077
18727TIP3    H177596   2.991   0.636   4.386 -1.9346  2.6190 -2.2449
18727TIP3    H277597   3.070   0.748   4.449  1.1184 -0.5643 -0.2580
18728TIP3   OH277598   3.093   5.048   5.076 -0.2207 -0.0938 -0.3691
18728TIP3    H177599   3.020   4.989   5.095 -0.0709  0.3220  1.5433
18728TIP3    H277600   3.100   5.104   5.153  1.6630  0.3490 -0.8314
18729TIP3   OH277601   5.269   5.493   4.811  0.5362 -0.0751 -0.4091
18729TIP3    H177602   5.335   5.562   4.802  0.3328 -0.1029 -2.2888
18729TIP3    H277603   5.191   5.529   4.769 -0.2552 -0.5511  0.6601
18730TIP3   OH277604   5.573   5.506   5.087  0.0080 -0.3614 -0.0252
18730TIP3    H177605   5.509   5.437   5.103  1.2632 -1.8690 -1.2750
18730TIP3    H277606   5.627   5.507   5.166  0.4896 -1.4169 -0.3197
18731TIP3   OH277607   4.968   6.418   5.414  0.1733  0.3097  0.3573
18731TIP3    H177608   5.057   6.454   5.408 -0.4659  2.0030  0.9054
18731TIP3    H277609   4.982   6.324   5.424  1.8455  0.2711 -1.9354
18732TIP3   OH277610   4.559   4.641   3.809  0.2021  0.0470  0.3873
18732TIP3    H177611   4.468   4.613   3.802 -0.3311  2.2399 -2.6085
18732TIP3    H277612   4.604   4.568   3.852 -2.0537 -3.1408 -2.4381
18733TIP3   OH277613   5.245   2.997   4.532  0.2910  0.4312  0.6109
18733TIP3    H177614   5.205   3.083   4.530 -0.8313 -0.0808  0.9320
18733TIP3    H277615   5.204   2.949   4.460  1.3671  0.3567  0.0302
18734TIP3   OH277616   2.733   4.817   4.591 -0.0893  0.1878 -0.1618
18734TIP3    H177617   2.803   4.863   4.545 -0.2310  0.4224 -0.1410
18734TIP3    H277618   2.735   4.728   4.555 -2.7175  1.3808 -3.4046
18735TIP3   OH277619   1.330   3.500   3.233 -0.3721  0.4024  0.1951
18735TIP3    H177620   1.275   3.424   3.256  0.1633 -0.5111 -1.4815
18735TIP3    H277621   1.377   3.520   3.314  0.0723 -1.5830  0.4582
18736TIP3   OH277622   4.083   4.131   5.562 -0.3084 -0.4099  0.1203
18736TIP3    H177623   4.140   4.088   5.498  0.0634 -1.0486  0.8708
18736TIP3    H277624   4.072   4.067   5.632 -0.4104  0.4140  0.8782
18737TIP3   OH277625   6.385   5.136   3.776  0.2207 -0.3307  0.2578
18737TIP3    H177626   6.407   5.225   3.805 -2.2055  0.2389  0.4304
18737TIP3    H277627   6.465   5.104   3.733  1.4635  1.5234  1.1521
18738TIP3   OH277628   5.935   4.519   5.453 -0.1929  0.0246 -0.6209
18738TIP3    H177629   5.845   4.541   5.427 -0.1838  0.8559  0.0308
18738TIP3    H277630   5.959   4.588   5.514  0.0540 -1.5154  1.0409
18739TIP3   OH277631   3.326   4.628   4.362 -0.1487 -0.4108  0.2646
18739TIP3    H177632   3.270   4.615   4.285  2.0785  1.5146 -1.7108
18739TIP3    H277633   3.284   4.699   4.410 -1.2572 -1.2644  0.5798
18740TIP3   OH277634   4.680   3.101   3.231  0.0529  0.0121  0.1286
18740TIP3    H177635   4.591   3.104   3.265  0.5637 -0.0431  1.5137
18740TIP3    H277636   4.717   3.187   3.253 -0.1046  0.5905 -1.7456
18741TIP3   OH277637   0.480   5.333   5.333 -0.1085 -0.0094  0.4195
18741TIP3    H177638   0.555   5.358   5.279 -0.8701  0.1690 -0.5744
18741TIP3    H277639   0.465   5.241   5.311 -0.3622  0.0357  0.4078
18742TIP3   OH277640   5.526   3.184   3.797  0.0053  0.3650  0.2564
18742TIP3    H177641   5.531   3.119   3.866 -0.6515 -0.6530 -0.6406
18742TIP3    H277642   5.509   3.267   3.842  0.3601 -0.1642  1.3589
18743TIP3   OH277643   3.324   3.548   2.663 -0.3773  0.2519  0.6690
18743TIP3    H177644   3.344   3.546   2.756 -2.4914 -0.2854  1.1569
18743TIP3    H277645   3.234   3.581   2.659 -0.8356 -1.1408 -1.0787
18744TIP3   OH277646   4.447   5.072   5.377  0.0130 -0.1946  0.7864
18744TIP3    H177647   4.484   5.027   5.454  0.1366 -2.5094 -0.5774
18744TIP3    H277648   4.523   5.106   5.331  0.1464 -1.1038  0.3191
18745TIP3   OH277649   4.055   2.290   4.672 -0.1248 -0.0161  0.2348
18745TIP3    H177650   4.140   2.265   4.637  0.4426 -0.4911  1.8656
18745TIP3    H277651   4.066   2.285   4.767 -1.3406  2.0441  0.5263
18746TIP3   OH277652   1.960   5.729   4.486 -0.4640 -0.7473  0.2631
18746TIP3    H177653   1.930   5.785   4.415 -0.4569 -1.7097 -0.5170
18746TIP3    H277654   1.917   5.645   4.470 -0.8678 -0.8136  1.7034
18747TIP3   OH277655   6.272   3.709   3.975  0.3238  0.0031 -0.3467
18747TIP3    H177656   6.192   3.762   3.974 -0.3743 -0.9228  2.5868
18747TIP3    H277657   6.242   3.619   3.967  1.2931 -0.2196 -1.8233
18748TIP3   OH277658   5.240   5.192   6.017 -0.1656  0.1716 -0.4607
18748TIP3    H177659   5.191   5.224   6.092 -0.1476  2.0181 -1.1971
18748TIP3    H277660   5.197   5.232   5.941  1.5551  0.6559 -1.2100
18749TIP3   OH277661   4.578   5.448   5.466 -0.3489 -0.0606  0.2206
18749TIP3    H177662   4.493   5.413   5.441  0.3074 -0.7819 -1.0758
18749TIP3    H277663   4.615   5.381   5.524  0.2189 -0.7854 -0.9472
18750TIP3   OH277664   3.944   4.437   5.160 -0.4796  0.4393 -0.5465
18750TIP3    H177665   3.961   4.518   5.206 -0.6754 -0.1733  0.6239
18750TIP3    H277666   3.875   4.394   5.211  1.4592 -1.6827  0.3943
18751TIP3   OH277667   4.792   2.632   4.698 -0.3086  0.3456  0.3305
18751TIP3    H177668   4.875   2.597   4.730  0.4000  2.0064  0.3312
18751TIP3    H277669   4.751   2.558   4.652  0.7700 -0.7217  1.0668
18752TIP3   OH277670   5.887   4.851   3.289 -0.2334 -0.4537 -0.2516
18752TIP3    H177671   5.975   4.818   3.306  0.0930 -0.4428 -1.8349
18752TIP3    H277672   5.830   4.798   3.345  0.5571 -1.9335 -0.8043
18753TIP3   OH277673   5.485   5.757   5.785  0.2523 -0.2598 -0.1344
18753TIP3    H177674   5.538   5.749   5.864  1.4061 -0.9613 -0.9642
18753TIP3    H277675   5.418   5.689   5.794  0.1831 -0.1240  0.3889
18754TIP3   OH277676   5.261   3.936   4.592  0.1234 -0.4726  0.1703
18754TIP3    H177677   5.299   3.974   4.671  0.4083 -0.7466  0.1651
18754TIP3    H277678   5.292   3.993   4.521  1.9110 -1.6565 -0.0328
18755TIP3   OH277679   2.100   4.848   3.980  0.0257  0.1142 -0.3603
18755TIP3    H177680   2.082   4.829   4.072 -1.7366  0.8637 -0.5362
18755TIP3    H277681   2.103   4.763   3.937 -1.6747 -0.1170 -0.0508
18756TIP3   OH277682   4.287   6.104   5.652 -0.4259  0.2344  0.0861
18756TIP3    H177683   4.267   6.155   5.573 -1.4129  0.2561  0.3450
18756TIP3    H277684   4.317   6.168   5.716 -1.9534  0.5458  0.5085
18757TIP3   OH277685   4.985   2.857   5.945  0.8340  0.3683 -0.4718
18757TIP3    H177686   4.994   2.824   6.035  0.5926  1.6739  0.0461
18757TIP3    H277687   4.969   2.779   5.892 -1.7766 -0.1517  1.0142
18758TIP3   OH277688   1.943   2.072   4.757 -0.1933  0.1556  0.1498
18758TIP3    H177689   1.861   2.069   4.708  0.9038 -1.7178 -1.6334
18758TIP3    H277690   1.995   2.140   4.714  0.3945 -0.8180 -0.6838
18759TIP3   OH277691   4.759   4.011   4.741 -0.3167 -0.3875 -0.0053
18759TIP3    H177692   4.741   4.098   4.778 -1.9074 -0.7107  0.0161
18759TIP3    H277693   4.826   3.974   4.798  0.7234  1.0134 -0.2952
18760TIP3   OH277694   2.252   5.236   4.372 -0.1466 -0.1571 -0.3910
18760TIP3    H177695   2.283   5.169   4.432  0.9731 -0.2653 -1.0949
18760TIP3    H277696   2.293   5.216   4.289 -1.9113 -0.1700 -1.2883
18761TIP3   OH277697   6.453   4.729   5.165 -0.1326 -0.4746 -0.5364
18761TIP3    H177698   6.520   4.779   5.119 -1.3437  0.2628 -1.5247
18761TIP3    H277699   6.381   4.722   5.103 -2.6974  2.4493  1.9775
18762TIP3   OH277700   5.485   4.224   4.183 -0.2067  0.6001  0.1120
18762TIP3    H177701   5.444   4.296   4.230  0.1023  1.3146 -0.6983
18762TIP3    H277702   5.411   4.174   4.146 -0.4611 -0.1599  1.6128
18763TIP3   OH277703   5.956   4.865   5.234 -0.2647  0.1862  0.3983
18763TIP3    H177704   5.881   4.843   5.288  0.5240 -0.4509  1.2315
18763TIP3    H277705   6.002   4.934   5.283 -0.7192  1.1310 -0.4752
18764TIP3   OH277706   1.031   5.611   3.891  0.1540 -0.4588 -0.2857
18764TIP3    H177707   1.080   5.694   3.895  0.1007 -0.4278 -0.2817
18764TIP3    H277708   1.098   5.544   3.906 -0.1325 -0.3295  1.6856
18765TIP3   OH277709   4.582   4.052   5.153  0.2247  0.6061 -0.1162
18765TIP3    H177710   4.572   4.093   5.068 -0.2607 -0.4144 -0.5568
18765TIP3    H277711   4.493   4.029   5.180  0.3671  0.9904  0.6933
18766TIP3   OH277712   5.693   2.281   4.963 -0.1742  0.4683 -0.2682
18766TIP3    H177713   5.634   2.240   4.899 -0.4399  1.5945 -0.7591
18766TIP3    H277714   5.662   2.371   4.970 -0.0902  0.3767  1.3994
18767TIP3   OH277715   6.206   5.181   4.068  0.2196 -0.4076  0.0312
18767TIP3    H177716   6.223   5.110   4.006  1.5696 -1.0600  1.1231
18767TIP3    H277717   6.129   5.226   4.033  0.5341 -1.2065 -1.7239
18768TIP3   OH277718   0.190   6.205   2.987 -0.0914  0.4981  0.0839
18768TIP3    H177719   0.151   6.291   2.973  0.1301  0.8644  1.6134
18768TIP3    H277720   0.125   6.144   2.954 -0.7400  1.2224  0.0058
18769TIP3   OH277721   4.734   5.122   4.956 -0.2784  0.1510 -0.4245
18769TIP3    H177722   4.641   5.118   4.933 -0.1378  1.7835 -1.3153
18769TIP3    H277723   4.775   5.055   4.902 -0.9952 -0.9010  0.3130
18770TIP3   OH277724   4.530   5.387   5.147 -0.2503  0.1566  0.3752
18770TIP3    H177725   4.522   5.332   5.069 -0.3551  1.0021 -0.2216
18770TIP3    H277726   4.582   5.336   5.208  0.7550 -0.0813 -0.6612
18771TIP3   OH277727   4.426   4.735   5.868  0.1438  0.2992  0.3622
18771TIP3    H177728   4.492   4.776   5.923 -0.9203  0.3569  1.6356
18771TIP3    H277729   4.344   4.778   5.894 -0.2734  0.9624 -1.8980
18772TIP3   OH277730   6.986   4.351   2.930  0.2775  0.1299 -0.1344
18772TIP3    H177731   6.968   4.291   2.858 -1.2638  1.6514 -1.0804
18772TIP3    H277732   6.993   4.296   3.007  2.8143 -1.6210 -1.5729
18773TIP3   OH277733   6.610   5.328   5.826  0.0618 -0.4184 -0.3900
18773TIP3    H177734   6.604   5.315   5.731  0.8760 -1.2813 -0.3315
18773TIP3    H277735   6.681   5.392   5.837  0.6540 -1.0757 -0.3202
18774TIP3   OH277736   0.736   5.064   1.224  0.3487 -0.6308 -0.1285
18774TIP3    H177737   0.650   5.023   1.219  0.5638 -1.0488 -0.4899
18774TIP3    H277738   0.733   5.116   1.304 -0.5017 -0.0235 -0.5548
18775TIP3   OH277739   5.021   5.195   4.494 -0.2154  0.5415  0.1628
18775TIP3    H177740   5.078   5.200   4.570  0.0772  1.8479 -0.1346
18775TIP3    H277741   4.995   5.285   4.477 -3.1438 -0.1237  0.8620
18776TIP3   OH277742   4.396   4.311   1.396 -0.0493 -0.2548 -0.1282
18776TIP3    H177743   4.371   4.262   1.474  1.5540 -1.5174 -0.3830
18776TIP3    H277744   4.432   4.245   1.337  1.8909  1.1691 -0.5941
18777TIP3   OH277745   5.468   3.892   4.274 -0.9241 -0.0383  0.3229
18777TIP3    H177746   5.475   3.957   4.345  2.3476  0.3159 -0.2287
18777TIP3    H277747   5.429   3.941   4.201 -1.1840  0.5144  0.8240
18778TIP3   OH277748   6.145   5.711   5.077  0.6079  0.2151  0.6249
18778TIP3    H177749   6.109   5.791   5.116 -0.4342  0.2279 -0.3211
18778TIP3    H277750   6.226   5.740   5.034 -0.9860  1.2935 -1.7923
18779TIP3   OH277751   5.058   4.552   5.097 -1.0088  0.0169  0.1550
18779TIP3    H177752   5.064   4.543   5.192 -1.2804  1.2068  0.2853
18779TIP3    H277753   5.145   4.580   5.070 -1.8194  2.9987  0.4463
18780TIP3   OH277754   6.548   2.383   4.573  0.3328 -0.0326  0.1935
18780TIP3    H177755   6.539   2.473   4.541 -1.4589  0.2929  1.5085
18780TIP3    H277756   6.632   2.381   4.617  0.1863  1.1362  0.5441
18781TIP3   OH277757   0.070   4.326   2.363 -0.4759 -0.2630 -0.1859
18781TIP3    H177758   0.120   4.277   2.428 -1.9423 -0.6933  0.6488
18781TIP3    H277759   0.107   4.415   2.367 -1.3972  0.0704  2.2065
18782TIP3   OH277760   5.749   4.721   6.122 -0.2961  0.0658  0.1146
18782TIP3    H177761   5.743   4.816   6.113  1.7354  0.2074 -0.0301
18782TIP3    H277762   5.800   4.707   6.202  0.9446 -0.8557 -0.8184
18783TIP3   OH277763   5.844   5.773   4.893 -0.0414 -0.3970 -0.0788
18783TIP3    H177764   5.888   5.737   4.970  0.3311 -0.6991 -0.4335
18783TIP3    H277765   5.825   5.696   4.838 -2.7353 -0.5098  0.9519
18784TIP3   OH277766   6.945   7.093   4.249  0.2881  0.3614 -0.1559
18784TIP3    H177767   6.897   7.136   4.319 -1.3919 -0.7013 -0.6078
18784TIP3    H277768   6.981   7.014   4.289 -1.9956 -1.0688 -0.8054
18785TIP3   OH277769   4.587   4.355   6.120  0.7960  0.4457  0.1637
18785TIP3    H177770   4.512   4.303   6.149  0.0871  0.1826 -2.0783
18785TIP3    H277771   4.558   4.446   6.129  0.3369  0.3513 -0.2972
18786TIP3   OH277772   7.172   2.881   4.038 -0.5733 -0.0385  0.9173
18786TIP3    H177773   7.091   2.933   4.038 -0.0373  0.8222 -0.4872
18786TIP3    H277774   7.239   2.942   4.009  0.4728 -0.9299  1.4528
18787TIP3   OH277775   3.379   4.853   2.483  0.4796  0.6216  0.1168
18787TIP3    H177776   3.323   4.777   2.502  2.1164 -0.8751 -0.8388
18787TIP3    H277777   3.356   4.877   2.393  0.3363  0.9300  0.2369
18788TIP3   OH277778   6.104   4.070   3.824 -0.1247 -0.2513 -0.3276
18788TIP3    H177779   6.042   4.105   3.760  1.8776  1.8197 -1.2068
18788TIP3    H277780   6.119   3.980   3.797 -1.3422 -0.2102 -1.1836
18789TIP3   OH277781   4.702   3.493   5.213 -0.0968  0.6060  0.0648
18789TIP3    H177782   4.672   3.408   5.246 -0.0896  0.7017  0.3225
18789TIP3    H277783   4.640   3.556   5.248 -0.8551  0.5714 -1.2008
18790TIP3   OH277784   4.168   6.083   4.850  0.0884  0.2778  0.1809
18790TIP3    H177785   4.179   6.002   4.802 -0.4283  0.3285 -0.0176
18790TIP3    H277786   4.074   6.102   4.846  0.1387  0.6393  0.6190
18791TIP3   OH277787   4.442   6.725   3.187 -0.0945  0.2956  0.3301
18791TIP3    H177788   4.386   6.740   3.110  0.2084 -2.6055 -0.5090
18791TIP3    H277789   4.521   6.777   3.169 -0.4801  0.5086 -0.8232
18792TIP3   OH277790   4.060   2.916   3.604  0.3366 -0.5816 -0.5581
18792TIP3    H177791   3.985   2.921   3.543 -1.3096 -0.8484  1.3979
18792TIP3    H277792   4.114   2.845   3.568  0.7845  1.0193 -3.2006
18793TIP3   OH277793   6.534   4.848   3.025 -0.1306 -0.0216 -0.1150
18793TIP3    H177794   6.524   4.768   2.973 -1.3161 -0.6560  1.0636
18793TIP3    H277795   6.452   4.895   3.013 -0.1321  0.1686  0.6025
18794TIP3   OH277796   4.222   2.855   2.549 -0.6291  0.1491  0.0187
18794TIP3    H177797   4.279   2.783   2.578  0.8062  1.5188  0.6218
18794TIP3    H277798   4.238   2.862   2.455  0.6144  0.8947  0.2819
18795TIP3   OH277799   3.940   4.112   3.389  0.3344 -0.4840  0.8708
18795TIP3    H177800   3.950   4.018   3.377 -1.3879 -0.4603 -0.9749
18795TIP3    H277801   3.939   4.125   3.484 -3.2728 -2.7817  1.2139
18796TIP3   OH277802   3.947   5.606   4.417 -0.0216 -0.3925  0.5989
18796TIP3    H177803   3.903   5.529   4.381  0.4829  0.0359 -0.9718
18796TIP3    H277804   4.034   5.573   4.443  0.0916 -0.4152  0.1942
18797TIP3   OH277805   5.661   4.112   3.977  0.3675  0.3430  0.1579
18797TIP3    H177806   5.730   4.074   4.031 -0.1372 -3.3766 -1.6554
18797TIP3    H277807   5.606   4.160   4.039  2.6018  0.4090  2.1502
18798TIP3   OH277808   1.322   6.098   2.749  0.0596 -0.1107  0.5845
18798TIP3    H177809   1.313   6.193   2.744  1.1871  0.0324  0.9541
18798TIP3    H277810   1.235   6.064   2.731 -0.1243  0.9569 -0.5719
18799TIP3   OH277811   3.474   5.380   4.924 -0.2853 -0.2589 -0.4667
18799TIP3    H177812   3.390   5.408   4.961 -0.9932 -0.2356 -2.0152
18799TIP3    H277813   3.510   5.320   4.989 -0.6483  1.1366  1.0456
18800TIP3   OH277814   5.856   4.005   4.163  0.5446  0.3790 -0.0503
18800TIP3    H177815   5.950   3.989   4.160  0.3973 -0.3431 -0.9682
18800TIP3    H277816   5.817   3.920   4.181 -0.0023  0.4389 -0.9062
18801TIP3   OH277817   4.875   5.367   4.944 -0.5696 -0.3827  0.6202
18801TIP3    H177818   4.860   5.275   4.925  0.1185 -0.8895  2.3991
18801TIP3    H277819   4.789   5.408   4.938 -1.0046 -1.3040  0.6594
18802TIP3   OH277820   6.525   6.579   2.893 -0.4499 -0.6486  0.0866
18802TIP3    H177821   6.487   6.666   2.889  3.8089  1.2985 -1.0570
18802TIP3    H277822   6.549   6.567   2.986 -2.0070 -1.0916  0.4443
18803TIP3   OH277823   5.973   5.979   4.757  0.4094 -0.3955  0.2811
18803TIP3    H177824   5.914   5.984   4.681 -0.4630 -2.4827  0.7808
18803TIP3    H277825   5.940   5.905   4.808  1.9676 -0.0256  1.8800
18804TIP3   OH277826   4.746   6.012   2.296  0.6363  0.5326 -0.7567
18804TIP3    H177827   4.674   5.997   2.357  0.0297 -0.9833 -1.8106
18804TIP3    H277828   4.777   6.100   2.316 -0.6780  0.7078  0.5636
18805TIP3   OH277829   6.589   5.535   3.139  0.0900  0.3892  0.0786
18805TIP3    H177830   6.519   5.598   3.158 -1.4484 -1.2554 -0.0392
18805TIP3    H277831   6.649   5.582   3.080 -1.2582  1.5832 -0.3585
18806TIP3   OH277832   5.302   5.193   5.593  0.3154 -0.1788 -0.1264
18806TIP3    H177833   5.381   5.180   5.540  1.5128  0.7936  1.3765
18806TIP3    H277834   5.320   5.273   5.643 -1.0343 -0.7714  1.3293
18807TIP3   OH277835   7.250   2.669   5.590  0.3717  0.5610 -0.0744
18807TIP3    H177836   7.304   2.597   5.557 -1.6706 -0.1784 -1.9893
18807TIP3    H277837   7.311   2.727   5.636  2.1881 -1.9365  0.7265
18808TIP3   OH277838   6.063   4.877   5.642 -0.3625  0.2464  0.6508
18808TIP3    H177839   6.034   4.872   5.551  0.3329  3.3114  0.2334
18808TIP3    H277840   6.042   4.790   5.678  0.5594 -1.4730 -2.7484
18809TIP3   OH277841   5.718   5.551   4.035  0.7845 -0.1012  1.3249
18809TIP3    H177842   5.731   5.628   3.980  0.4338 -0.2228  1.0650
18809TIP3    H277843   5.657   5.580   4.103  0.3884 -0.2348  1.0332
18810TIP3   OH277844   6.290   5.905   5.302  0.0385 -0.5225 -0.8310
18810TIP3    H177845   6.288   5.994   5.269  1.7954 -0.1082  0.1343
18810TIP3    H277846   6.382   5.888   5.321 -0.2698 -2.5422 -1.0064
18811TIP3   OH277847   6.110   2.008   4.483 -0.5345 -0.0845 -0.1429
18811TIP3    H177848   6.029   1.958   4.494 -0.7891  0.2080 -0.6691
18811TIP3    H277849   6.088   2.076   4.419 -1.0552  2.6129  2.7749
18812TIP3   OH277850   5.656   4.842   5.111 -0.3188  0.0516 -0.6526
18812TIP3    H177851   5.705   4.905   5.164  0.4069 -0.0348 -1.2138
18812TIP3    H277852   5.700   4.843   5.026 -1.5193  0.2446 -1.2849
18813TIP3   OH277853   6.469   4.735   4.151  0.0926 -0.2547  0.3109
18813TIP3    H177854   6.523   4.720   4.228  0.4710 -0.2571  0.0425
18813TIP3    H277855   6.386   4.767   4.187 -0.9216 -3.3810  0.9391
18814TIP3   OH277856   5.427   2.930   5.312  0.2832  0.0826 -0.2403
18814TIP3    H177857   5.433   3.026   5.307 -1.0371  0.1922  0.2245
18814TIP3    H277858   5.473   2.908   5.393 -2.2525  0.6115  1.3761
18815TIP3   OH277859   4.159   5.112   5.970 -0.1980  0.0571 -0.2787
18815TIP3    H177860   4.164   5.180   6.037 -0.9025  0.5889 -0.7612
18815TIP3    H277861   4.174   5.030   6.018 -1.8575  0.3247  0.7345
18816TIP3   OH277862   5.820   6.474   5.183  0.3451  0.3089 -0.1265
18816TIP3    H177863   5.899   6.498   5.230 -0.0123  1.0112  0.1259
18816TIP3    H277864   5.749   6.488   5.247  0.0602 -0.7378 -0.2003
18817TIP3   OH277865   5.471   4.268   5.601 -0.0670  0.0050  0.6434
18817TIP3    H177866   5.467   4.198   5.536 -1.3406  1.7855 -1.2907
18817TIP3    H277867   5.560   4.302   5.595 -0.2730  0.3736 -0.4369
18818TIP3   OH277868   4.787   3.894   5.814 -0.4817  0.0414 -0.0697
18818TIP3    H177869   4.807   3.869   5.904 -0.8122  0.9242  0.2600
18818TIP3    H277870   4.867   3.876   5.765  0.8222  2.5495  1.0170
18819TIP3   OH277871   5.007   5.874   5.084  0.6175  0.3607  0.6016
18819TIP3    H177872   4.988   5.786   5.116 -0.3696  0.2025 -0.4025
18819TIP3    H277873   5.050   5.861   5.000 -1.9710  0.8481 -0.8515
18820TIP3   OH277874   4.398   4.767   5.202  0.0507  0.5500  0.0308
18820TIP3    H177875   4.481   4.813   5.211  0.4300 -0.2682  0.8217
18820TIP3    H277876   4.351   4.786   5.283 -0.4012  0.7529 -0.2792
18821TIP3   OH277877   4.701   3.334   4.624 -0.5963  0.3255 -0.0110
18821TIP3    H177878   4.619   3.289   4.600  0.5503 -1.4317 -0.7540
18821TIP3    H277879   4.702   3.333   4.719 -1.6391  0.7264  0.0117
18822TIP3   OH277880   3.661   5.754   4.500 -0.0355  1.0617 -0.5609
18822TIP3    H177881   3.696   5.803   4.425  0.9108 -0.3677 -1.0882
18822TIP3    H277882   3.693   5.664   4.486  0.6498  0.8974  1.8776
18823TIP3   OH277883   5.272   6.388   2.628  0.0652 -0.2814  0.0434
18823TIP3    H177884   5.312   6.411   2.545 -0.1302 -1.4559 -0.3966
18823TIP3    H277885   5.249   6.295   2.619  0.5126 -0.5665  1.5929
18824TIP3   OH277886   5.138   4.554   4.448 -0.4769  0.5374  0.8511
18824TIP3    H177887   5.045   4.574   4.463 -0.7861 -1.9596  2.4442
18824TIP3    H277888   5.185   4.615   4.505 -1.2689 -0.6894  2.8617
18825TIP3   OH277889   4.009   4.936   4.132  0.2490  0.2047 -0.0238
18825TIP3    H177890   4.102   4.915   4.122  0.2616 -0.1074  0.7448
18825TIP3    H277891   3.967   4.891   4.059  0.5906 -0.4086  0.1540
18826TIP3   OH277892   6.814   4.142   4.394  0.1489  0.1234  0.3892
18826TIP3    H177893   6.778   4.174   4.477  1.8130 -0.1051  1.2231
18826TIP3    H277894   6.906   4.126   4.412  0.9544  1.7906 -1.9998
18827TIP3   OH277895   5.916   3.445   4.131 -0.5522  0.0885  0.5554
18827TIP3    H177896   5.929   3.352   4.149 -0.5622  0.1926  1.1068
18827TIP3    H277897   5.888   3.482   4.215  1.0315  0.8822  0.7533
18828TIP3   OH277898   5.051   2.546   4.744 -0.2549  0.0913  0.2451
18828TIP3    H177899   5.117   2.598   4.697 -0.9129  0.2877 -0.4676
18828TIP3    H277900   5.079   2.455   4.731 -0.0789  0.1767  0.0146
18829TIP3   OH277901   6.924   5.547   1.991  0.5087 -0.1156  0.4851
18829TIP3    H177902   6.967   5.597   2.060  1.2985  1.6498 -1.2467
18829TIP3    H277903   6.832   5.572   1.995  0.6928  0.5644  0.3927
18830TIP3   OH277904   6.391   3.756   3.290 -0.0536 -0.5321  0.2369
18830TIP3    H177905   6.382   3.676   3.342 -0.2189 -0.3571  0.4801
18830TIP3    H277906   6.483   3.757   3.262  0.4848  0.2342  1.9544
18831TIP3   OH277907   0.140   5.123   2.788  0.5419  0.0726 -0.6005
18831TIP3    H177908   0.148   5.077   2.872 -0.9567 -0.7675 -0.8921
18831TIP3    H277909   0.229   5.151   2.768  0.7161  1.6188  2.0007
18832TIP3   OH277910   6.658   5.045   3.696 -0.4842 -0.0799  0.2033
18832TIP3    H177911   6.736   4.990   3.708 -0.5307 -0.1688  0.0996
18832TIP3    H277912   6.689   5.135   3.704 -0.1421 -0.0661 -1.1194
18833TIP3   OH277913   5.809   2.955   4.382  0.1118 -0.0519  0.0173
18833TIP3    H177914   5.891   2.910   4.363  0.5949  0.3049  1.2252
18833TIP3    H277915   5.742   2.887   4.376  0.8575 -0.9829  1.9978
18834TIP3   OH277916   6.400   4.138   3.579  0.5170  0.1402 -0.4036
18834TIP3    H177917   6.463   4.103   3.643  0.4774  1.7446  0.5233
18834TIP3    H277918   6.455   4.175   3.509  0.5907  0.5287 -0.1404
18835TIP3   OH277919   5.876   4.493   3.209  0.3353  0.4636 -0.4768
18835TIP3    H177920   5.920   4.408   3.217 -0.3777  0.1127 -0.2510
18835TIP3    H277921   5.858   4.502   3.116 -0.8672 -0.2833 -0.3158
18836TIP3   OH277922   7.010   3.772   5.882  0.1701 -0.6459  0.3667
18836TIP3    H177923   6.973   3.770   5.971  2.9491 -0.9134  1.5558
18836TIP3    H277924   6.987   3.859   5.849 -1.7900 -0.9163  0.9200
18837TIP3   OH277925   5.759   3.985   5.435  0.0004  0.0646 -0.2866
18837TIP3    H177926   5.837   4.010   5.485 -1.7875  1.3199  2.0263
18837TIP3    H277927   5.760   3.890   5.435  1.1478  0.0634  0.3298
18838TIP3   OH277928   5.437   4.238   2.736 -0.5593 -0.0298  0.3084
18838TIP3    H177929   5.458   4.295   2.810  1.8377 -1.0749  0.4897
18838TIP3    H277930   5.509   4.249   2.675  0.6060 -3.7164  0.8937
18839TIP3   OH277931   0.233   0.441   3.360 -0.2272  0.0044 -0.1973
18839TIP3    H177932   0.305   0.378   3.363 -1.2963 -1.5228 -3.4547
18839TIP3    H277933   0.160   0.391   3.322 -2.3748  2.0935  1.0802
18840TIP3   OH277934   3.298   4.410   2.475 -0.1254  0.6183  0.0489
18840TIP3    H177935   3.264   4.360   2.549 -1.5058  2.3053  0.5984
18840TIP3    H277936   3.350   4.347   2.425  0.3422 -0.6864  2.1175
18841TIP3   OH277937   5.913   5.187   5.138 -0.9887  0.4106  0.0826
18841TIP3    H177938   5.977   5.156   5.202 -1.3083  2.4187  1.4220
18841TIP3    H277939   5.950   5.161   5.053  0.5880 -0.2477  0.9435
18842TIP3   OH277940   5.983   4.538   3.458  0.7061  0.1071  0.5323
18842TIP3    H177941   5.918   4.513   3.392  0.1808  1.5723  0.4734
18842TIP3    H277942   6.068   4.528   3.414  0.3435  1.3178 -0.4680
18843TIP3   OH277943   4.211   4.581   3.506 -0.1074 -0.0803  0.2604
18843TIP3    H177944   4.234   4.489   3.493  0.5474  0.1923 -0.5192
18843TIP3    H277945   4.175   4.609   3.422  3.2022  1.4182 -0.7424
18844TIP3   OH277946   6.476   4.329   5.867 -0.8022  0.1672 -0.6157
18844TIP3    H177947   6.550   4.350   5.810 -1.2898 -0.7112 -1.5901
18844TIP3    H277948   6.448   4.414   5.902  1.3585  0.4084  0.6798
18845TIP3   OH277949   4.816   6.100   3.685 -0.2985 -0.0683  0.0014
18845TIP3    H177950   4.863   6.143   3.614 -2.7430 -0.2825 -1.8375
18845TIP3    H277951   4.812   6.165   3.755  0.9780  0.6321 -0.5666
18846TIP3   OH277952   2.844   6.643   3.690  0.2483  0.5202  0.3377
18846TIP3    H177953   2.758   6.644   3.647  0.2354  0.8563  0.3672
18846TIP3    H277954   2.905   6.670   3.621  0.5326 -1.2110 -0.1024
18847TIP3   OH277955   6.740   1.903   5.739 -0.5238  0.1763  0.3754
18847TIP3    H177956   6.802   1.834   5.765  0.1952  0.2408 -1.0810
18847TIP3    H277957   6.791   1.959   5.680 -2.1818 -0.2301 -1.5134
18848TIP3   OH277958   7.101   4.285   2.239 -0.2597 -0.2780  0.1712
18848TIP3    H177959   7.139   4.326   2.161 -1.4318  1.7918  0.6417
18848TIP3    H277960   7.152   4.320   2.312  0.4015 -1.6957  0.4143
18849TIP3   OH277961   3.749   5.324   5.347 -0.4975 -0.3598 -0.4912
18849TIP3    H177962   3.700   5.406   5.358 -0.4982 -0.3476 -0.5929
18849TIP3    H277963   3.791   5.310   5.433 -0.0679  0.0228 -0.6341
18850TIP3   OH277964   0.124   0.603   4.351  0.2000  0.1552  0.6017
18850TIP3    H177965   0.097   0.569   4.265 -1.2091  2.3337  0.1318
18850TIP3    H277966   0.218   0.588   4.354  0.2060 -0.3042 -1.1845
18851TIP3   OH277967   5.403   5.272   5.165 -0.2649  0.8691 -0.3226
18851TIP3    H177968   5.320   5.285   5.119  0.6402  1.3489 -1.8562
18851TIP3    H277969   5.429   5.183   5.142  1.0008  1.6814 -2.0937
18852TIP3   OH277970   6.209   5.331   5.395 -0.6032  0.3926  0.2467
18852TIP3    H177971   6.191   5.420   5.367 -1.7644  0.0676 -0.0571
18852TIP3    H277972   6.292   5.308   5.352  0.1057  1.5925  0.9560
18853TIP3   OH277973   5.859   5.551   4.751 -0.3316  0.2484  0.6634
18853TIP3    H177974   5.933   5.537   4.691 -0.7354  1.4543 -0.1340
18853TIP3    H277975   5.850   5.467   4.797  1.1864 -0.0870  0.3881
18854TIP3   OH277976   0.084   5.779   4.641 -0.2935 -0.0259 -0.1931
18854TIP3    H177977   0.052   5.690   4.654 -1.1397  0.4836  1.3119
18854TIP3    H277978   0.179   5.770   4.637 -0.1906 -0.7010  2.6450
18855TIP3   OH277979   5.987   3.167   4.131  1.1115 -0.2481  0.8132
18855TIP3    H177980   6.025   3.179   4.044  0.6326 -1.1726  0.4769
18855TIP3    H277981   6.053   3.116   4.179  0.9627 -0.5372  0.7072
18856TIP3   OH277982   3.794   6.117   3.783 -0.1326 -0.0569  0.4291
18856TIP3    H177983   3.859   6.186   3.791  1.4441 -1.4705  0.0760
18856TIP3    H277984   3.807   6.062   3.860  0.7384 -1.6901 -0.8361
18857TIP3   OH277985   5.613   6.065   3.404  0.4237  0.5047  0.1999
18857TIP3    H177986   5.576   6.140   3.451  0.8148  0.1905  1.0216
18857TIP3    H277987   5.695   6.099   3.366 -0.3290  1.0003 -1.0135
18858TIP3   OH277988   6.284   4.761   4.933 -0.0611 -0.3436  0.8053
18858TIP3    H177989   6.283   4.825   4.862  1.7670  1.0018  1.9311
18858TIP3    H277990   6.193   4.734   4.942 -0.4583  0.0940 -1.4619
18859TIP3   OH277991   6.040   7.012   4.204 -0.0171  0.0728 -0.3729
18859TIP3    H177992   6.104   7.075   4.237  0.3965 -0.0752 -0.8885
18859TIP3    H277993   6.020   6.956   4.279 -0.3636  0.7973  0.0747
18860TIP3   OH277994   6.475   0.165   5.392 -0.4190 -0.2356 -0.4958
18860TIP3    H177995   6.552   0.113   5.374  1.5103  2.2417  0.2617
18860TIP3    H277996   6.447   0.198   5.307  0.0468 -0.2413 -0.6515
18861TIP3   OH277997   3.924   6.204   2.846 -0.0027  0.8004 -0.2456
18861TIP3    H177998   3.930   6.113   2.816 -1.5570  0.4157  0.5326
18861TIP3    H277999   4.014   6.236   2.845  0.4480 -0.4648 -1.4046
18862TIP3   OH278000   3.550   4.924   4.719 -0.7271  0.3747 -0.2205
18862TIP3    H178001   3.546   4.856   4.652 -0.5916 -0.1230  0.2741
18862TIP3    H278002   3.519   5.003   4.675  0.0612  0.2107 -1.0641
18863TIP3   OH278003   3.211   4.826   5.279 -0.1151  0.3898 -0.0587
18863TIP3    H178004   3.200   4.750   5.336  1.3323  0.2634  0.0663
18863TIP3    H278005   3.176   4.899   5.331 -0.5740 -0.0254  0.2225
18864TIP3   OH278006   5.647   5.396   2.076 -0.7294  0.3191 -0.2716
18864TIP3    H178007   5.644   5.304   2.049 -2.2701 -0.2887  1.8619
18864TIP3    H278008   5.734   5.407   2.114 -1.0287 -0.6304  0.7192
18865TIP3   OH278009   5.619   2.544   4.951  0.2714 -0.3352 -0.1031
18865TIP3    H178010   5.525   2.557   4.963  0.4708  0.7801  0.3315
18865TIP3    H278011   5.657   2.564   5.037  0.8089 -1.8692  0.0347
18866TIP3   OH278012   6.535   3.067   5.465  0.8370 -0.7601 -0.1808
18866TIP3    H178013   6.463   3.006   5.452  1.2540 -1.1774 -0.5352
18866TIP3    H278014   6.611   3.024   5.426  1.3236 -0.4133  0.3642
18867TIP3   OH278015   5.249   5.798   4.391 -0.1208 -0.0531  0.4830
18867TIP3    H178016   5.183   5.729   4.386  0.5964 -0.6078 -3.3693
18867TIP3    H278017   5.203   5.877   4.361  0.7126 -0.2773 -1.4585
18868TIP3   OH278018   5.767   4.827   5.399  0.5248  0.9291  0.0232
18868TIP3    H178019   5.738   4.916   5.423  0.1342  0.7552  0.2011
18868TIP3    H278020   5.701   4.770   5.437  2.6286  0.3317  2.9486
18869TIP3   OH278021   3.222   4.464   5.197 -0.0368  0.1182 -0.7813
18869TIP3    H178022   3.204   4.533   5.133  1.8972  1.0502 -0.3640
18869TIP3    H278023   3.260   4.393   5.146 -4.6715 -1.9144 -1.6893
18870TIP3   OH278024   3.860   4.595   5.504 -0.5804 -0.3711 -0.0925
18870TIP3    H178025   3.816   4.545   5.435  0.4044  0.1066 -1.0842
18870TIP3    H278026   3.952   4.598   5.477 -0.3026  0.3982  0.8972
18871TIP3   OH278027   5.207   5.285   3.096  0.0453 -0.2265  0.5183
18871TIP3    H178028   5.133   5.224   3.097  0.5571 -0.9195 -1.8936
18871TIP3    H278029   5.276   5.241   3.146  0.7538 -2.1015 -2.0348
18872TIP3   OH278030   4.576   5.477   4.103 -0.0280 -0.2320 -0.2986
18872TIP3    H178031   4.665   5.456   4.075  0.0448  1.2544 -1.2423
18872TIP3    H278032   4.529   5.494   4.022 -0.7689  0.5148  0.2878
18873TIP3   OH278033   2.940   3.636   5.098  0.1196 -0.0730 -0.3351
18873TIP3    H178034   3.035   3.645   5.106 -0.0707  1.0370  0.8532
18873TIP3    H278035   2.927   3.549   5.061  1.6576  0.2698 -1.7542
18874TIP3   OH278036   3.341   4.049   3.559  0.2146 -0.6954  0.1554
18874TIP3    H178037   3.430   4.026   3.587  0.3011 -1.2589 -0.5611
18874TIP3    H278038   3.284   3.994   3.613  0.1886  1.2471  2.1758
18875TIP3   OH278039   5.489   6.186   4.978 -0.0079 -0.5802  0.4214
18875TIP3    H178040   5.578   6.199   5.013 -0.6643  1.6272  1.3293
18875TIP3    H278041   5.475   6.261   4.921 -0.1126 -2.5812 -2.2953
18876TIP3   OH278042   7.019   0.293   3.568 -0.4198  0.3171  0.6682
18876TIP3    H178043   6.965   0.280   3.490 -0.4414  1.0052  0.5578
18876TIP3    H278044   6.972   0.360   3.618 -0.2609  0.0799  1.1294
18877TIP3   OH278045   4.394   4.968   4.496  0.3470 -0.4668  0.1882
18877TIP3    H178046   4.382   4.888   4.446 -0.9112 -1.4213  1.9654
18877TIP3    H278047   4.306   5.003   4.508  0.6411 -0.1685  1.5871
18878TIP3   OH278048   4.966   3.857   4.924  0.1098  0.2694  0.5179
18878TIP3    H178049   5.055   3.827   4.945  0.6511  0.7725 -0.9954
18878TIP3    H278050   4.909   3.794   4.969  1.2249 -1.8912 -0.9654
18879TIP3   OH278051   0.945   7.065   1.010  0.7455  0.3100 -0.7235
18879TIP3    H178052   0.955   6.973   0.985 -0.8972  0.0769 -0.5903
18879TIP3    H278053   0.856   7.088   0.982 -0.3997  0.6478  2.8439
18880TIP3   OH278054   5.301   5.565   5.845 -0.1639 -0.3396  0.5832
18880TIP3    H178055   5.293   5.471   5.830  1.5046 -0.3556 -0.2830
18880TIP3    H278056   5.224   5.588   5.897 -0.3664 -2.2476  1.1296
18881TIP3   OH278057   6.265   2.596   5.641 -0.0007  0.0037  0.1617
18881TIP3    H178058   6.273   2.501   5.643  1.0534  0.0966  0.9210
18881TIP3    H278059   6.192   2.613   5.581 -0.0923 -1.2699 -0.1017
18882TIP3   OH278060   5.401   4.552   5.599 -0.1320  0.2710  0.0678
18882TIP3    H178061   5.328   4.600   5.638  0.2461  0.8253  0.1055
18882TIP3    H278062   5.385   4.461   5.622  0.0804  0.5891  1.5371
18883TIP3   OH278063   5.316   3.093   5.069  0.2136  0.4366  0.6840
18883TIP3    H178064   5.396   3.044   5.049 -0.3792 -0.1812 -0.2572
18883TIP3    H278065   5.246   3.039   5.032 -0.7352  0.4728  2.3657
18884TIP3   OH278066   6.730   6.164   5.815  0.2089 -0.6211 -0.1236
18884TIP3    H178067   6.646   6.138   5.852  0.2377 -2.9524 -1.5403
18884TIP3    H278068   6.707   6.213   5.736  0.1744  0.2791  0.4439
18885TIP3   OH278069   0.975   4.228   3.613 -0.2726 -0.0603  0.3347
18885TIP3    H178070   0.994   4.134   3.604 -1.4362 -0.3365  0.6539
18885TIP3    H278071   0.893   4.240   3.566  0.3826  1.0043 -0.5623
18886TIP3   OH278072   4.400   1.148   2.571  0.0202 -0.3916  0.3911
18886TIP3    H178073   4.430   1.074   2.519 -2.2721 -0.7472 -0.4698
18886TIP3    H278074   4.458   1.220   2.547  1.4555 -1.5637  0.2935
18887TIP3   OH278075   1.154   1.480   3.556 -0.0889  0.1530 -0.0348
18887TIP3    H178076   1.225   1.454   3.615  0.4963  1.6698 -0.0729
18887TIP3    H278077   1.172   1.432   3.475  0.8109  0.4299  0.0003
18888TIP3   OH278078   7.140   4.472   3.807 -0.1283 -0.1851  0.2847
18888TIP3    H178079   7.112   4.510   3.891  1.4958 -0.2556  0.8867
18888TIP3    H278080   7.062   4.477   3.751 -1.2419 -0.1608  1.8014
18889TIP3   OH278081   7.254   6.646   5.111 -0.2034  0.2474  0.0001
18889TIP3    H178082   7.220   6.734   5.094 -4.1263 -1.0232  0.7471
18889TIP3    H278083   7.272   6.645   5.205 -0.4817  0.1642  0.0536
18890TIP3   OH278084   6.240   6.705   3.863 -0.2523 -0.4213 -0.1032
18890TIP3    H178085   6.204   6.653   3.791 -1.9454  1.6112 -0.7841
18890TIP3    H278086   6.182   6.686   3.937 -1.3240  1.0265 -0.5537
18891TIP3   OH278087   6.070   1.969   5.269  0.0514  0.9643  0.6644
18891TIP3    H178088   5.978   1.977   5.244  0.2321  1.6806  0.2034
18891TIP3    H278089   6.070   1.980   5.364 -0.4413 -0.0016  0.7868
18892TIP3   OH278090   7.001   4.534   5.104 -0.6290 -0.3826 -0.7069
18892TIP3    H178091   6.925   4.487   5.140 -0.0967 -0.3236  0.5274
18892TIP3    H278092   7.066   4.465   5.088 -0.8708 -0.4114 -1.5967
18893TIP3   OH278093   6.476   3.170   2.573 -0.1424  0.3582 -0.4911
18893TIP3    H178094   6.472   3.181   2.478 -2.5459  1.3163 -0.2957
18893TIP3    H278095   6.419   3.238   2.608  1.3656  0.5324  1.6951
18894TIP3   OH278096   1.399   0.931   3.287 -0.4774 -0.3373 -0.5398
18894TIP3    H178097   1.400   0.945   3.192  1.2549 -2.9298 -0.9741
18894TIP3    H278098   1.325   0.873   3.302 -2.3008  2.1015  0.0643
18895TIP3   OH278099   5.430   2.685   5.205  0.3325 -0.3347  0.6925
18895TIP3    H178100   5.339   2.671   5.231  0.1106 -0.5908 -0.2223
18895TIP3    H278101   5.441   2.780   5.207  0.3384 -0.3465  1.7711
18896TIP3   OH278102   0.876   5.870   5.160  0.1415  0.1573  0.0510
18896TIP3    H178103   0.878   5.920   5.242 -1.9454 -0.6116  0.5837
18896TIP3    H278104   0.823   5.924   5.101  0.4888  0.0387 -0.3744
18897TIP3   OH278105   6.470   3.958   5.799  0.7416 -0.3229 -0.5975
18897TIP3    H178106   6.536   4.020   5.832  1.0586 -0.5169 -0.8568
18897TIP3    H278107   6.394   3.972   5.854  2.1481 -2.5789  2.0376
18898TIP3   OH278108   0.539   3.785   4.219 -0.1105 -0.4077  0.4938
18898TIP3    H178109   0.486   3.736   4.282 -1.0890  1.4405  1.1833
18898TIP3    H278110   0.611   3.727   4.197 -0.4663 -1.5939  2.3421
18899TIP3   OH278111   5.046   2.753   5.675 -0.2714 -0.7861 -0.0991
18899TIP3    H178112   5.135   2.741   5.641 -0.2605 -2.9566  0.6327
18899TIP3    H278113   4.990   2.753   5.597  0.3292  0.3475 -0.5433
18900TIP3   OH278114   5.028   3.421   5.244 -0.3166 -0.3190 -0.3269
18900TIP3    H178115   4.983   3.379   5.171  1.3474  0.2856 -1.7420
18900TIP3    H278116   5.020   3.359   5.316 -0.4497 -1.7232 -1.5374
18901TIP3   OH278117   6.352   5.800   4.891  0.1646  0.2523 -0.3882
18901TIP3    H178118   6.448   5.805   4.895  0.2948 -0.8710 -1.6827
18901TIP3    H278119   6.327   5.866   4.827 -0.0742  1.6466  1.0988
18902TIP3   OH278120   0.773   6.417   4.244 -0.2988 -0.1157 -0.4097
18902TIP3    H178121   0.750   6.445   4.155  0.4712  0.7406 -0.3401
18902TIP3    H278122   0.695   6.434   4.296 -0.4707  0.1374 -0.7494
18903TIP3   OH278123   6.270   4.149   5.969 -0.2096  0.0913 -0.1352
18903TIP3    H178124   6.344   4.211   5.974 -0.7871  0.9048 -1.4719
18903TIP3    H278125   6.198   4.195   6.013  0.0697 -0.7074  1.1792
18904TIP3   OH278126   4.276   4.568   5.574  0.2935 -0.3664 -0.0156
18904TIP3    H178127   4.221   4.643   5.597  0.1304 -0.2632 -0.7518
18904TIP3    H278128   4.231   4.526   5.501 -0.5476 -2.2223  1.5245
18905TIP3   OH278129   6.130   2.952   2.105  0.3751  0.4608 -1.4797
18905TIP3    H178130   6.036   2.954   2.126  0.6516 -0.3268 -0.1352
18905TIP3    H278131   6.147   2.862   2.079  1.5562 -0.4239  2.1207
18906TIP3   OH278132   0.142   5.609   3.419  0.1044  0.2772  0.0430
18906TIP3    H178133   0.097   5.566   3.491 -1.0993 -1.2005 -1.5789
18906TIP3    H278134   0.210   5.662   3.462 -0.7664 -0.3556  2.2616
18907TIP3   OH278135   1.683   5.512   4.951 -0.1690 -0.2417  0.0794
18907TIP3    H178136   1.773   5.499   4.923  0.1888  0.8210  0.6703
18907TIP3    H278137   1.637   5.433   4.923  1.1485 -1.2250  0.6294
18908TIP3   OH278138   5.581   2.764   5.486  0.2291  0.0128 -0.0184
18908TIP3    H178139   5.577   2.833   5.552  1.6615  0.6583 -0.5975
18908TIP3    H278140   5.641   2.699   5.522 -1.3575 -1.1130  0.6680
18909TIP3   OH278141   3.834   3.274   2.124 -0.0774 -0.1699  0.1166
18909TIP3    H178142   3.803   3.258   2.034  1.3578  1.7143 -0.7548
18909TIP3    H278143   3.910   3.217   2.133  0.0853  0.0168 -0.0588
18910TIP3   OH278144   0.844   2.736   4.935  0.5606 -0.3551  0.2983
18910TIP3    H178145   0.816   2.687   5.012 -0.9260  1.7468  1.1394
18910TIP3    H278146   0.893   2.811   4.970 -1.6630  1.6021 -0.6696
18911TIP3   OH278147   7.098   3.920   5.292 -0.0862 -0.0469  0.3009
18911TIP3    H178148   7.012   3.954   5.268  0.2484  0.5312 -0.1037
18911TIP3    H278149   7.105   3.938   5.386  0.5069  1.9659 -0.1151
18912TIP3   OH278150   6.453   3.471   4.339  0.0659  0.4217  0.0462
18912TIP3    H178151   6.461   3.551   4.288  1.6521 -0.5101 -1.2157
18912TIP3    H278152   6.450   3.501   4.430 -1.3213  2.0031 -0.5092
18913TIP3   OH278153   4.826   3.845   5.447 -0.3214  0.1649  0.0082
18913TIP3    H178154   4.747   3.807   5.410  0.6615 -0.5807 -1.3863
18913TIP3    H278155   4.861   3.776   5.505 -0.3104  0.2108  0.0560
18914TIP3   OH278156   4.396   5.832   3.649  0.2786  0.1375 -0.6177
18914TIP3    H178157   4.381   5.741   3.674  0.9895 -1.1220 -4.4894
18914TIP3    H278158   4.488   5.848   3.671  0.4143 -0.3673 -0.8075
18915TIP3   OH278159   5.538   6.837   5.387  0.3290 -0.1034 -0.3878
18915TIP3    H178160   5.484   6.782   5.444 -1.2194  0.0961 -1.6049
18915TIP3    H278161   5.616   6.856   5.438 -0.6030 -0.7011  1.3102
18916TIP3   OH278162   0.187   5.081   5.866  0.2730  0.4585  0.0694
18916TIP3    H178163   0.224   5.136   5.936  0.0318  2.3728 -1.2514
18916TIP3    H278164   0.208   4.992   5.892  3.7465  1.3438  0.6005
18917TIP3   OH278165   1.462   5.249   1.766  0.7639 -0.1118  0.2564
18917TIP3    H178166   1.447   5.271   1.858 -0.2619  0.0784  0.0495
18917TIP3    H278167   1.554   5.271   1.750  1.1041 -0.6973  1.3915
18918TIP3   OH278168   1.267   6.506   5.061 -0.4589  0.5850 -0.4803
18918TIP3    H178169   1.332   6.543   5.122 -0.2999  0.0638 -0.3327
18918TIP3    H278170   1.312   6.506   4.976 -0.1382 -0.0863 -0.3176
18919TIP3   OH278171   0.840   3.771   5.074 -0.0753 -0.1752  0.2946
18919TIP3    H178172   0.760   3.775   5.126  0.5364  0.4235  1.2218
18919TIP3    H278173   0.909   3.753   5.138  0.4512 -1.3125 -0.5797
18920TIP3   OH278174   6.099   5.154   5.949 -0.6834  0.0213 -0.3445
18920TIP3    H178175   6.158   5.094   5.993 -0.9200 -0.4484 -0.6624
18920TIP3    H278176   6.011   5.124   5.973 -0.7977  1.8281  1.6143
18921TIP3   OH278177   6.416   2.840   2.914  0.0229 -0.6889 -0.4948
18921TIP3    H178178   6.430   2.885   2.831  1.1066  3.1395  1.6608
18921TIP3    H278179   6.504   2.821   2.947 -0.3800 -1.6608  0.0483
18922TIP3   OH278180   5.211   6.024   6.195  0.0854 -0.2002 -0.4028
18922TIP3    H178181   5.251   5.988   6.116 -0.0318 -1.4384  0.0995
18922TIP3    H278182   5.160   5.952   6.232 -0.1754  0.4820  0.6004
18923TIP3   OH278183   5.435   5.758   5.497  0.0133 -0.4703 -0.2079
18923TIP3    H178184   5.359   5.810   5.471 -0.7001 -1.4728 -0.1036
18923TIP3    H278185   5.415   5.727   5.585  1.4294  0.9621  0.6476
18924TIP3   OH278186   0.024   5.363   4.136 -0.6967  0.0409 -0.4982
18924TIP3    H178187   0.079   5.288   4.112  0.2074  0.0187  1.5368
18924TIP3    H278188  -0.064   5.338   4.107 -0.2479 -1.4095 -0.6632
18925TIP3   OH278189   1.554   7.038   5.521 -0.5773 -0.3617  0.7481
18925TIP3    H178190   1.495   7.086   5.462 -1.5960 -2.3012  0.1510
18925TIP3    H278191   1.530   7.069   5.609 -0.5013  0.9789  0.3172
18926TIP3   OH278192   0.093   5.671   4.996  0.1415  0.2728 -0.0807
18926TIP3    H178193   0.081   5.598   4.935  0.7626 -0.7636  1.0097
18926TIP3    H278194   0.100   5.748   4.939 -0.9881 -0.4430 -1.2232
18927TIP3   OH278195   0.408   5.305   4.755  0.0855  0.0708 -0.3760
18927TIP3    H178196   0.470   5.372   4.727  0.6811 -0.7172 -0.9494
18927TIP3    H278197   0.458   5.224   4.755 -0.1178 -0.1044  2.1671
18928TIP3   OH278198   6.754   4.891   4.156 -0.4251  0.0567 -0.0762
18928TIP3    H178199   6.664   4.900   4.122 -1.2088  0.8662  2.1168
18928TIP3    H278200   6.801   4.844   4.087 -2.2360  0.6610 -1.7842
18929TIP3   OH278201   0.222   6.090   4.596 -0.3464 -0.2171 -0.1507
18929TIP3    H178202   0.302   6.096   4.648 -0.6230  0.9137  0.1493
18929TIP3    H278203   0.237   6.146   4.520 -0.5425 -0.6490 -0.5113
18930TIP3   OH278204   7.238   3.952   4.859  0.5895 -0.0701  0.0093
18930TIP3    H178205   7.258   3.881   4.797  1.9099 -0.0544  0.4018
18930TIP3    H278206   7.287   4.027   4.826 -0.7243  0.6628 -0.3450
18931TIP3   OH278207   5.376   5.219   4.322  0.4050 -0.1098  0.1898
18931TIP3    H178208   5.365   5.206   4.416  0.4859  0.9460  0.3499
18931TIP3    H278209   5.382   5.314   4.312  0.4986 -0.2287 -0.8700
18932TIP3   OH278210   4.574   3.978   5.553  0.2535  0.0593 -0.4334
18932TIP3    H178211   4.638   4.047   5.569 -0.0916  0.6337 -1.5126
18932TIP3    H278212   4.598   3.909   5.614  0.1138  1.4510  1.2295
18933TIP3   OH278213   6.597   6.117   5.072 -0.2415  0.9499  0.2531
18933TIP3    H178214   6.608   6.212   5.067  0.7295  0.9618  2.4987
18933TIP3    H278215   6.676   6.081   5.032  0.3450  1.0853  1.2869
18934TIP3   OH278216   0.700   5.523   3.027  0.0350  0.2914 -0.2894
18934TIP3    H178217   0.672   5.585   3.094  1.2163  1.2888 -0.7093
18934TIP3    H278218   0.757   5.461   3.073  0.4852  0.7127 -0.2746
18935TIP3   OH278219   6.649   3.303   4.181  0.3793 -0.1677 -0.2992
18935TIP3    H178220   6.596   3.367   4.228  0.0015 -0.1827 -0.7032
18935TIP3    H278221   6.586   3.244   4.141  0.5611  1.4407 -3.1368
18936TIP3   OH278222   5.504   4.102   5.378  0.2837 -0.1138 -0.2934
18936TIP3    H178223   5.490   4.145   5.294  0.2969  0.2682 -0.1007
18936TIP3    H278224   5.591   4.063   5.370  0.9421  1.2344  0.0979
18937TIP3   OH278225   6.923   5.190   4.346  0.0076  0.3446  0.4924
18937TIP3    H178226   6.913   5.099   4.316 -0.7817  0.2842  0.9141
18937TIP3    H278227   6.857   5.199   4.415  2.1255  0.3359  2.5937
18938TIP3   OH278228   6.627   1.840   4.934 -0.2599  0.1550  0.6143
18938TIP3    H178229   6.665   1.753   4.945  1.1187  0.8351  1.4844
18938TIP3    H278230   6.604   1.845   4.842 -1.4868 -1.5654  0.7913
18939TIP3   OH278231   1.460   4.582   4.932  0.0767  0.4157 -0.3522
18939TIP3    H178232   1.483   4.660   4.880 -0.3759 -0.0354 -1.2464
18939TIP3    H278233   1.435   4.616   5.017  2.4667  1.0612  0.1408
18940TIP3   OH278234   7.021   4.254   5.486 -0.3077 -0.3403 -0.6140
18940TIP3    H178235   6.941   4.281   5.531  0.7443  1.2800  0.3412
18940TIP3    H278236   7.041   4.168   5.523 -0.5463  0.1076  0.5741
18941TIP3   OH278237   0.101   5.581   5.680 -0.3943 -0.0275  0.1174
18941TIP3    H178238   0.144   5.653   5.633 -0.5414 -0.6163 -0.9340
18941TIP3    H278239   0.062   5.623   5.757  2.2869  0.5023  1.2649
18942TIP3   OH278240   4.150   4.064   3.953 -1.0402  0.1021  0.2607
18942TIP3    H178241   4.223   4.036   3.898 -1.5752 -1.4540  0.3284
18942TIP3    H278242   4.176   4.039   4.041 -0.0813  2.8064  0.7857
18943TIP3   OH278243   4.452   3.727   3.980 -0.0727  0.3812  0.0050
18943TIP3    H178244   4.495   3.708   4.064 -2.1471 -0.6829  0.8559
18943TIP3    H278245   4.450   3.823   3.976 -0.6201  0.4520  1.5355
18944TIP3   OH278246   4.977   5.390   5.264  0.4968 -0.2607 -0.5301
18944TIP3    H178247   5.055   5.374   5.317  0.9784 -1.7369 -1.6506
18944TIP3    H278248   4.961   5.307   5.219 -1.5456  0.1085 -0.5548
18945TIP3   OH278249   6.482   4.081   5.458  0.3971  0.1728  0.2474
18945TIP3    H178250   6.526   3.999   5.438 -0.1649  0.2284 -1.2998
18945TIP3    H278251   6.486   4.089   5.553 -0.2635 -2.0407  0.4712
18946TIP3   OH278252   6.292   3.169   2.094  0.7727 -0.0055  0.5994
18946TIP3    H178253   6.222   3.234   2.097  0.7563 -0.0603  1.5505
18946TIP3    H278254   6.247   3.085   2.105  0.5138 -0.4241 -2.8580
18947TIP3   OH278255   4.779   4.165   5.710  0.0815 -0.3946  0.6423
18947TIP3    H178256   4.769   4.237   5.772  0.2201 -1.1730  1.5715
18947TIP3    H278257   4.819   4.095   5.760 -0.1193 -1.1533 -0.2412
18948TIP3   OH278258   6.227   2.942   4.854  0.0071 -0.0193 -0.3104
18948TIP3    H178259   6.202   3.034   4.856 -0.9737 -0.2830  0.3348
18948TIP3    H278260   6.288   2.931   4.927 -0.6293 -0.0764  0.2223
18949TIP3   OH278261   5.417   3.619   4.670  0.3664  0.0441 -0.1113
18949TIP3    H178262   5.371   3.648   4.592  0.9548 -0.8057 -0.7834
18949TIP3    H278263   5.351   3.572   4.722  0.4509 -1.1216 -1.0420
18950TIP3   OH278264   0.205   5.669   2.116  0.0090 -0.6559 -0.0530
18950TIP3    H178265   0.182   5.654   2.207 -0.6179  0.1071 -0.0786
18950TIP3    H278266   0.158   5.601   2.068  0.7793 -1.4080  0.2280
18951TIP3   OH278267   0.969   6.719   4.304 -0.0930 -0.4472 -0.5907
18951TIP3    H178268   0.879   6.688   4.303 -0.2810 -0.2280  2.5344
18951TIP3    H278269   0.962   6.814   4.315  0.5202 -0.4345 -0.2715
18952TIP3   OH278270   0.533   2.849   4.105  0.2501 -0.2513  0.2560
18952TIP3    H178271   0.599   2.890   4.049  0.7128 -0.2742  0.7810
18952TIP3    H278272   0.454   2.899   4.089  0.9602  1.2629  1.3499
18953TIP3   OH278273   6.931   1.723   4.941 -0.2682  0.3837 -0.0809
18953TIP3    H178274   7.020   1.749   4.966 -0.3557  0.4446  0.1654
18953TIP3    H278275   6.890   1.695   5.023 -0.7767  1.2291 -0.0378
18954TIP3   OH278276   6.997   3.533   5.714  0.2320 -0.0467 -0.3513
18954TIP3    H178277   6.972   3.472   5.784  0.2088 -0.2004 -0.4915
18954TIP3    H278278   7.010   3.617   5.758 -2.9649  0.6447 -0.5989
18955TIP3   OH278279   4.652   4.231   4.062  0.5137  1.1351 -0.0781
18955TIP3    H178280   4.572   4.273   4.093 -0.2458  0.8322 -1.5986
18955TIP3    H278281   4.690   4.192   4.141 -1.7183 -0.1579  0.4158
18956TIP3   OH278282   0.276   5.592   5.939 -0.0545 -0.2699  0.7799
18956TIP3    H178283   0.296   5.675   5.982 -0.0210  0.3611 -0.4304
18956TIP3    H278284   0.196   5.561   5.982 -0.6285  0.8794  0.5571
18957TIP3   OH278285   5.265   4.144   1.781  0.1464  0.2618 -0.0660
18957TIP3    H178286   5.358   4.138   1.759 -0.1178  0.0261 -1.1670
18957TIP3    H278287   5.236   4.225   1.740 -0.4950 -0.4859 -1.1080
18958TIP3   OH278288   6.131   4.997   3.838  0.2981 -0.5011 -0.4329
18958TIP3    H178289   6.216   5.016   3.798  1.0114 -0.0609  1.2256
18958TIP3    H278290   6.091   4.931   3.781  1.8621 -0.8945 -1.0880
18959TIP3   OH278291   0.170   2.734   5.305  0.4196 -0.2953 -0.3210
18959TIP3    H178292   0.110   2.766   5.238  1.5795 -1.5029 -1.9980
18959TIP3    H278293   0.214   2.813   5.337  0.0391  0.2727 -1.1744
18960TIP3   OH278294   6.929   3.620   3.458  0.2780  0.0113 -0.4431
18960TIP3    H178295   6.878   3.666   3.392  0.6420  2.2328  0.8011
18960TIP3    H278296   7.020   3.643   3.439  0.4687 -0.2414  0.1476
18961TIP3   OH278297   0.445   0.511   2.975 -0.3029  0.2020 -0.0799
18961TIP3    H178298   0.506   0.569   3.021 -0.5637  0.7763 -0.4633
18961TIP3    H278299   0.499   0.435   2.951  0.5286  1.1823 -1.3571
18962TIP3   OH278300   6.820   2.657   5.326  0.3785  0.2507 -0.0288
18962TIP3    H178301   6.897   2.699   5.366  0.2254  0.1403  0.3865
18962TIP3    H278302   6.852   2.622   5.243  0.1316  2.6661 -1.1824
18963TIP3   OH278303   0.916   5.397   4.097 -0.7887 -0.1373  0.4427
18963TIP3    H178304   0.921   5.477   4.150 -1.9702 -0.6070  1.3015
18963TIP3    H278305   0.891   5.329   4.160 -1.4407 -0.8531 -0.5829
18964TIP3   OH278306   6.946   4.780   5.774 -0.0657 -0.2953  0.3014
18964TIP3    H178307   6.989   4.838   5.837 -0.8161  1.0377 -0.4180
18964TIP3    H278308   6.862   4.759   5.814  0.0708 -0.6375  0.4136
18965TIP3   OH278309   0.402   5.619   4.869 -0.4348  0.0793 -0.5077
18965TIP3    H178310   0.326   5.602   4.925 -1.4592  1.4536 -1.4456
18965TIP3    H278311   0.469   5.559   4.901 -1.8036 -0.9231  0.5588
18966TIP3   OH278312   6.835   4.968   5.500 -0.4048 -0.8466 -0.0296
18966TIP3    H178313   6.786   4.914   5.562  0.5996  1.2610  2.7140
18966TIP3    H278314   6.907   5.005   5.552 -0.4560  2.2485 -2.0110
18967TIP3   OH278315   7.220   3.859   4.555 -0.1737  0.3858 -0.0206
18967TIP3    H178316   7.269   3.920   4.500 -2.0920  0.2455 -1.9695
18967TIP3    H278317   7.270   3.778   4.552  0.6844  0.9124 -0.0871
18968TIP3   OH278318   6.551   5.898   5.314  0.4495  0.5310  0.5338
18968TIP3    H178319   6.586   5.974   5.269  0.4144 -0.8202 -1.8675
18968TIP3    H278320   6.609   5.826   5.289 -1.4626 -0.8743 -0.0246
18969TIP3   OH278321   7.250   6.594   3.946  0.5100  0.2809 -0.1716
18969TIP3    H178322   7.322   6.533   3.962  0.0144 -0.5272 -0.9794
18969TIP3    H278323   7.244   6.600   3.851 -1.6183 -1.0271 -0.1382
18970TIP3   OH278324   1.179   3.714   3.720 -0.1262 -0.0269 -0.2555
18970TIP3    H178325   1.164   3.675   3.634 -0.2060 -0.5567  0.0005
18970TIP3    H278326   1.093   3.714   3.762  0.2417 -1.4417  0.5287
18971TIP3   OH278327   0.093   4.499   3.456  0.0924 -0.1224  0.6034
18971TIP3    H178328   0.089   4.498   3.360 -1.0103 -1.7588  0.6567
18971TIP3    H278329   0.156   4.431   3.478 -0.8535 -0.8516  1.0893
18972TIP3   OH278330   3.396   5.136   4.640 -0.7127  0.1805 -0.0849
18972TIP3    H178331   3.456   5.210   4.639 -2.4829  1.6639 -1.5027
18972TIP3    H278332   3.340   5.151   4.716 -1.6637  0.8351 -0.8941
18973TIP3   OH278333   7.300   5.452   4.408  0.3286 -0.6099 -0.2900
18973TIP3    H178334   7.302   5.417   4.319 -0.4459  1.2375 -1.0596
18973TIP3    H278335   7.378   5.508   4.413 -1.2680  1.6979 -0.8426
18974TIP3   OH278336   7.107   5.236   5.485  0.1049  0.3908  0.1675
18974TIP3    H178337   7.036   5.295   5.459  0.4574  0.9913  0.5704
18974TIP3    H278338   7.167   5.291   5.535  1.2759  0.0835 -0.8603
18975TIP3   OH278339   7.007   4.819   5.347 -0.2313 -0.1761 -0.6146
18975TIP3    H178340   7.065   4.761   5.397  0.3793  0.3707 -0.6832
18975TIP3    H278341   6.927   4.823   5.399  0.2248  0.0041  0.0806
18976TIP3   OH278342   6.289   5.694   5.950 -0.5880 -0.8281  0.0597
18976TIP3    H178343   6.210   5.743   5.972  0.4647  1.0209 -0.2256
18976TIP3    H278344   6.361   5.751   5.975  0.6605 -1.3089 -2.2882
18977TIP3   OH278345   6.585   4.400   3.673  0.1104 -0.2451  0.5493
18977TIP3    H178346   6.505   4.356   3.702 -0.6946  0.3001 -0.7970
18977TIP3    H278347   6.617   4.346   3.600  0.2853  0.2410  0.2673
18978TIP3   OH278348   2.292   4.964   4.184  0.0090 -0.1635  0.8203
18978TIP3    H178349   2.384   4.937   4.186  0.2115  0.5578  1.1888
18978TIP3    H278350   2.246   4.895   4.232  0.2283 -1.0149 -0.1651
18979TIP3   OH278351   1.751   6.265   3.103  0.0811 -0.8014 -0.6137
18979TIP3    H178352   1.734   6.217   3.022 -0.8476 -0.3890 -0.6684
18979TIP3    H278353   1.666   6.301   3.129  0.6979  0.5722 -0.4202
18980TIP3   OH278354   5.687   5.092   4.962  0.0619 -0.2981 -0.4850
18980TIP3    H178355   5.752   5.098   5.031 -0.0890 -1.4583 -0.2283
18980TIP3    H278356   5.701   5.170   4.908  0.6256  0.2597  0.4570
18981TIP3   OH278357   0.337   5.374   4.297 -0.1719 -0.1687  0.3567
18981TIP3    H178358   0.311   5.347   4.385 -0.7872  1.8408  0.8309
18981TIP3    H278359   0.342   5.293   4.247 -0.2643 -1.2891  2.1300
18982TIP3   OH278360   1.379   4.829   2.348  0.4451 -0.4328  0.1493
18982TIP3    H178361   1.379   4.733   2.356 -3.3185 -0.4014  1.4653
18982TIP3    H278362   1.338   4.860   2.429  1.2283  2.2934 -0.4493
18983TIP3   OH278363   6.564   2.890   4.545 -0.3023 -0.4718  0.0261
18983TIP3    H178364   6.475   2.857   4.542 -0.0914 -1.0933  0.5021
18983TIP3    H278365   6.566   2.949   4.621 -0.6782  0.6488 -0.8230
18984TIP3   OH278366   6.181   3.617   5.527  0.1294 -0.3407 -0.1110
18984TIP3    H178367   6.277   3.624   5.520  0.3117 -1.0170  1.3937
18984TIP3    H278368   6.154   3.703   5.561  0.3096 -0.4795  0.3874
18985TIP3   OH278369   0.594   3.409   4.729  0.4235 -0.1303 -0.2560
18985TIP3    H178370   0.528   3.354   4.772  0.1183  0.6320  0.2563
18985TIP3    H278371   0.650   3.439   4.801  2.0359 -1.7212 -0.8335
18986TIP3   OH278372   6.252   5.366   4.936 -0.2909 -0.2939  0.2013
18986TIP3    H178373   6.289   5.431   4.996  1.1996  0.0935 -1.1019
18986TIP3    H278374   6.243   5.287   4.990 -1.0262  0.6533  1.4962
18987TIP3   OH278375   6.593   6.518   3.177  0.1110 -0.2554 -1.2314
18987TIP3    H178376   6.665   6.483   3.230 -0.6818 -0.8204 -0.5013
18987TIP3    H278377   6.516   6.473   3.210 -0.7010  0.9740 -1.4344
18988TIP3   OH278378   6.953   5.388   4.757 -0.2095  0.2196  0.4397
18988TIP3    H178379   6.863   5.357   4.765 -0.5962  0.8485 -1.3299
18988TIP3    H278380   6.956   5.434   4.673  1.9120 -0.3264  0.1747
18989TIP3   OH278381   0.631   5.165   3.743  0.0138 -0.1067 -0.4346
18989TIP3    H178382   0.677   5.219   3.806  0.7791 -1.4707  0.2075
18989TIP3    H278383   0.681   5.175   3.662 -1.8162  2.8079 -1.2758
18990TIP3   OH278384   5.900   4.566   2.914 -0.4077  0.0045 -0.4777
18990TIP3    H178385   5.942   4.559   2.828  1.2613  1.8059  0.1661
18990TIP3    H278386   5.896   4.660   2.931 -2.4599 -0.2490  0.6074
18991TIP3   OH278387   5.907   4.391   2.189 -0.3038  0.2849 -0.1035
18991TIP3    H178388   5.980   4.429   2.237 -0.1238  0.6416 -0.6531
18991TIP3    H278389   5.836   4.454   2.199 -0.3029  0.3016 -0.2004
18992TIP3   OH278390   5.739   4.353   4.610 -0.5146 -0.0492 -0.4487
18992TIP3    H178391   5.757   4.446   4.593  1.1217 -0.5662 -1.6826
18992TIP3    H278392   5.763   4.309   4.529 -0.0967 -1.6992  0.5469
18993TIP3   OH278393   6.167   3.363   3.654  0.1375  0.1492  0.1101
18993TIP3    H178394   6.244   3.401   3.611  0.8505  0.6798  1.8393
18993TIP3    H278395   6.098   3.428   3.640  0.4567  0.4881  0.1108
18994TIP3   OH278396   0.868   5.994   3.837 -0.0041  0.7154 -0.4722
18994TIP3    H178397   0.884   6.066   3.775 -1.1853  0.5726 -0.9540
18994TIP3    H278398   0.828   6.037   3.913  0.5572  0.7492 -0.1866
18995TIP3   OH278399   5.420   4.993   5.138  0.5950 -0.7022 -0.5778
18995TIP3    H178400   5.504   4.952   5.117  1.0397 -1.0523  1.7812
18995TIP3    H278401   5.363   4.921   5.165  0.4367 -0.1352  0.6287
18996TIP3   OH278402   6.676   4.792   3.253  0.0914 -0.4451 -0.3671
18996TIP3    H178403   6.653   4.699   3.246 -1.0899 -0.3397  1.5674
18996TIP3    H278404   6.628   4.835   3.182  1.1885 -1.3824 -1.7041
18997TIP3   OH278405   0.916   7.023   4.407  0.7062  0.1266 -0.1775
18997TIP3    H178406   0.832   7.067   4.393 -0.4718 -2.5055 -1.7177
18997TIP3    H278407   0.935   7.038   4.500 -1.2937  1.0444  0.1260
18998TIP3   OH278408   5.781   5.950   4.357 -0.4256  0.2217  0.3215
18998TIP3    H178409   5.691   5.916   4.361 -0.6933  0.4634 -2.5886
18998TIP3    H278410   5.790   6.002   4.437 -2.0933 -1.6530  1.7756
18999TIP3   OH278411   6.888   6.522   3.528  0.0764  0.8274 -0.5407
18999TIP3    H178412   6.927   6.449   3.480  0.4871 -0.0132  1.0563
18999TIP3    H278413   6.897   6.597   3.469 -0.4710 -0.4253 -2.2528
19000TIP3   OH278414   0.817   5.494   1.446  0.1514  0.4015  0.1193
19000TIP3    H178415   0.847   5.411   1.410 -1.0514  0.0734 -0.1261
19000TIP3    H278416   0.863   5.561   1.395 -1.6047 -0.0478 -2.1379
19001TIP3   OH278417   2.567   6.060   5.026  0.2035  0.0581 -0.3252
19001TIP3    H178418   2.515   6.128   4.984  2.5219  1.2238 -1.4073
19001TIP3    H278419   2.553   5.982   4.972 -1.0153  0.1347 -0.1422
19002TIP3   OH278420   5.645   3.019   5.572  0.2492  0.8439 -0.4849
19002TIP3    H178421   5.623   3.005   5.664 -0.1079 -0.9952 -0.8335
19002TIP3    H278422   5.588   3.090   5.544 -1.2649 -0.1254  0.1140
19003TIP3   OH278423   0.259   5.400   5.008 -0.3694 -0.5648  0.3265
19003TIP3    H178424   0.290   5.370   4.923 -0.8594  1.0644 -0.4402
19003TIP3    H278425   0.218   5.322   5.047 -1.0897 -1.0593 -1.3746
19004TIP3   OH278426   6.665   3.851   3.388 -0.2562 -0.4017  0.6374
19004TIP3    H178427   6.719   3.899   3.452  1.8825 -0.0509 -1.3521
19004TIP3    H278428   6.596   3.912   3.365  0.3017  0.3412  0.8998
19005TIP3   OH278429   0.083   4.872   4.111 -0.3443  0.2278  0.2567
19005TIP3    H178430   0.048   4.884   4.199 -0.1565 -1.2685  0.5577
19005TIP3    H278431   0.158   4.931   4.106 -0.0882  0.0003  1.2612
19006TIP3   OH278432   6.736   6.439   6.116  0.0222 -0.1683 -0.7812
19006TIP3    H178433   6.773   6.505   6.058 -1.1364  0.8521 -0.3902
19006TIP3    H278434   6.641   6.446   6.102 -0.2991  0.3529  1.4997
19007TIP3   OH278435   0.368   4.995   4.839  0.4119  0.0375 -0.3512
19007TIP3    H178436   0.444   4.993   4.779  0.2115  0.4522 -0.6250
19007TIP3    H278437   0.293   5.005   4.781  0.1824  0.0488 -0.0496
19008TIP3   OH278438   5.809   5.383   4.941  0.0161 -0.3788 -0.2309
19008TIP3    H178439   5.878   5.343   4.994  1.1115 -0.1327 -1.4696
19008TIP3    H278440   5.772   5.451   4.998  1.3362  0.0365  0.1550
19009TIP3   OH278441   7.157   6.635   5.456  0.1468  0.1341 -0.3572
19009TIP3    H178442   7.073   6.602   5.424 -0.0513  0.1555  0.1390
19009TIP3    H278443   7.141   6.655   5.549  1.2200 -1.6593  0.2322
19010TIP3   OH278444   0.888   5.396   2.801  0.2936  0.3055 -0.4884
19010TIP3    H178445   0.838   5.445   2.866 -1.0912 -1.3313 -0.3131
19010TIP3    H278446   0.974   5.438   2.801 -0.1671  1.2920  1.2953
19011TIP3   OH278447   0.268   3.999   4.997  0.3464  0.2054  0.5691
19011TIP3    H178448   0.240   3.955   4.917  1.3992  0.9668 -0.2343
19011TIP3    H278449   0.187   4.024   5.041 -0.2376 -0.3842 -0.1686
19012TIP3   OH278450   5.220   3.689   4.505  0.0193 -0.2023 -0.8886
19012TIP3    H178451   5.216   3.783   4.523 -0.3423 -0.4778  0.5629
19012TIP3    H278452   5.129   3.663   4.492  0.1374 -0.3067 -1.4874
19013TIP3   OH278453   6.734   4.331   5.529 -0.0563  0.2208  0.1691
19013TIP3    H178454   6.734   4.386   5.607  3.8052  2.1924 -1.1027
19013TIP3    H278455   6.715   4.392   5.457  0.1095 -0.8798 -0.8205
19014TIP3   OH278456   0.312   0.018   5.277  0.0777 -0.3597 -0.0401
19014TIP3    H178457   0.223   0.050   5.263  0.2469  0.4588  0.7346
19014TIP3    H278458   0.362   0.053   5.203  0.2849  1.2751  0.8612
19015TIP3   OH278459   7.058   5.835   3.607 -0.6562  0.0277  0.4650
19015TIP3    H178460   7.083   5.816   3.517 -0.8870  0.3564  0.3295
19015TIP3    H278461   6.972   5.796   3.618 -0.9502  0.6180  0.3131
19016TIP3   OH278462   6.016   5.125   4.850 -0.1972  0.4353  0.5206
19016TIP3    H178463   5.993   5.055   4.790 -0.3900 -0.9566  2.1804
19016TIP3    H278464   6.019   5.203   4.796  1.9283 -1.1531 -1.7442
19017TIP3   OH278465   0.217   6.560   2.760 -0.5188  0.3065 -0.1000
19017TIP3    H178466   0.168   6.506   2.822 -1.8091  0.8685 -0.6265
19017TIP3    H278467   0.263   6.624   2.815 -0.5581 -0.0734  0.3758
19018TIP3   OH278468   6.980   6.470   3.035  0.3075 -0.0270  0.3572
19018TIP3    H178469   7.026   6.404   2.983  0.4398 -2.3156  3.2084
19018TIP3    H278470   6.909   6.500   2.979  2.5872  0.3291 -2.4825
19019TIP3   OH278471   5.512   5.898   4.372 -0.0099  0.0243 -0.4483
19019TIP3    H178472   5.516   5.969   4.435  1.0262 -1.5372  1.3050
19019TIP3    H278473   5.425   5.859   4.384 -0.3516  0.6183 -0.9926
19020TIP3   OH278474   0.116   5.952   3.187 -0.2940 -0.3148 -0.3118
19020TIP3    H178475   0.053   5.917   3.251 -0.2588  0.5429  0.2036
19020TIP3    H278476   0.198   5.958   3.236 -0.1006 -0.2832 -0.6392
19021TIP3   OH278477   6.478   6.409   5.993  0.0320 -0.0790  0.8032
19021TIP3    H178478   6.460   6.319   5.966 -0.7911 -0.6066  3.0470
19021TIP3    H278479   6.395   6.455   5.977  0.1900  0.0991  0.4807
19022TIP3   OH278480   6.889   2.999   5.581  0.1906  0.5672 -0.0910
19022TIP3    H178481   6.923   3.077   5.625  1.3515 -1.1780  2.2627
19022TIP3    H278482   6.808   2.979   5.627  2.0941 -2.0526  2.3359
19023TIP3   OH278483   0.273   3.572   4.260  0.3212  0.3178  0.4391
19023TIP3    H178484   0.236   3.587   4.173 -1.2001 -0.8934  0.8630
19023TIP3    H278485   0.349   3.516   4.245 -1.7520 -2.5211  0.1516
19024TIP3   OH278486   0.760   5.198   3.496 -0.1243  0.5157  0.0222
19024TIP3    H178487   0.854   5.214   3.505 -0.0629 -0.7540  1.9954
19024TIP3    H278488   0.754   5.120   3.441 -0.0118  0.5245 -0.0022
19025TIP3   OH278489   2.107   4.526   5.656 -0.0793 -0.3259 -0.5600
19025TIP3    H178490   2.026   4.477   5.670 -1.6305  1.0795 -4.1593
19025TIP3    H278491   2.169   4.462   5.620 -1.1146 -0.3797 -2.2923
19026TIP3   OH278492   1.509   2.311   4.674 -0.2480 -0.1036 -0.6393
19026TIP3    H178493   1.479   2.282   4.760 -0.4953  1.9494 -0.0128
19026TIP3    H278494   1.449   2.267   4.612 -1.2585 -0.1214  0.3329
19027TIP3   OH278495   1.122   5.400   4.958 -0.6890 -0.5906 -0.5585
19027TIP3    H178496   1.157   5.488   4.971 -0.4432 -0.7373 -0.2335
19027TIP3    H278497   1.028   5.414   4.947 -0.5316 -0.1992 -1.4330
19028TIP3   OH278498   5.278   3.952   3.135 -0.0501  0.2377  0.2322
19028TIP3    H178499   5.343   3.985   3.197 -0.1011  0.3576  0.2226
19028TIP3    H278500   5.200   3.935   3.187 -0.8393  2.4822 -0.1421
19029TIP3   OH278501   0.356   5.573   4.097  0.4767 -0.2302  0.4239
19029TIP3    H178502   0.346   5.529   4.013 -1.8753  1.4769 -0.2357
19029TIP3    H278503   0.308   5.518   4.159 -2.1872  1.2016 -0.3387
19030TIP3   OH278504   4.698   3.355   4.898  0.4730  0.0798 -0.3846
19030TIP3    H178505   4.656   3.297   4.961  2.8418 -1.4224 -0.1532
19030TIP3    H278506   4.778   3.385   4.942  2.1704 -0.9971 -2.6341
19031TIP3   OH278507   5.407   4.912   3.170  0.3139  0.4632 -0.1948
19031TIP3    H178508   5.398   4.991   3.224  0.6171 -0.0154  0.5695
19031TIP3    H278509   5.373   4.842   3.226  1.2122 -0.1345 -0.3852
19032TIP3   OH278510   6.065   3.609   3.526 -0.1452  0.0157  0.4260
19032TIP3    H178511   6.061   3.703   3.509 -0.3735  0.1242  1.0728
19032TIP3    H278512   6.158   3.588   3.523 -0.1734  0.0459 -0.8721
19033TIP3   OH278513   5.932   7.201   4.948 -0.1683 -0.3190 -0.6665
19033TIP3    H178514   5.933   7.289   4.986 -1.8619 -0.7444  0.4268
19033TIP3    H278515   5.977   7.147   5.013  0.4379 -0.3384 -1.1068
19034TIP3   OH278516   4.718   3.049   5.481  0.3364 -0.0244  0.0987
19034TIP3    H178517   4.772   3.016   5.553 -0.9351  1.3668  1.7083
19034TIP3    H278518   4.714   3.143   5.494  0.5860  0.3444 -2.1749
19035TIP3   OH278519   5.670   4.489   5.930 -0.2934  0.3600  0.2269
19035TIP3    H178520   5.643   4.504   6.021  0.0765 -0.2652  0.4514
19035TIP3    H278521   5.738   4.421   5.937 -1.9369 -1.4356 -0.7217
19036TIP3   OH278522   0.066   6.009   2.695  0.0139  0.8167  0.4474
19036TIP3    H178523   0.031   5.966   2.617  3.8210 -1.5105 -0.0920
19036TIP3    H278524   0.046   6.102   2.681 -1.3790  0.1858 -2.1595
19037TIP3   OH278525   0.795   0.379   2.758  0.6561  0.0325  0.3084
19037TIP3    H178526   0.764   0.330   2.834 -0.7160 -0.9555 -0.8340
19037TIP3    H278527   0.879   0.338   2.735  0.1912 -0.8957  0.2086
19038TIP3   OH278528   7.005   7.078   5.594 -0.6825  0.2328  0.0277
19038TIP3    H178529   6.939   7.113   5.654  0.9496  3.8408 -0.1564
19038TIP3    H278530   6.959   7.069   5.511 -1.5830  0.3172  0.5086
19039TIP3   OH278531   6.047   3.165   3.815 -0.4012  0.0344 -0.1313
19039TIP3    H178532   5.970   3.215   3.789  1.3547  2.4264 -0.8720
19039TIP3    H278533   6.121   3.211   3.776  1.4860 -1.8582  1.0589
19040TIP3   OH278534   4.534   4.446   5.589 -0.7256  0.2830 -0.2860
19040TIP3    H178535   4.455   4.495   5.566  1.1961  3.6421 -0.0509
19040TIP3    H278536   4.572   4.420   5.505 -0.4780  1.3371 -0.5048
19041TIP3   OH278537   6.741   4.484   5.749  0.1543 -0.0959 -0.3593
19041TIP3    H178538   6.770   4.458   5.836  0.8181 -1.5637 -0.9981
19041TIP3    H278539   6.739   4.579   5.752  1.8787 -0.0767  0.7161
19042TIP3   OH278540   4.490   5.944   5.564 -0.3620 -0.0835 -0.2709
19042TIP3    H178541   4.416   6.001   5.585 -0.6985 -0.4147 -0.5674
19042TIP3    H278542   4.452   5.874   5.512  0.0003 -0.7508  0.3621
19043TIP3   OH278543   7.088   5.244   4.082 -0.1810  0.3046  0.1016
19043TIP3    H178544   7.035   5.234   4.162 -0.2590  0.1104  0.0256
19043TIP3    H278545   7.067   5.167   4.030 -1.2565  1.1768 -0.7701
19044TIP3   OH278546   6.396   4.380   4.691 -0.7187 -0.1793 -0.5147
19044TIP3    H178547   6.369   4.432   4.766  0.2367  1.0361 -1.0097
19044TIP3    H278548   6.468   4.428   4.652  0.5938 -2.1626 -0.6306
19045TIP3   OH278549   0.737   5.404   5.247 -0.3462 -0.3804  0.2437
19045TIP3    H178550   0.755   5.470   5.314  0.8764  0.2428 -0.6807
19045TIP3    H278551   0.818   5.353   5.241  0.5392  1.2264 -2.5876
19046TIP3   OH278552   5.010   4.172   4.318  0.4595  0.3113 -0.8396
19046TIP3    H178553   5.020   4.155   4.224  1.8172  0.0814 -0.6559
19046TIP3    H278554   4.980   4.088   4.354  1.8541 -0.1810 -0.7800
19047TIP3   OH278555   0.139   5.153   3.303  0.4217 -0.1683  0.2993
19047TIP3    H178556   0.229   5.172   3.328  0.3455 -0.2148  0.6152
19047TIP3    H278557   0.103   5.106   3.378 -0.5023  1.6876  1.0466
19048TIP3   OH278558   5.802   3.937   4.814 -0.5019 -0.5329 -0.3166
19048TIP3    H178559   5.751   3.972   4.741 -2.4755  0.5615  1.5550
19048TIP3    H278560   5.762   3.974   4.892  1.7830 -1.4358  1.3406
19049TIP3   OH278561   6.456   5.483   2.844  0.2534  0.4373 -0.0197
19049TIP3    H178562   6.499   5.539   2.779  0.3285  1.3019  0.7591
19049TIP3    H278563   6.430   5.543   2.913  0.1883 -0.4789  0.7567
19050TIP3   OH278564   5.707   5.726   2.220 -0.0697 -0.1521 -0.1310
19050TIP3    H178565   5.638   5.660   2.227  0.7771 -1.1290 -0.9263
19050TIP3    H278566   5.659   5.808   2.203 -1.0242 -0.8910 -1.1208
19051TIP3   OH278567   7.274   4.163   5.364 -0.3577 -0.3489 -0.1064
19051TIP3    H178568   7.252   4.256   5.363  1.7051  0.1828  0.7305
19051TIP3    H278569   7.199   4.121   5.408 -2.7512  0.4463 -3.2875
19052TIP3   OH278570   6.369   2.675   4.864 -0.1944 -0.2568  0.2297
19052TIP3    H178571   6.347   2.667   4.957  2.1573  2.4266  1.1015
19052TIP3    H278572   6.316   2.749   4.834  1.3370  0.8707  0.2472
19053TIP3   OH278573   6.441   3.656   5.810  0.2438  0.3446 -0.2175
19053TIP3    H178574   6.395   3.692   5.886 -0.4341 -1.7192  0.4070
19053TIP3    H278575   6.476   3.732   5.764 -1.6071  1.8051  0.7219
19054TIP3   OH278576   1.041   5.912   1.437  0.7481  0.7327  0.3380
19054TIP3    H178577   1.039   6.006   1.449 -2.4617  1.0220 -1.8676
19054TIP3    H278578   0.964   5.880   1.482  0.0519 -0.4367 -1.5996
19055TIP3   OH278579   0.256   3.453   4.533 -0.2803 -0.0048  0.2434
19055TIP3    H178580   0.237   3.361   4.517 -0.8493  0.3600 -1.3342
19055TIP3    H278581   0.254   3.493   4.446  1.2344  1.2647  0.7714
19056TIP3   OH278582   5.550   2.899   5.810  0.5102 -0.1467  0.0696
19056TIP3    H178583   5.524   2.933   5.895 -0.9058 -2.5250  0.6364
19056TIP3    H278584   5.554   2.804   5.822 -1.8510 -0.7158 -3.0393
19057TIP3   OH278585   0.513   5.366   2.486  0.3065 -0.0160  0.5655
19057TIP3    H178586   0.447   5.434   2.500 -0.8817 -1.0988  0.3094
19057TIP3    H278587   0.563   5.365   2.568 -0.8762 -0.1236  1.3025
19058TIP3   OH278588   6.511   4.461   5.289  0.3828 -0.2773  0.2836
19058TIP3    H178589   6.522   4.530   5.223  0.3917  1.0112  1.6014
19058TIP3    H278590   6.426   4.482   5.330  1.0530 -0.2116  1.6449
19059TIP3   OH278591   0.228   3.271   5.554  0.2042 -0.2266 -0.3235
19059TIP3    H178592   0.309   3.272   5.605  0.3315 -1.6385 -0.4859
19059TIP3    H278593   0.197   3.362   5.557  1.1564  0.0772  0.7400
19060TIP3   OH278594   4.998   5.113   5.186 -0.2347  0.1305 -0.0183
19060TIP3    H178595   5.015   5.099   5.279 -0.4373  1.4976  0.2300
19060TIP3    H278596   4.998   5.025   5.149  0.4865 -0.3880  1.1606
19061TIP3   OH278597   0.774   3.498   5.345 -0.5608 -0.2343 -0.1294
19061TIP3    H178598   0.734   3.445   5.275 -0.5961  0.6251 -0.7701
19061TIP3    H278599   0.746   3.587   5.326 -0.3337  0.0487  0.8324
19062TIP3   OH278600   0.076   6.159   3.803  0.5147 -0.7328  0.0602
19062TIP3    H178601  -0.005   6.109   3.809  0.2714 -0.1047  2.3869
19062TIP3    H278602   0.135   6.103   3.754 -0.4940 -2.3263  0.6387
19063TIP3   OH278603   3.254   7.017   4.444 -0.6895 -0.3670  0.3920
19063TIP3    H178604   3.259   7.095   4.390 -0.4249 -0.1515  0.7298
19063TIP3    H278605   3.216   7.047   4.526  2.2111  0.0100  1.6524
19064TIP3   OH278606   2.363   6.803   3.271  0.1325 -0.3685  0.2343
19064TIP3    H178607   2.275   6.765   3.276  0.2819 -0.7129  0.2673
19064TIP3    H278608   2.422   6.729   3.284  0.4201  0.1714  2.0805
19065TIP3   OH278609   1.103   0.532   4.300 -0.8652 -0.5705  0.0903
19065TIP3    H178610   1.080   0.493   4.385  0.1454 -0.3353  0.4818
19065TIP3    H278611   1.196   0.513   4.290 -0.5798  0.8807 -0.1718
19066TIP3   OH278612   2.597   6.786   4.614 -0.3049 -0.1215  0.3843
19066TIP3    H178613   2.550   6.848   4.558 -0.3769 -0.4985  0.0258
19066TIP3    H278614   2.535   6.768   4.686 -1.1402 -1.4299 -0.6406
19067TIP3   OH278615   1.841   1.413   2.184  0.7444 -0.6174 -0.3263
19067TIP3    H178616   1.849   1.497   2.229 -1.8383 -1.0305  1.0454
19067TIP3    H278617   1.910   1.358   2.221  1.2749  0.3295  0.0942
19068TIP3   OH278618   1.724   5.859   1.991  0.1343 -0.3911  0.6406
19068TIP3    H178619   1.814   5.831   2.010  0.5410 -0.4820 -1.3125
19068TIP3    H278620   1.733   5.915   1.914 -1.5052 -0.4843  0.3733
19069TIP3   OH278621   6.168   1.060   3.469  0.2720 -0.4148  0.0146
19069TIP3    H178622   6.225   1.072   3.545  3.2176  0.5474 -2.2774
19069TIP3    H278623   6.210   0.991   3.418 -1.7030 -1.0956 -0.7356
19070TIP3   OH278624   6.665   7.298   5.274  0.0083 -0.2036 -0.0222
19070TIP3    H178625   6.603   7.226   5.263 -0.6915  0.4880 -0.6477
19070TIP3    H278626   6.746   7.266   5.235 -0.7047 -0.1037 -1.5983
19071TIP3   OH278627   1.836   4.381   2.903  0.0200  0.2112  0.2319
19071TIP3    H178628   1.752   4.359   2.864  0.5631  2.0380 -2.0937
19071TIP3    H278629   1.817   4.450   2.966 -0.4276 -0.5605  0.9543
19072TIP3   OH278630   1.366   6.220   5.469  0.2649 -0.2371  0.7865
19072TIP3    H178631   1.315   6.259   5.398  2.4133  0.6091 -0.3225
19072TIP3    H278632   1.324   6.253   5.549  0.1568  1.8796 -0.1103
19073TIP3   OH278633   0.777   5.377   3.877 -0.4689  0.3250 -0.1985
19073TIP3    H178634   0.833   5.361   3.953 -2.2596 -3.4052  0.4343
19073TIP3    H278635   0.691   5.397   3.914 -1.6139 -2.5454 -1.2044
19074TIP3   OH278636   3.454   5.437   4.105 -0.9530 -0.4505  0.7002
19074TIP3    H178637   3.507   5.509   4.140 -0.3837 -1.4333  1.8985
19074TIP3    H278638   3.444   5.458   4.012  3.2493 -1.2405 -0.0347
19075TIP3   OH278639   0.006   0.980   3.469  0.5378  0.0322 -0.1730
19075TIP3    H178640   0.041   0.959   3.556  0.0095  0.8552  0.2346
19075TIP3    H278641   0.079   0.959   3.409  0.7904 -0.8457  0.4213
19076TIP3   OH278642   1.141   5.781   4.902  1.3595  0.2697  0.0883
19076TIP3    H178643   1.155   5.876   4.898 -0.5798  0.5627 -0.3337
19076TIP3    H278644   1.181   5.748   4.822  0.4211  0.9575 -0.6705
19077TIP3   OH278645   0.773   7.105   3.444  0.5069  0.7735 -0.1561
19077TIP3    H178646   0.829   7.077   3.372  0.6358  1.5263 -0.3555
19077TIP3    H278647   0.814   7.068   3.522 -0.5827 -1.5041 -0.6134
19078TIP3   OH278648   7.149   1.209   4.266  0.4034  0.2093 -0.0733
19078TIP3    H178649   7.170   1.216   4.359  1.4775  0.1669 -0.3104
19078TIP3    H278650   7.231   1.227   4.221 -0.0084 -0.2095 -1.0099
19079TIP3   OH278651   0.008   6.419   2.917 -0.5859 -0.0554 -0.1266
19079TIP3    H178652  -0.023   6.508   2.906 -0.4104 -0.1404 -1.2810
19079TIP3    H278653  -0.071   6.365   2.912 -1.1383  0.2295  3.5899
19080TIP3   OH278654   7.197   0.367   4.355 -0.5331  0.3000  0.0672
19080TIP3    H178655   7.253   0.401   4.286  0.1215  0.7210  0.8005
19080TIP3    H278656   7.155   0.290   4.316  0.5250  0.0034 -0.4985
19081TIP3   OH278657   2.642   6.879   5.968 -0.3276 -0.2842 -0.1853
19081TIP3    H178658   2.548   6.866   5.955 -0.1706 -0.5811 -1.0753
19081TIP3    H278659   2.648   6.928   6.050 -1.2893  0.2797 -0.4356
19082TIP3   OH278660   0.825   6.960   4.063 -0.4990 -0.1850 -0.1444
19082TIP3    H178661   0.859   7.029   4.006 -1.8939  1.5179  1.0503
19082TIP3    H278662   0.837   6.879   4.012  1.2249  0.8985 -1.5181
19083TIP3   OH278663   0.711   7.300   3.745  0.2460 -0.4630 -0.0946
19083TIP3    H178664   0.719   7.359   3.820  0.8071 -0.6379 -0.0162
19083TIP3    H278665   0.800   7.271   3.728 -0.1775 -2.2820  0.6799
19084TIP3   OH278666   6.780   6.559   4.219  0.7338  0.2988 -0.1754
19084TIP3    H178667   6.791   6.474   4.177  0.1323  0.9623 -1.7017
19084TIP3    H278668   6.858   6.608   4.193  1.7361 -0.1901  1.7734
19085TIP3   OH278669   1.958   6.094   5.500  0.5929  0.6024 -0.0643
19085TIP3    H178670   1.963   6.017   5.557  1.3627  0.1356 -0.7511
19085TIP3    H278671   1.874   6.135   5.523 -0.2030 -0.8794 -0.2539
19086TIP3   OH278672   6.016   5.172   4.517  0.3250 -0.1912 -0.5146
19086TIP3    H178673   5.925   5.193   4.495  0.7809  0.8322 -1.4932
19086TIP3    H278674   6.067   5.243   4.477  1.6304 -1.2731 -0.8128
19087TIP3   OH278675   0.918   1.403   5.762 -0.2277  0.0614 -0.2256
19087TIP3    H178676   0.829   1.374   5.780 -0.3408  1.2305  1.1965
19087TIP3    H278677   0.973   1.343   5.812 -0.2585 -0.1589 -0.4570
19088TIP3   OH278678   3.044   0.762   2.384 -0.2786  0.3591 -0.4391
19088TIP3    H178679   2.965   0.815   2.376 -1.0328 -0.6016  0.5340
19088TIP3    H278680   3.038   0.722   2.470  1.4885  0.5986 -0.1779
19089TIP3   OH278681   0.131   1.538   1.432  0.0134 -0.1693  0.5022
19089TIP3    H178682   0.113   1.587   1.352  0.3435 -3.1739 -1.4880
19089TIP3    H278683   0.045   1.514   1.465 -0.0917 -0.1735  0.2286
19090TIP3   OH278684   6.909   5.994   4.384  0.7579  0.4881  0.5396
19090TIP3    H178685   6.974   5.980   4.315 -1.5878  0.7457 -1.7960
19090TIP3    H278686   6.877   6.083   4.369 -2.3626 -0.7119 -0.3552
19091TIP3   OH278687   6.622   0.411   1.928 -0.0893  0.2587 -0.6256
19091TIP3    H178688   6.639   0.503   1.909 -0.8587  0.6674  0.5900
19091TIP3    H278689   6.683   0.363   1.872  2.1373  1.5492  0.6199
19092TIP3   OH278690   1.699   5.669   5.165 -0.5183 -0.1899  0.2395
19092TIP3    H178691   1.793   5.686   5.166 -0.9666  2.6589 -1.1348
19092TIP3    H278692   1.686   5.613   5.089  0.2273 -1.6967  1.2086
19093TIP3   OH278693   1.948   5.907   5.689 -0.7436 -0.1978  0.3235
19093TIP3    H178694   1.890   5.886   5.762 -1.2228 -0.9931 -0.2778
19093TIP3    H278695   2.036   5.908   5.728 -1.1164  0.7019  1.1708
19094TIP3   OH278696   0.087   7.042   2.307 -0.5669  0.1117 -0.2813
19094TIP3    H178697   0.182   7.044   2.300 -0.4365  3.7856  1.4252
19094TIP3    H278698   0.056   7.070   2.220 -0.0985 -0.8080 -0.7489
19095TIP3   OH278699   2.644   0.802   5.729 -0.1540 -0.5106 -0.0041
19095TIP3    H178700   2.598   0.885   5.711 -1.3068 -0.7305  1.7646
19095TIP3    H278701   2.683   0.815   5.815 -0.5502 -1.8796  0.3909
19096TIP3   OH278702   1.448   0.308   3.098  0.2147 -0.1508 -0.0879
19096TIP3    H178703   1.379   0.246   3.121  1.3840 -0.3973  3.0523
19096TIP3    H278704   1.529   0.257   3.106  1.2039  1.7384  2.5551
19097TIP3   OH278705   2.284   6.516   5.188 -0.0997  0.0071  0.3834
19097TIP3    H178706   2.376   6.521   5.162 -0.0379  2.9271  0.9572
19097TIP3    H278707   2.266   6.601   5.228 -2.6317 -1.1007  1.7208
19098TIP3   OH278708   1.142   5.991   6.055  0.1056 -0.9468 -0.0644
19098TIP3    H178709   1.089   5.965   6.130 -2.3550  0.8978 -1.1079
19098TIP3    H278710   1.219   6.033   6.094 -1.3805  0.4561  1.4711
19099TIP3   OH278711   1.697   6.214   6.077  0.0579 -0.4702  0.4416
19099TIP3    H178712   1.640   6.210   6.154  0.0390  1.5545  0.5489
19099TIP3    H278713   1.638   6.199   6.003 -0.4610  0.6421  0.6177
19100TIP3   OH278714   0.453   6.238   5.947  0.7744  0.0020  0.0090
19100TIP3    H178715   0.517   6.223   5.877  0.4288 -0.3984 -0.2228
19100TIP3    H278716   0.411   6.153   5.960  1.3272 -0.0855  1.1962
19101TIP3   OH278717   0.456   5.986   1.697 -0.0278  0.2007 -0.3536
19101TIP3    H178718   0.518   6.029   1.756 -1.0712  1.1924  0.0427
19101TIP3    H278719   0.401   5.932   1.754  0.9925 -1.3532 -0.7984
19102TIP3   OH278720   7.019   0.162   4.659 -0.0076  0.1229  0.3082
19102TIP3    H178721   7.027   0.079   4.706  1.1289 -0.4108 -0.7806
19102TIP3    H278722   6.980   0.222   4.722 -0.8805 -1.2542  1.0934
19103TIP3   OH278723   0.616   5.329   4.339  0.2061  0.1446  0.3985
19103TIP3    H178724   0.524   5.321   4.363  0.2572 -1.6264  0.0560
19103TIP3    H278725   0.627   5.422   4.316 -1.6624  0.2198 -0.2927
19104TIP3   OH278726   1.113   0.451   5.599  0.3914 -0.0432  0.2512
19104TIP3    H178727   1.198   0.420   5.631 -0.0375  1.5176  3.1036
19104TIP3    H278728   1.050   0.389   5.636  0.2501 -0.9973 -1.5706
19105TIP3   OH278729   3.235   5.728   4.393  0.2381  0.2786  0.1254
19105TIP3    H178730   3.144   5.733   4.420  0.3219  0.1699  0.4383
19105TIP3    H278731   3.277   5.676   4.462 -0.0075 -2.0260 -1.3877
19106TIP3   OH278732   1.941   4.567   2.204 -0.3463 -0.0908 -0.2261
19106TIP3    H178733   1.957   4.472   2.202  0.6993  0.0885 -0.6836
19106TIP3    H278734   1.889   4.584   2.126 -1.1123 -0.3779  0.2100
19107TIP3   OH278735   2.184   6.735   3.718 -0.1955 -0.2249 -0.0485
19107TIP3    H178736   2.260   6.718   3.774 -0.6979 -2.4362  0.0145
19107TIP3    H278737   2.108   6.715   3.773 -0.7790  0.6198 -0.5444
19108TIP3   OH278738   1.671   6.238   3.911  0.3506  0.6722 -0.8194
19108TIP3    H178739   1.637   6.211   3.996  0.4607  0.8875 -0.7069
19108TIP3    H278740   1.765   6.249   3.925  0.5462 -0.3724 -1.2436
19109TIP3   OH278741   6.544   0.226   3.238 -0.0606  0.5162  0.5141
19109TIP3    H178742   6.451   0.213   3.221  0.0870 -2.7545  1.8537
19109TIP3    H278743   6.547   0.263   3.326 -0.0589 -0.4227  0.9119
19110TIP3   OH278744   1.569   6.685   4.841 -0.0286 -0.0955  0.0328
19110TIP3    H178745   1.592   6.669   4.750  0.5729 -0.7874  0.2979
19110TIP3    H278746   1.652   6.709   4.883 -0.8636  3.5827 -0.3031
19111TIP3   OH278747   1.410   6.983   6.138 -0.7135  0.0253  0.4926
19111TIP3    H178748   1.376   7.038   6.067 -0.2779 -2.3531 -1.6565
19111TIP3    H278749   1.342   6.986   6.205 -1.6932  1.3898 -0.5240
19112TIP3   OH278750   1.754   6.054   4.806  0.7836  0.0147 -0.4606
19112TIP3    H178751   1.808   5.989   4.762  0.4468 -1.0522  0.6700
19112TIP3    H278752   1.816   6.114   4.847  1.1821 -1.9069  1.8701
19113TIP3   OH278753   0.610   0.355   5.955  0.0718 -0.0011 -0.0619
19113TIP3    H178754   0.578   0.444   5.971 -1.2924 -0.8373  2.0084
19113TIP3    H278755   0.652   0.330   6.037 -0.8804 -1.7992 -0.0966
19114TIP3   OH278756   2.167   6.918   4.889 -0.0175 -0.1458 -0.2045
19114TIP3    H178757   2.125   6.967   4.818  1.3052 -2.7028 -2.8892
19114TIP3    H278758   2.259   6.942   4.883 -0.0178  0.2589  1.2503
19115TIP3   OH278759   1.726   4.096   4.386 -0.5109 -0.0340  0.2936
19115TIP3    H178760   1.635   4.115   4.365  0.3066  2.1844 -1.4932
19115TIP3    H278761   1.758   4.045   4.311  0.6175  2.1684 -0.7739
19116TIP3   OH278762   3.422   6.667   3.303 -0.9853 -0.0479  0.2380
19116TIP3    H178763   3.491   6.641   3.243 -2.6460 -1.2619 -1.1813
19116TIP3    H278764   3.460   6.739   3.354  1.0358 -0.1906 -1.0465
19117TIP3   OH278765   0.788   0.765   2.523 -0.1658  0.4024  0.3052
19117TIP3    H178766   0.788   0.678   2.484  1.4445  0.6479 -0.2910
19117TIP3    H278767   0.762   0.823   2.452  0.2846  0.5631  0.2656
19118TIP3   OH278768   0.982   7.005   3.305 -0.6954  0.0148  0.4467
19118TIP3    H178769   1.072   6.983   3.327 -0.9234 -0.7491  0.6332
19118TIP3    H278770   0.959   6.945   3.233 -1.2762 -0.2625  0.8569
19119TIP3   OH278771   0.921   5.015   3.995  0.3620  0.1647 -0.0071
19119TIP3    H178772   0.918   4.943   4.057  0.7899 -0.3224 -0.5421
19119TIP3    H278773   0.844   5.069   4.016  1.0653  0.5787  1.6106
19120TIP3   OH278774   3.473   0.002   3.929 -0.2276 -0.4366  0.3634
19120TIP3    H178775   3.393   0.051   3.907 -0.4534 -0.4128  1.1984
19120TIP3    H278776   3.541   0.069   3.932 -0.2608 -0.3884  0.0932
19121TIP3   OH278777   1.151   6.710   6.017  0.4485 -0.5890 -0.7251
19121TIP3    H178778   1.243   6.688   6.026  0.4006 -0.2806  0.7112
19121TIP3    H278779   1.150   6.805   6.005  0.2094 -0.1406  2.2526
19122TIP3   OH278780   1.330   5.947   5.436  0.0545 -0.0887 -0.3789
19122TIP3    H178781   1.237   5.971   5.437  0.3000  0.8839  1.2617
19122TIP3    H278782   1.376   6.031   5.426  0.8337 -0.1608  2.2367
19123TIP3   OH278783   1.167   6.614   5.407  0.0888 -0.1244  0.2525
19123TIP3    H178784   1.250   6.640   5.366 -0.2585  0.5806 -0.0241
19123TIP3    H278785   1.185   6.615   5.501 -0.0108  1.5454  0.2790
19124TIP3   OH278786   1.126   6.900   3.036 -0.4876  0.3112 -0.0725
19124TIP3    H178787   1.114   6.806   3.025  1.6899 -0.3015  2.3514
19124TIP3    H278788   1.221   6.913   3.039 -0.7162  2.7581 -1.5856
19125TIP3   OH278789   1.598   6.973   3.715 -0.2566  0.2623 -0.0602
19125TIP3    H178790   1.599   7.069   3.716  0.8649  0.2670 -0.4196
19125TIP3    H278791   1.628   6.949   3.803 -0.5669  0.2481  0.0395
19126TIP3   OH278792   1.166   0.316   3.399  0.2700  0.0992 -0.0934
19126TIP3    H178793   1.210   0.362   3.471  0.3592  0.4320 -0.3606
19126TIP3    H278794   1.173   0.376   3.325 -2.4274  1.0488  0.3674
19127TIP3   OH278795   6.345   6.166   5.196 -0.4401  0.1719  0.9895
19127TIP3    H178796   6.373   6.258   5.202 -0.6052  0.2571  0.5238
19127TIP3    H278797   6.425   6.119   5.173 -0.5023  0.3014  0.4951
19128TIP3   OH278798   6.440   6.768   4.324  0.1519 -0.2108  0.2361
19128TIP3    H178799   6.499   6.781   4.250  0.9362 -0.1608  0.8589
19128TIP3    H278800   6.487   6.709   4.383  0.3334  1.2073  1.5475
19129TIP3   OH278801   1.110   4.439   4.721  0.1224 -0.5924 -0.1557
19129TIP3    H178802   1.149   4.474   4.641 -0.7043 -0.1524 -0.3790
19129TIP3    H278803   1.180   4.391   4.763  0.2201 -1.9532 -1.8144
19130TIP3   OH278804   2.147   2.238   2.678  0.0080 -0.0821  0.3954
19130TIP3    H178805   2.235   2.207   2.698 -0.4488 -2.2522 -0.8060
19130TIP3    H278806   2.154   2.276   2.590 -0.2296 -0.1008  0.3663
19131TIP3   OH278807   6.790   6.808   5.635  0.4004  0.7478  0.0408
19131TIP3    H178808   6.786   6.744   5.563 -0.4305 -1.0288  1.6106
19131TIP3    H278809   6.882   6.811   5.660  1.0917  3.1285 -2.5912
19132TIP3   OH278810   0.012   0.660   4.608 -0.3484  0.2855 -1.3914
19132TIP3    H178811   0.051   0.741   4.643 -1.2850  0.8028 -1.5417
19132TIP3    H278812   0.067   0.638   4.532  1.2152 -0.4072 -0.1090
19133TIP3   OH278813   1.047   6.089   2.772  0.5575  0.4791  0.3814
19133TIP3    H178814   1.002   6.005   2.760  1.8463 -0.1600 -0.1207
19133TIP3    H278815   1.038   6.109   2.865 -0.1059 -0.0098  0.4236
19134TIP3   OH278816   7.219   6.833   5.898 -0.2614  0.2249 -0.3949
19134TIP3    H178817   7.313   6.822   5.911  0.2067  1.1849 -2.8216
19134TIP3    H278818   7.180   6.800   5.979  2.1826  0.3225  0.8626
19135TIP3   OH278819   4.735   4.022   4.217 -0.3947  0.4399  0.0805
19135TIP3    H178820   4.778   3.938   4.202  0.1993  0.5266  1.2170
19135TIP3    H278821   4.710   4.019   4.310  2.1702  2.6415  0.9121
19136TIP3   OH278822   0.280   5.977   5.163  0.3582 -0.6657 -0.1644
19136TIP3    H178823   0.209   5.943   5.107  0.5001  0.8953 -1.3145
19136TIP3    H278824   0.302   6.062   5.126  0.6405  0.3102  2.1378
19137TIP3   OH278825   1.681   1.446   3.275  0.1949  0.2901  0.0194
19137TIP3    H178826   1.673   1.357   3.239 -1.3790  0.0136  1.0123
19137TIP3    H278827   1.710   1.433   3.365 -1.6669  0.6799  0.6933
19138TIP3   OH278828   1.875   6.213   5.756  0.4476 -0.2838 -0.1146
19138TIP3    H178829   1.867   6.276   5.684 -0.1041 -0.8406 -0.5490
19138TIP3    H278830   1.968   6.193   5.759  0.7496  1.1638  0.5587
19139TIP3   OH278831   2.751   5.786   4.146 -0.4595 -0.1974 -0.1826
19139TIP3    H178832   2.695   5.799   4.222 -1.3746 -0.3181 -0.8362
19139TIP3    H278833   2.833   5.753   4.182 -1.1835 -1.0797  0.6756
19140TIP3   OH278834   6.872   1.716   5.529  0.5383  0.0672  0.0335
19140TIP3    H178835   6.780   1.699   5.509  0.7553 -1.9655  0.6080
19140TIP3    H278836   6.901   1.776   5.460 -1.5516  1.8651  0.6315
19141TIP3   OH278837   1.898   0.632   5.898 -0.1823 -0.0975 -0.0363
19141TIP3    H178838   1.862   0.683   5.825 -2.0738 -0.0728  0.8770
19141TIP3    H278839   1.823   0.581   5.930  0.9583 -1.1349  1.0152
19142TIP3   OH278840   7.087   6.430   6.025 -0.2378 -0.7586  0.3646
19142TIP3    H178841   7.116   6.409   6.114 -0.4159 -0.7267  0.4307
19142TIP3    H278842   7.163   6.411   5.970  0.0298 -0.3264  0.5818
19143TIP3   OH278843   6.892   6.588   5.924  0.2357 -0.1960  0.0206
19143TIP3    H178844   6.957   6.521   5.946  0.6495  0.4316  0.7205
19143TIP3    H278845   6.910   6.660   5.984  0.0267  0.6972 -0.9803
19144TIP3   OH278846   6.749   0.670   3.006  0.4089  0.3044  0.5068
19144TIP3    H178847   6.715   0.630   3.086 -1.9043  0.5981 -0.2666
19144TIP3    H278848   6.752   0.598   2.943  0.6930  0.3891  0.4248
19145TIP3   OH278849   3.343   6.625   5.609 -0.0856  0.1050  0.0115
19145TIP3    H178850   3.346   6.702   5.551 -0.5900  1.7248  2.0647
19145TIP3    H278851   3.424   6.630   5.659 -1.4599  1.0092  2.2245
19146TIP3   OH278852   0.998   2.141   3.202 -0.4977 -0.2331 -0.3147
19146TIP3    H178853   0.942   2.200   3.253 -0.0587  0.6089 -0.7964
19146TIP3    H278854   1.029   2.195   3.130 -0.1041 -1.0716 -0.7688
19147TIP3   OH278855   1.031   5.641   5.333  0.4647  0.2022 -0.0243
19147TIP3    H178856   1.057   5.725   5.370 -1.7344  0.8535  0.0833
19147TIP3    H278857   0.974   5.602   5.399  0.3240 -0.7372 -0.6968
19148TIP3   OH278858   1.990   4.997   4.396 -0.0601  0.1462  0.3644
19148TIP3    H178859   2.030   5.069   4.445 -0.1691 -0.0901  0.8047
19148TIP3    H278860   1.922   4.963   4.454 -1.3274  0.9421 -0.6313
19149TIP3   OH278861   2.339   1.325   4.893  0.3473 -0.1493 -0.2534
19149TIP3    H178862   2.256   1.283   4.918  0.6171 -0.4353  0.1513
19149TIP3    H278863   2.315   1.417   4.877  0.0664 -0.1026  0.4433
19150TIP3   OH278864   1.245   5.470   5.405 -0.1678 -0.1563 -0.2590
19150TIP3    H178865   1.238   5.420   5.487  1.5662 -0.2854 -0.1894
19150TIP3    H278866   1.171   5.531   5.409 -0.6749 -0.8251  0.9442
19151TIP3   OH278867   1.907   0.239   6.555  0.0654 -0.9567  0.2912
19151TIP3    H178868   1.869   0.293   6.625 -1.3530 -0.9695 -0.4308
19151TIP3    H278869   1.843   0.168   6.544 -2.1586  1.5515 -4.1347
19152TIP3   OH278870   0.250   0.002   1.518 -0.2268  0.3562 -0.6564
19152TIP3    H178871   0.222   0.055   1.592  0.5636 -0.6555  0.3977
19152TIP3    H278872   0.315   0.056   1.473  0.7756  0.2206  0.5668
19153TIP3   OH278873   7.225   7.021   4.727 -0.1355 -0.1443  0.4603
19153TIP3    H178874   7.241   7.101   4.778  0.7638 -1.0908  1.6853
19153TIP3    H278875   7.151   6.980   4.770  0.9876 -1.2413  1.3899
19154TIP3   OH278876   3.225   1.535   5.657 -0.2258 -0.1740 -0.4777
19154TIP3    H178877   3.239   1.462   5.597  2.9958  0.5300 -0.6147
19154TIP3    H278878   3.251   1.500   5.743  0.6989  0.6180 -0.4378
19155TIP3   OH278879   0.655   5.975   6.044 -0.1943 -0.1615 -0.2772
19155TIP3    H178880   0.579   6.032   6.032 -0.3808 -0.5768 -1.1080
19155TIP3    H278881   0.622   5.901   6.096 -0.1492  0.0803  0.0960
19156TIP3   OH278882   2.054   1.245   4.806 -0.8199 -0.0282  0.3018
19156TIP3    H178883   2.049   1.209   4.895 -0.4754  0.6643  0.6070
19156TIP3    H278884   1.991   1.317   4.806  0.3887  1.0574  0.5080
19157TIP3   OH278885   0.621   6.740   4.035  0.0178 -0.1512 -0.2216
19157TIP3    H178886   0.638   6.804   3.967  0.7896 -1.9533 -1.7650
19157TIP3    H278887   0.554   6.781   4.090 -0.5643  1.3726 -2.0043
19158TIP3   OH278888   2.035   6.657   5.524 -0.1286  0.0487  0.0501
19158TIP3    H178889   2.036   6.724   5.455 -0.2133 -0.0192 -0.0172
19158TIP3    H278890   2.097   6.591   5.494 -0.7478 -0.3628 -0.3391
19159TIP3   OH278891   2.251   2.426   4.983  0.4736 -0.2234 -0.1552
19159TIP3    H178892   2.219   2.436   5.073 -3.0042  0.0846 -1.3615
19159TIP3    H278893   2.260   2.331   4.971 -3.3436 -0.5627 -0.8373
19160TIP3   OH278894   0.908   1.058   3.834 -0.1656 -0.1550  0.1163
19160TIP3    H178895   0.997   1.091   3.840 -0.3165  0.4422 -0.7167
19160TIP3    H278896   0.900   0.994   3.904  1.6313 -1.8911 -1.2410
19161TIP3   OH278897   1.103   6.446   4.757 -0.3959 -0.3291 -0.0262
19161TIP3    H178898   1.183   6.445   4.810 -0.8785  0.2553  0.7288
19161TIP3    H278899   1.046   6.382   4.799 -0.0927 -1.2080 -0.9407
19162TIP3   OH278900   2.254   6.140   5.500  0.3448  0.8163 -0.1282
19162TIP3    H178901   2.158   6.140   5.496  0.3649 -1.9926 -1.8947
19162TIP3    H278902   2.276   6.069   5.560  1.3360  0.3474 -1.0290
19163TIP3   OH278903   3.952   6.343   3.802  0.1930  0.2033  0.6542
19163TIP3    H178904   3.952   6.426   3.755 -0.8615 -1.1412 -1.8008
19163TIP3    H278905   4.045   6.326   3.819  0.6526  0.5586 -1.3164
19164TIP3   OH278906   0.644   2.345   5.080  0.2144  0.1920  0.0757
19164TIP3    H178907   0.625   2.436   5.059  0.0561  0.4876  1.5153
19164TIP3    H278908   0.728   2.328   5.036 -0.1092  0.8018 -0.8017
19165TIP3   OH278909   5.963   1.356   4.511  0.1257 -0.2574  0.0017
19165TIP3    H178910   5.921   1.415   4.574 -0.2499 -0.3669 -0.1430
19165TIP3    H278911   5.896   1.342   4.443  0.4258 -0.3708 -0.2704
19166TIP3   OH278912   0.446   0.279   3.670 -0.3640 -0.4899 -0.2084
19166TIP3    H178913   0.358   0.316   3.678 -0.0596  0.0145  0.8271
19166TIP3    H278914   0.440   0.193   3.712 -0.0867  0.0095  0.8739
19167TIP3   OH278915   1.675   7.200   5.060 -0.2337 -0.2194 -0.0653
19167TIP3    H178916   1.760   7.207   5.104  0.4993 -1.8939 -1.1406
19167TIP3    H278917   1.692   7.233   4.971 -0.8265 -0.1504 -0.1537
19168TIP3   OH278918   1.766   6.545   5.113  0.0057  0.2696  0.6237
19168TIP3    H178919   1.721   6.482   5.057  1.4929 -1.2856  1.1169
19168TIP3    H278920   1.766   6.504   5.200  3.4498 -0.4107  0.3857
19169TIP3   OH278921   3.041   6.493   4.744  0.2285 -0.1389  0.3452
19169TIP3    H178922   3.121   6.544   4.755  1.3337 -1.2102 -2.1748
19169TIP3    H278923   2.997   6.534   4.669 -2.4143  1.3996  2.6463
19170TIP3   OH278924   0.977   6.366   3.185 -0.1564 -0.5214 -0.6993
19170TIP3    H178925   1.064   6.374   3.224 -1.0812 -1.1295  1.5686
19170TIP3    H278926   0.962   6.450   3.142  1.5106 -0.3784 -1.0026
19171TIP3   OH278927   0.729   7.118   5.401  0.1228  0.3231 -0.1439
19171TIP3    H178928   0.725   7.208   5.432 -0.4610  0.3942 -0.4223
19171TIP3    H278929   0.803   7.116   5.340 -0.5141  0.8689 -0.9487
19172TIP3   OH278930   1.973   0.675   4.148 -0.3536 -0.2966 -0.1014
19172TIP3    H178931   2.008   0.763   4.151  0.4070 -0.5722 -0.6880
19172TIP3    H278932   1.900   0.680   4.086  0.2601 -0.2701 -0.8297
19173TIP3   OH278933   0.476   6.913   4.196 -0.2309 -0.0761  0.4144
19173TIP3    H178934   0.467   6.938   4.288  1.7373  0.6449  0.4350
19173TIP3    H278935   0.477   6.995   4.148  0.1313 -0.3923 -0.1231
19174TIP3   OH278936   6.296   4.458   3.779 -0.3165  0.1889 -0.0596
19174TIP3    H178937   6.236   4.466   3.705 -0.5066  0.5202  0.1243
19174TIP3    H278938   6.330   4.546   3.792  0.3575 -0.0409 -0.2829
19175TIP3   OH278939   6.358   5.558   4.760 -0.0054  0.0160  0.1067
19175TIP3    H178940   6.329   5.497   4.828  0.4684 -0.8434 -0.4466
19175TIP3    H278941   6.376   5.640   4.807 -0.3474 -0.3616  0.9038
19176TIP3   OH278942   0.679   6.987   5.063  0.0123 -0.2521  0.0024
19176TIP3    H178943   0.752   7.046   5.084 -1.3064  1.2719  0.4510
19176TIP3    H278944   0.633   7.031   4.991  0.4066 -1.9508 -1.3020
19177TIP3   OH278945   1.151   0.129   6.126 -0.8101  0.1964 -0.1891
19177TIP3    H178946   1.228   0.112   6.180 -0.5870  0.2107 -0.4992
19177TIP3    H278947   1.133   0.046   6.083  0.4135  0.7757 -1.8779
19178TIP3   OH278948   6.564   6.431   4.060 -0.1819  0.4483  0.3831
19178TIP3    H178949   6.600   6.508   4.018 -0.1240  1.2759  1.9416
19178TIP3    H278950   6.509   6.465   4.130 -3.1642 -0.8004 -1.2531
19179TIP3   OH278951   2.203   0.607   5.632 -0.1991  0.4750 -0.4126
19179TIP3    H178952   2.195   0.548   5.707 -1.4753  1.6365  0.3691
19179TIP3    H278953   2.210   0.549   5.556 -0.4898 -0.6787  0.4431
19180TIP3   OH278954   6.285   2.365   4.308  0.0625  0.6966  0.1040
19180TIP3    H178955   6.197   2.329   4.294 -0.0812  0.8897  0.4826
19180TIP3    H278956   6.270   2.444   4.359  0.5257  0.2627  0.9209
19181TIP3   OH278957   0.420   0.036   5.958  0.0441 -0.2893  0.6709
19181TIP3    H178958   0.373  -0.038   5.997  1.7953 -0.5915  2.2235
19181TIP3    H278959   0.406   0.109   6.019  0.6935 -0.0848  0.5772
19182TIP3   OH278960   0.925   5.488   3.677 -0.0220  0.4980  0.0986
19182TIP3    H178961   0.867   5.439   3.735  0.3422 -2.1922 -1.7151
19182TIP3    H278962   0.980   5.539   3.736 -1.5782  0.0687  1.9844
19183TIP3   OH278963   5.252   0.603   1.430  0.0477  0.1693  0.0516
19183TIP3    H178964   5.288   0.548   1.360  1.0101  1.2589 -0.3368
19183TIP3    H278965   5.302   0.579   1.508  0.5391  0.5611 -0.1408
19184TIP3   OH278966   1.453   5.527   4.113 -0.8957  0.4556 -0.3287
19184TIP3    H178967   1.534   5.573   4.090 -0.8709 -0.2533 -1.7499
19184TIP3    H278968   1.385   5.594   4.108 -0.4933  0.9057  0.2050
19185TIP3   OH278969   7.046   6.710   5.699  0.4229 -0.1597  0.2588
19185TIP3    H178970   6.989   6.671   5.765 -0.0372  1.8481  1.0826
19185TIP3    H278971   7.100   6.773   5.748  0.8875  0.5035 -1.0791
19186TIP3   OH278972   0.162   0.377   2.972  0.1648  0.1369  0.2842
19186TIP3    H178973   0.137   0.327   3.050  1.1289  0.4340  0.7978
19186TIP3    H278974   0.242   0.423   2.998 -0.3743  1.4849 -0.3784
19187TIP3   OH278975   6.648   6.537   5.810  0.2264 -0.6436  0.2215
19187TIP3    H178976   6.598   6.510   5.886  1.2444  0.7568  1.4183
19187TIP3    H278977   6.729   6.575   5.846  1.1866 -0.9063 -1.5756
19188TIP3   OH278978   0.864   3.522   3.934 -0.1000 -0.0644  0.0466
19188TIP3    H178979   0.937   3.462   3.916 -1.5042 -0.6715 -4.2173
19188TIP3    H278980   0.886   3.602   3.887 -1.1137  0.5858  0.6522
19189TIP3   OH278981   0.687   5.816   5.424  0.3297  0.2974  0.7415
19189TIP3    H178982   0.733   5.899   5.411  0.1973  0.6571  2.4360
19189TIP3    H278983   0.594   5.840   5.427  0.0647 -0.2921 -1.6041
19190TIP3   OH278984   1.655   7.013   6.081 -0.0601 -0.1248  0.0490
19190TIP3    H178985   1.564   6.994   6.104 -0.7441  0.8944 -1.7530
19190TIP3    H278986   1.672   7.100   6.118  0.3003 -0.4561  0.6737
19191TIP3   OH278987   5.746   6.242   5.043 -0.1346 -0.5778  0.0086
19191TIP3    H178988   5.763   6.315   5.103  0.4844 -2.0756  1.6966
19191TIP3    H278989   5.828   6.231   4.995 -0.0966 -0.3993  0.0330
19192TIP3   OH278990   7.083   6.293   2.813  0.2537 -0.0842 -1.3227
19192TIP3    H178991   7.019   6.357   2.783  1.1694  0.4882 -2.0615
19192TIP3    H278992   7.052   6.210   2.778 -0.5872  0.0327 -0.8909
19193TIP3   OH278993   6.786   1.010   4.723  0.1094  0.1798  0.4272
19193TIP3    H178994   6.881   1.020   4.731  0.0416  0.1199  1.4373
19193TIP3    H278995   6.773   0.968   4.638  1.0570 -0.7760  0.7383
19194TIP3   OH278996   1.533   6.476   5.806  0.0915 -0.0205  0.2746
19194TIP3    H178997   1.544   6.561   5.764  0.4286 -0.6926 -1.0303
19194TIP3    H278998   1.575   6.485   5.892  1.8919  0.5113 -0.6577
19195TIP3   OH278999   1.505   6.229   3.428 -0.4376 -0.4564 -0.0328
19195TIP3    H179000   1.460   6.235   3.513  0.5219 -0.0818  0.4506
19195TIP3    H279001   1.476   6.145   3.392 -1.2441 -0.3867  0.4294
19196TIP3   OH279002   0.452   6.533   6.037  0.0352  0.0838 -0.1065
19196TIP3    H179003   0.464   6.439   6.030  0.4468 -0.0706  2.2147
19196TIP3    H279004   0.532   6.571   6.000 -0.0587 -0.4750 -0.8867
19197TIP3   OH279005   1.721   4.676   4.486 -0.6405 -0.5485  0.0501
19197TIP3    H179006   1.639   4.664   4.438  0.0125 -1.1156 -0.9487
19197TIP3    H279007   1.695   4.678   4.578 -1.8317 -0.1785 -0.2879
19198TIP3   OH279008   0.059   0.104   5.175 -0.1586  0.4539 -0.4292
19198TIP3    H179009   0.068   0.139   5.086  0.4336  1.1064 -0.1150
19198TIP3    H279010   0.075   0.179   5.232 -0.9939  0.1389  0.2255
19199TIP3   OH279011   0.372   6.978   5.592  0.4314  0.0233  0.0871
19199TIP3    H179012   0.426   6.951   5.517 -0.6507 -1.1497 -0.2909
19199TIP3    H279013   0.331   6.897   5.622 -0.8934  0.8558  0.5581
19200TIP3   OH279014   0.651   6.238   5.470  0.1518  0.7541 -0.0205
19200TIP3    H179015   0.579   6.176   5.475  1.1583 -0.4168  0.1738
19200TIP3    H279016   0.634   6.289   5.391  0.7766 -1.6001 -1.7055
19201TIP3   OH279017   1.612   6.189   5.802  0.0314  0.5445 -0.4905
19201TIP3    H179018   1.707   6.188   5.816  0.2996 -0.7617 -2.1445
19201TIP3    H279019   1.587   6.281   5.812  1.1321  0.5947  1.9813
19202TIP3   OH279020   0.573   4.672   5.579 -0.6257 -0.7003 -0.0536
19202TIP3    H179021   0.493   4.625   5.605 -1.4581  1.5143  1.4968
19202TIP3    H279022   0.542   4.760   5.555  1.4310  0.4558  1.3924
19203TIP3   OH279023   6.929   6.892   5.322 -0.0223 -0.5986 -0.3059
19203TIP3    H179024   6.837   6.909   5.341 -0.0132  0.7164 -1.3444
19203TIP3    H279025   6.932   6.799   5.298 -1.1178 -0.5865 -0.5128
19204TIP3   OH279026   6.587   2.481   5.171 -0.1641 -0.7176  0.0919
19204TIP3    H179027   6.506   2.430   5.171  0.1597 -1.2404 -1.1469
19204TIP3    H279028   6.562   2.566   5.134 -0.4044 -0.4515  0.8562
19205TIP3   OH279029   7.137   1.141   5.803 -0.3183 -0.4337  0.6407
19205TIP3    H179030   7.128   1.225   5.847  0.6088 -0.0785  0.1617
19205TIP3    H279031   7.214   1.101   5.843 -0.6293 -0.9618  0.7153
19206TIP3   OH279032   4.098   6.168   4.492 -0.0236  0.1042  0.2329
19206TIP3    H179033   4.141   6.131   4.415 -1.1849  0.2534 -0.5028
19206TIP3    H279034   4.040   6.097   4.522  0.0537  0.2250  0.6588
19207TIP3   OH279035   5.352   1.218   5.147  0.2955 -0.7632  0.3732
19207TIP3    H179036   5.284   1.261   5.095  1.4240  0.7099  0.1060
19207TIP3    H279037   5.316   1.131   5.164 -0.4844 -0.9843 -2.1137
19208TIP3   OH279038   3.757   7.141   4.746  0.3030 -0.3896 -0.0548
19208TIP3    H179039   3.672   7.103   4.723  1.1400 -1.2727 -1.7633
19208TIP3    H279040   3.756   7.228   4.706 -0.3112  0.1056  1.0368
19209TIP3   OH279041   0.514   0.273   4.302  0.1952 -0.1201  0.2661
19209TIP3    H179042   0.550   0.232   4.223 -2.0804 -1.7559  0.0640
19209TIP3    H279043   0.563   0.356   4.309  0.8166 -0.1847 -2.5446
19210TIP3   OH279044   2.508   1.184   2.181  0.3904 -0.0321  0.2455
19210TIP3    H179045   2.521   1.116   2.247  0.2068  0.1790  0.5019
19210TIP3    H279046   2.494   1.136   2.099 -0.7821 -0.3277  0.6078
19211TIP3   OH279047   2.110   6.851   5.776 -0.0559 -0.2052  0.2467
19211TIP3    H179048   2.036   6.879   5.721 -0.0227 -0.2495  0.1787
19211TIP3    H279049   2.085   6.763   5.806 -0.3115  0.0370  0.7386
19212TIP3   OH279050   6.441   5.477   4.499 -0.4923 -0.7126  0.1921
19212TIP3    H179051   6.416   5.483   4.591  0.2504 -0.3759  0.3787
19212TIP3    H279052   6.364   5.442   4.455 -0.7352 -1.1963  0.9952
19213TIP3   OH279053   1.335   5.900   5.749 -0.2788 -0.1951 -0.1086
19213TIP3    H179054   1.294   5.825   5.792 -1.6301  0.1729 -0.7063
19213TIP3    H279055   1.280   5.915   5.672  0.2111  1.1649 -0.1974
19214TIP3   OH279056   1.393   6.131   6.074  0.1556 -0.5552 -0.4842
19214TIP3    H179057   1.437   6.054   6.039 -0.3956 -0.8337 -0.5567
19214TIP3    H279058   1.350   6.171   5.999 -0.2774 -0.6547 -0.2891
19215TIP3   OH279059   1.941   7.236   3.258  0.4964 -0.3010 -0.2727
19215TIP3    H179060   2.030   7.267   3.278  1.1144 -2.1439 -0.0886
19215TIP3    H279061   1.950   7.189   3.176 -0.0267 -1.7200  0.4734
19216TIP3   OH279062   1.484   6.245   3.704  0.3732 -0.1623  0.3352
19216TIP3    H179063   1.543   6.212   3.771  0.7583 -2.1128 -0.9210
19216TIP3    H279064   1.507   6.338   3.695  0.0127  0.2262  3.1598
19217TIP3   OH279065   1.309   6.810   3.860  0.0018 -0.1015 -0.1967
19217TIP3    H179066   1.326   6.898   3.892 -0.8677  0.1280 -0.3305
19217TIP3    H279067   1.341   6.752   3.929  2.6594  0.2326 -1.0873
19218TIP3   OH279068   0.876   4.813   4.979 -0.2730 -0.4073  0.6443
19218TIP3    H179069   0.856   4.840   5.069 -0.8101 -0.2932  0.4918
19218TIP3    H279070   0.966   4.780   4.984  0.3790  1.3355  0.8526
19219TIP3   OH279071   0.423   6.602   4.756 -0.0757  0.3140  0.0704
19219TIP3    H179072   0.333   6.626   4.778  0.7656  1.2976  2.6245
19219TIP3    H279073   0.473   6.683   4.770  1.4655 -0.6689  0.3513
19220TIP3   OH279074   3.645   6.712   5.763  0.2225 -0.4320  0.1625
19220TIP3    H179075   3.605   6.791   5.725 -0.9626 -1.7775 -1.4519
19220TIP3    H279076   3.638   6.725   5.857 -0.2182  1.2650 -0.0800
19221TIP3   OH279077   2.059   6.091   4.150 -0.0891  0.4159  0.8704
19221TIP3    H179078   2.105   6.155   4.204  0.6586  1.6221 -1.1291
19221TIP3    H279079   2.114   6.012   4.154  0.3838  0.7621  1.1974
19222TIP3   OH279080   1.619   6.747   5.754  0.1290  0.5324 -0.4078
19222TIP3    H179081   1.648   6.830   5.792 -1.0891  1.0190 -0.5474
19222TIP3    H279082   1.610   6.765   5.661  0.5689  0.0454 -0.5428
19223TIP3   OH279083   6.703   1.560   4.482 -0.3194  0.6589  0.2899
19223TIP3    H179084   6.727   1.495   4.416 -1.0981 -1.8480  2.3970
19223TIP3    H279085   6.779   1.565   4.539 -0.6118  0.9433  0.6556
19224TIP3   OH279086   1.386   4.990   5.116 -0.1155  0.3520  0.5983
19224TIP3    H179087   1.361   5.067   5.065 -0.1861  0.8808  1.4225
19224TIP3    H279088   1.482   4.987   5.110 -0.2329 -0.4872 -0.8532
19225TIP3   OH279089   1.320   6.295   4.208  0.0977  0.2832  0.3146
19225TIP3    H179090   1.274   6.377   4.223  0.3704  0.3932  0.5558
19225TIP3    H279091   1.294   6.238   4.280 -1.6876 -0.5529 -0.9436
19226TIP3   OH279092   0.468   5.582   1.185 -0.3978 -0.7223  0.3230
19226TIP3    H179093   0.409   5.650   1.217 -1.2411 -1.2694 -0.0558
19226TIP3    H279094   0.513   5.623   1.111 -0.8079 -0.5293  0.1778
19227TIP3   OH279095   2.190   7.094   5.223 -0.2890 -0.3242 -0.5878
19227TIP3    H179096   2.101   7.090   5.186 -1.2828  0.2006  1.6566
19227TIP3    H279097   2.214   7.187   5.217 -1.4358  0.2031  2.2130
19228TIP3   OH279098   7.133   1.190   5.517  0.4353 -0.3836 -0.2366
19228TIP3    H179099   7.220   1.149   5.515  0.2429 -0.8775  0.8905
19228TIP3    H279100   7.109   1.190   5.610 -0.1328  1.1269 -0.3701
19229TIP3   OH279101   0.107   1.058   5.239 -0.7373 -0.1600  0.2190
19229TIP3    H179102   0.098   1.113   5.317  0.7382  0.7398 -0.2261
19229TIP3    H279103   0.140   0.974   5.272 -0.5410  0.0671  0.6048
19230TIP3   OH279104   2.338   4.685   6.108 -0.0880 -0.8454 -0.1256
19230TIP3    H179105   2.290   4.662   6.028 -0.3765  1.5516 -0.6716
19230TIP3    H279106   2.297   4.766   6.138  2.0671 -0.0414  0.7072
19231TIP3   OH279107   2.438   0.250   3.774  0.2085 -0.5053  0.5558
19231TIP3    H179108   2.447   0.260   3.869 -1.0426  0.5634  0.5838
19231TIP3    H279109   2.464   0.335   3.739  1.5540 -1.1904 -0.1334
19232TIP3   OH279110   0.143   0.453   5.508  0.1559 -0.8676  0.3926
19232TIP3    H179111   0.084   0.387   5.543 -1.9055  1.4355  1.4399
19232TIP3    H279112   0.185   0.491   5.585 -1.4217  1.4928  0.1474
19233TIP3   OH279113   1.678   5.606   4.620 -0.1607  0.1705 -0.0551
19233TIP3    H179114   1.700   5.579   4.531  1.8172  0.4336  0.3274
19233TIP3    H279115   1.729   5.547   4.676 -0.5842  0.6831  0.8789
19234TIP3   OH279116   3.384   6.670   4.299 -0.5295  0.5461 -0.1971
19234TIP3    H179117   3.399   6.581   4.328  0.6965  0.7198 -0.2642
19234TIP3    H279118   3.303   6.697   4.343 -0.3506 -0.2434  0.6199
19235TIP3   OH279119   2.090   6.313   3.638 -0.5282  0.1214  0.2108
19235TIP3    H179120   1.994   6.309   3.638 -0.4930 -3.3036 -3.2465
19235TIP3    H279121   2.110   6.398   3.598 -2.1335  0.4589  0.0930
19236TIP3   OH279122   2.180   5.807   2.705  0.1716 -0.4734 -0.2813
19236TIP3    H179123   2.236   5.876   2.740 -1.0923 -0.1481  1.1640
19236TIP3    H279124   2.105   5.805   2.765  0.4427 -3.4469  0.0231
19237TIP3   OH279125   6.809   0.179   3.794 -0.2644 -0.4890  0.2492
19237TIP3    H179126   6.859   0.113   3.842  0.7952  0.4485  0.4396
19237TIP3    H279127   6.776   0.238   3.862 -0.1386 -0.0948 -0.0334
19238TIP3   OH279128   2.922   6.379   5.451 -0.0902 -0.3890 -0.1256
19238TIP3    H179129   2.843   6.327   5.440  0.8230 -1.9475  0.5664
19238TIP3    H279130   2.960   6.384   5.363  1.6299 -3.8738  0.3217
19239TIP3   OH279131   2.102   7.065   4.638  0.1329 -0.4759 -0.2797
19239TIP3    H179132   2.165   7.130   4.670  1.5326 -1.6136 -0.6330
19239TIP3    H279133   2.020   7.113   4.628  0.5369  0.6759  1.7150
19240TIP3   OH279134   0.962   6.888   4.860 -0.3132 -0.9063  0.7014
19240TIP3    H179135   0.950   6.812   4.803  1.9822 -0.1003 -0.9139
19240TIP3    H279136   1.036   6.864   4.917  2.3872  1.1914 -1.8082
19241TIP3   OH279137   7.258   5.939   4.278  0.2294 -0.3357 -0.3924
19241TIP3    H179138   7.243   5.942   4.372  1.7767  0.4572 -0.1547
19241TIP3    H279139   7.250   5.847   4.255  1.6760 -0.7823  0.8321
19242TIP3   OH279140   0.280   5.993   3.687 -0.0364  0.2077  0.3169
19242TIP3    H179141   0.258   5.903   3.709  1.2748  0.2397  1.8517
19242TIP3    H279142   0.376   5.994   3.681 -0.0927  1.2285 -0.9416
19243TIP3   OH279143   0.675   5.825   5.806  0.2973  0.1029 -0.1095
19243TIP3    H179144   0.611   5.755   5.793 -0.9689  1.2233 -0.0194
19243TIP3    H279145   0.642   5.875   5.880 -1.3925  3.5923 -3.0280
19244TIP3   OH279146   2.347   1.199   5.613 -0.0549 -0.7132  0.5196
19244TIP3    H179147   2.274   1.153   5.571  0.1443  0.1737 -0.8204
19244TIP3    H279148   2.306   1.263   5.670 -0.3467 -0.0791 -0.3855
19245TIP3   OH279149   2.185   0.560   5.105  0.1440 -0.8127 -0.5839
19245TIP3    H179150   2.220   0.647   5.084 -3.1704  0.6391 -0.3692
19245TIP3    H279151   2.219   0.504   5.035  1.7921  0.7863 -1.1122
19246TIP3   OH279152   2.864   6.035   3.521 -0.7088  0.2588  0.3827
19246TIP3    H179153   2.800   6.069   3.583  1.1167 -0.0139  2.4677
19246TIP3    H279154   2.916   6.111   3.496 -0.8161  0.1802 -0.1033
19247TIP3   OH279155   3.635   6.692   4.533 -0.2496 -0.3921  0.2425
19247TIP3    H179156   3.643   6.617   4.592  1.3925 -0.1993  0.2772
19247TIP3    H279157   3.680   6.665   4.453 -3.0606 -0.9291 -1.2449
19248TIP3   OH279158   3.248   0.397   3.100  0.1372 -0.3075  0.0984
19248TIP3    H179159   3.264   0.453   3.175 -2.5417  0.3631  0.2067
19248TIP3    H279160   3.231   0.311   3.137  1.3670 -0.5673  0.0892
19249TIP3   OH279161   3.530   0.621   5.771 -0.4678 -0.2157 -0.5010
19249TIP3    H179162   3.436   0.637   5.762 -0.2088  2.6855  1.0285
19249TIP3    H279163   3.537   0.554   5.839 -1.4142  0.5179  0.3334
19250TIP3   OH279164   2.709   6.934   4.903 -0.0380  0.1457 -0.0747
19250TIP3    H179165   2.751   7.014   4.935 -1.7550  1.1002 -0.1078
19250TIP3    H279166   2.737   6.866   4.963  1.0725  0.8709  0.2396
19251TIP3   OH279167   2.446   5.363   4.971  0.6416  0.1725 -0.1539
19251TIP3    H179168   2.409   5.298   4.911  1.4719 -0.5780  0.1549
19251TIP3    H279169   2.443   5.322   5.057 -0.1217  1.0783  0.2702
19252TIP3   OH279170   1.795   4.467   5.033 -0.0258  0.4833  0.0541
19252TIP3    H179171   1.835   4.526   5.097 -0.4331  0.5536  0.2445
19252TIP3    H279172   1.732   4.415   5.083  0.4881 -0.2712 -0.0709
19253TIP3   OH279173   4.189   0.268   5.269 -0.1658  0.1306  0.4978
19253TIP3    H179174   4.198   0.358   5.300 -2.0203  0.1663  1.0274
19253TIP3    H279175   4.270   0.225   5.295 -0.3021  1.0139  2.4526
19254TIP3   OH279176   1.151   6.612   5.711  0.5251 -0.0886  0.2188
19254TIP3    H179177   1.107   6.616   5.796 -0.3196  0.7966 -0.2415
19254TIP3    H279178   1.194   6.526   5.710  0.7354 -0.0094  1.6228
19255TIP3   OH279179   4.561   4.366   3.215  0.5024 -0.2336 -0.0098
19255TIP3    H179180   4.513   4.329   3.140 -0.0866  1.1951 -0.3564
19255TIP3    H279181   4.598   4.290   3.260 -0.5292 -1.2254 -0.8110
19256TIP3   OH279182   2.013   6.161   4.757  0.4509 -0.2678  0.1823
19256TIP3    H179183   2.003   6.253   4.784  0.1151  0.1929 -1.4352
19256TIP3    H279184   2.058   6.119   4.831 -0.8611  0.8151  1.6379
19257TIP3   OH279185   7.290   7.116   4.200  0.2073 -0.2432 -0.1794
19257TIP3    H179186   7.267   7.194   4.250  0.2401 -0.1149 -0.3612
19257TIP3    H279187   7.230   7.049   4.231  0.2937 -0.1915  0.1018
19258TIP3   OH279188   3.690   6.718   3.722 -0.1152  0.3163 -0.5255
19258TIP3    H179189   3.711   6.810   3.736  2.1213 -0.2186 -0.2523
19258TIP3    H279190   3.613   6.702   3.777  1.3193  1.2610  1.7912
19259TIP3   OH279191   3.595   6.441   3.563 -0.7788  0.3792 -0.1546
19259TIP3    H179192   3.585   6.420   3.655 -1.6441  2.3679  0.2211
19259TIP3    H279193   3.514   6.412   3.522 -0.4080 -0.4742 -0.2916
19260TIP3   OH279194   4.438   6.026   3.950 -0.3429  0.7381 -0.0031
19260TIP3    H179195   4.346   6.012   3.929 -0.0072 -0.7807 -0.4952
19260TIP3    H279196   4.438   6.104   4.006 -2.0062  0.2760  0.6606
19261TIP3   OH279197   7.299   0.264   4.968 -0.5857  0.1326  0.7975
19261TIP3    H179198   7.219   0.294   5.011 -1.2048  2.2777 -1.6967
19261TIP3    H279199   7.314   0.328   4.898  2.1646 -1.4008 -0.1007
19262TIP3   OH279200   2.150   5.466   4.719 -0.3501 -0.2966  0.5533
19262TIP3    H179201   2.055   5.455   4.725 -0.5859  0.9424 -0.6191
19262TIP3    H279202   2.184   5.420   4.796 -1.9372 -0.1973  1.3452
19263TIP3   OH279203   5.338   4.603   5.056  1.0247 -0.1314 -1.1015
19263TIP3    H179204   5.425   4.578   5.028  1.3712 -0.6016  0.3486
19263TIP3    H279205   5.344   4.608   5.151  0.5905  4.0608 -1.2306
19264TIP3   OH279206   0.714   0.871   5.550  0.9631  0.4879 -0.0457
19264TIP3    H179207   0.717   0.775   5.540  1.1722  0.4937 -0.0434
19264TIP3    H279208   0.699   0.903   5.461  1.7989  0.4923 -0.1936
19265TIP3   OH279209   4.855   6.791   4.606 -0.2382 -0.2538  0.4941
19265TIP3    H179210   4.836   6.723   4.671  3.8527 -0.4287  1.6643
19265TIP3    H279211   4.893   6.863   4.657  1.4219  0.3240 -1.4865
19266TIP3   OH279212   0.873   2.042   3.926  0.5294  0.4857  0.4827
19266TIP3    H179213   0.818   2.115   3.898 -0.6928 -1.0634 -1.2729
19266TIP3    H279214   0.812   1.969   3.938  1.8966 -0.6218  0.8718
19267TIP3   OH279215   3.944   6.980   5.681  0.2265  0.1178  0.1780
19267TIP3    H179216   4.024   7.022   5.647 -0.8543  1.2925 -0.9849
19267TIP3    H279217   3.976   6.908   5.735  2.1171  1.5513  1.0402
19268TIP3   OH279218   3.056   5.384   3.461 -0.2338  0.6019 -0.4097
19268TIP3    H179219   2.986   5.450   3.464 -0.2319  0.5728  0.2870
19268TIP3    H279220   3.039   5.335   3.381 -0.7267  0.9130 -0.4998
19269TIP3   OH279221   4.178   5.841   3.968  0.4095  0.1522 -0.9351
19269TIP3    H179222   4.122   5.798   4.033  3.3254 -0.0397  1.6050
19269TIP3    H279223   4.160   5.934   3.980  1.5910  0.1796  0.8809
19270TIP3   OH279224   5.616   0.174   5.058 -0.3273 -0.2331 -0.2106
19270TIP3    H179225   5.629   0.165   4.964  2.1996 -0.6900  0.1601
19270TIP3    H279226   5.616   0.084   5.092  0.5252 -0.0031  0.4312
19271TIP3   OH279227   3.498   1.319   3.877  0.0619 -0.3869  0.1646
19271TIP3    H179228   3.467   1.409   3.888  1.6857  0.6223 -2.9388
19271TIP3    H279229   3.418   1.267   3.875 -1.1022  1.3824 -1.0880
19272TIP3   OH279230   2.996   0.199   4.721  0.5258 -0.1593  0.6310
19272TIP3    H179231   3.077   0.164   4.683 -0.1769 -1.4618  0.3060
19272TIP3    H279232   3.020   0.286   4.754  2.1478 -0.7008  0.8978
19273TIP3   OH279233   1.085   6.134   3.445 -0.0652  0.0745 -0.1098
19273TIP3    H179234   1.127   6.176   3.371  0.2980  1.0594  0.6417
19273TIP3    H279235   1.138   6.158   3.520 -0.1849 -1.2604  0.4256
19274TIP3   OH279236   0.381   4.227   4.749 -0.6368 -0.1801 -0.0440
19274TIP3    H179237   0.366   4.140   4.711 -1.1668 -0.3404  0.5229
19274TIP3    H279238   0.431   4.209   4.829 -1.6762 -0.0556  0.6390
19275TIP3   OH279239   5.972   5.725   2.362  0.7287 -0.1028 -0.0856
19275TIP3    H179240   6.032   5.663   2.320 -0.4325 -0.1202 -1.7595
19275TIP3    H279241   5.888   5.711   2.319 -0.3297  0.4077  1.7609
19276TIP3   OH279242   2.962   7.006   5.248  0.4418 -0.2669 -0.0714
19276TIP3    H179243   2.922   7.088   5.278  1.1618  1.9624 -4.7144
19276TIP3    H279244   2.887   6.949   5.229 -0.2666  0.9227 -0.9399
19277TIP3   OH279245   3.883   5.874   5.440 -0.0746 -0.5989 -0.0070
19277TIP3    H179246   3.816   5.812   5.410 -0.1557  0.0399 -1.1638
19277TIP3    H279247   3.942   5.884   5.365  0.9046 -0.5854  0.7520
19278TIP3   OH279248   0.613   5.894   4.639 -0.2049 -0.3132 -0.2221
19278TIP3    H179249   0.681   5.959   4.651  0.0902 -0.6346 -0.1533
19278TIP3    H279250   0.578   5.879   4.727  0.0327 -0.5784 -0.1718
19279TIP3   OH279251   2.843   5.451   3.915 -0.8151  0.1247  0.2506
19279TIP3    H179252   2.902   5.377   3.931 -0.4257  0.0967 -1.2965
19279TIP3    H279253   2.893   5.511   3.861 -2.6023 -0.4770 -2.1496
19280TIP3   OH279254   1.435   5.166   5.391  0.0700 -0.0626  0.0209
19280TIP3    H179255   1.404   5.126   5.310 -2.3681 -2.7071  2.1411
19280TIP3    H279256   1.366   5.227   5.416  0.0795 -0.4268  0.9393
19281TIP3   OH279257   2.833   6.920   4.592  0.1616 -0.1661 -0.4537
19281TIP3    H179258   2.754   6.867   4.593 -0.6455  0.9143 -3.1170
19281TIP3    H279259   2.872   6.905   4.506  1.1505  1.7293 -0.3771
19282TIP3   OH279260   1.083   6.891   5.709 -0.9086  0.5128 -0.0771
19282TIP3    H179261   1.107   6.799   5.709 -0.3402  0.6442 -1.4529
19282TIP3    H279262   1.119   6.926   5.790  0.1441 -0.1644 -0.2500
19283TIP3   OH279263   3.322   6.245   5.722 -0.0919  0.5412  0.1770
19283TIP3    H179264   3.371   6.297   5.785  0.7585  0.1049 -0.1249
19283TIP3    H279265   3.247   6.300   5.699  1.4855  2.1943 -1.1249
19284TIP3   OH279266   7.081   2.522   4.457  0.9112 -0.6028  0.3823
19284TIP3    H179267   7.128   2.556   4.381  0.5339 -0.7408  0.0822
19284TIP3    H279268   7.020   2.458   4.420 -0.9004  1.0001  0.5274
19285TIP3   OH279269   2.005   6.424   4.796  0.6333  0.0542 -0.3088
19285TIP3    H179270   2.032   6.421   4.888 -0.6869 -0.8074  0.0689
19285TIP3    H279271   1.987   6.517   4.780  0.6242  0.1775  0.3833
19286TIP3   OH279272   3.144   6.869   5.941 -0.0159 -0.0450  0.3860
19286TIP3    H179273   3.053   6.840   5.949  0.2622 -1.0970 -0.1542
19286TIP3    H279274   3.152   6.894   5.849  0.7159 -1.6430 -0.0024
19287TIP3   OH279275   5.137   4.565   3.554  0.2731  0.8066 -0.6129
19287TIP3    H179276   5.215   4.513   3.533  1.2807  2.2564 -0.5350
19287TIP3    H279277   5.065   4.504   3.546  1.4663 -0.6737 -0.2503
19288TIP3   OH279278   3.128   0.963   5.240 -0.3108  0.3535  0.0176
19288TIP3    H179279   3.034   0.969   5.229 -0.1411  1.5153 -0.9348
19288TIP3    H279280   3.147   1.013   5.319 -0.7481 -1.9881  1.6509
19289TIP3   OH279281   6.884   5.738   4.817  0.4551 -0.3846  0.5230
19289TIP3    H179282   6.906   5.649   4.789  1.9213  0.3295 -0.6604
19289TIP3    H279283   6.906   5.793   4.742 -0.1227  1.0218  1.3643
19290TIP3   OH279284   3.623   5.735   5.360 -0.1683  0.3351  0.4364
19290TIP3    H179285   3.565   5.686   5.302  1.1419  0.1277 -0.7237
19290TIP3    H279286   3.666   5.668   5.413 -1.1550  0.5045  1.4453
19291TIP3   OH279287   3.149   6.420   5.644 -0.3138  0.2950  0.2991
19291TIP3    H179288   3.110   6.411   5.557  1.3061 -0.4438 -0.3766
19291TIP3    H279289   3.205   6.497   5.637  2.6193 -1.8260 -0.4372
19292TIP3   OH279290   2.726   0.408   2.673 -0.0990 -0.2229  0.2887
19292TIP3    H179291   2.798   0.378   2.727 -0.0504 -0.1249  0.2780
19292TIP3    H279292   2.730   0.354   2.594 -0.6483 -0.9026  0.7230
19293TIP3   OH279293   3.884   1.816   4.884 -0.5637  0.1861  0.1743
19293TIP3    H179294   3.829   1.891   4.859 -2.1110 -1.1693 -0.5790
19293TIP3    H279295   3.832   1.739   4.859  0.1236 -1.1771  2.8197
19294TIP3   OH279296   5.162   4.676   5.644 -0.0519 -0.3621 -0.8199
19294TIP3    H179297   5.112   4.651   5.566 -2.0997 -0.1771  0.4044
19294TIP3    H279298   5.101   4.730   5.695  1.1912 -0.6526  1.0092
19295TIP3   OH279299   3.545   7.076   6.193 -0.6112 -0.5520 -0.3290
19295TIP3    H179300   3.508   7.094   6.280 -0.6300 -0.0250 -0.4420
19295TIP3    H279301   3.518   6.986   6.174 -2.0066 -0.1181 -0.4878
19296TIP3   OH279302   3.747   6.033   4.556  0.0579 -0.3725  0.5021
19296TIP3    H179303   3.714   6.122   4.552 -1.0351 -0.7378  1.3651
19296TIP3    H279304   3.673   5.978   4.532 -0.1058 -1.2167  2.7949
19297TIP3   OH279305   3.986   5.643   5.159  0.9882 -0.4630 -0.0859
19297TIP3    H179306   4.007   5.666   5.069  0.6475  0.8091  0.1530
19297TIP3    H279307   3.892   5.626   5.158  0.8028  0.5155  0.2221
19298TIP3   OH279308   3.230   0.636   4.732  0.1222  0.7981 -0.1642
19298TIP3    H179309   3.171   0.659   4.803 -0.8660  0.9179 -1.0176
19298TIP3    H279310   3.217   0.704   4.666  0.5802  0.3458 -0.7274
19299TIP3   OH279311   1.507   6.080   4.911 -0.4885 -0.2092 -0.1595
19299TIP3    H179312   1.583   6.064   4.855 -0.4319 -0.3783 -0.0370
19299TIP3    H279313   1.511   6.010   4.976 -0.8649 -0.3367 -0.2744
19300TIP3   OH279314   3.727   4.281   2.706  0.2264  0.6458  0.1746
19300TIP3    H179315   3.778   4.263   2.785  1.4530 -0.6076 -0.8628
19300TIP3    H279316   3.644   4.236   2.720  0.8684 -0.5148  0.2783
19301TIP3   OH279317   4.572   7.157   4.317 -0.3863  0.1550  0.3431
19301TIP3    H179318   4.520   7.097   4.370  0.5815  0.4486  1.6729
19301TIP3    H279319   4.608   7.220   4.381  1.6053 -0.0707 -0.5136
19302TIP3   OH279320   2.565   0.932   3.891 -0.5490 -0.4408  0.4433
19302TIP3    H179321   2.632   0.989   3.929 -0.8238 -0.6390  1.2361
19302TIP3    H279322   2.613   0.851   3.870 -0.5124 -0.5398  0.9015
19303TIP3   OH279323   1.092   4.408   5.573 -0.0016  0.5917 -0.0088
19303TIP3    H179324   1.186   4.395   5.562  0.3968  1.3150  2.2865
19303TIP3    H279325   1.063   4.448   5.491  1.6808  0.3074 -0.7509
19304TIP3   OH279326   0.659   6.671   5.927 -0.0364 -0.2996 -0.5897
19304TIP3    H179327   0.712   6.685   5.848  0.3561  1.2600 -0.0802
19304TIP3    H279328   0.718   6.626   5.987 -0.2623 -1.2877 -1.1117
19305TIP3   OH279329   0.980   6.686   4.694 -0.6616  0.5349  0.0532
19305TIP3    H179330   0.895   6.663   4.657 -0.4783  0.7023 -0.4784
19305TIP3    H279331   1.007   6.608   4.742 -0.3765 -0.1153 -1.1303
19306TIP3   OH279332   3.218   7.069   5.672 -0.2731  0.3496  0.2414
19306TIP3    H179333   3.147   7.005   5.662  0.9043 -1.4367  2.7824
19306TIP3    H279334   3.202   7.110   5.757 -0.5780  2.9475 -1.0254
19307TIP3   OH279335   2.621   4.866   3.191 -0.3986  0.3674 -0.8354
19307TIP3    H179336   2.528   4.851   3.207  0.1301 -2.6032 -0.2580
19307TIP3    H279337   2.644   4.803   3.123  1.3166  0.6604 -0.5499
19308TIP3   OH279338   1.556   0.408   5.057  0.0779  0.1941  0.7253
19308TIP3    H179339   1.517   0.492   5.033 -0.0714  0.3514  1.5121
19308TIP3    H279340   1.635   0.432   5.106 -0.8161 -0.1179  2.3318
19309TIP3   OH279341   0.668   4.849   4.627 -0.1196  0.0516 -0.5850
19309TIP3    H179342   0.630   4.761   4.626 -1.7889  0.7589  0.0795
19309TIP3    H279343   0.761   4.834   4.646 -0.4092 -1.5459 -0.3313
19310TIP3   OH279344   4.308   0.460   4.508 -0.1663  0.2132 -0.4796
19310TIP3    H179345   4.242   0.416   4.455 -1.4505  2.8998 -1.1772
19310TIP3    H279346   4.373   0.491   4.445  1.0563 -1.1970  0.0639
19311TIP3   OH279347   2.365   6.590   5.570  0.0635  0.5029 -0.2172
19311TIP3    H179348   2.410   6.550   5.495  0.9434 -0.1904  0.6609
19311TIP3    H279349   2.434   6.636   5.617 -0.8391  2.5991 -0.8847
19312TIP3   OH279350   2.577   6.550   4.443 -0.2853 -0.1469  0.4998
19312TIP3    H179351   2.597   6.613   4.513  0.9038  0.3826 -0.2904
19312TIP3    H279352   2.557   6.605   4.367  1.8962 -0.7078 -0.5094
19313TIP3   OH279353   2.576   0.012   4.016 -0.2604 -0.1360  0.1564
19313TIP3    H179354   2.587   0.091   4.068 -1.5747 -0.1453  0.4780
19313TIP3    H279355   2.664  -0.025   4.008  0.3588  1.3528  0.0004
19314TIP3   OH279356   1.001   6.569   5.166  0.0051  0.6459 -0.1563
19314TIP3    H179357   1.023   6.622   5.242  2.7246 -2.7379  1.5363
19314TIP3    H279358   1.083   6.559   5.118 -0.6541 -1.1806 -0.9755
19315TIP3   OH279359   0.042   4.608   4.102 -0.3491 -0.0068  0.1816
19315TIP3    H179360  -0.030   4.597   4.041 -2.6835 -1.2373  3.0534
19315TIP3    H279361   0.051   4.703   4.111 -2.3325  0.1543  0.6244
19316TIP3   OH279362   1.166   0.750   4.896  0.1464  0.3326 -0.3967
19316TIP3    H179363   1.165   0.655   4.909 -1.1834  0.3707 -0.1940
19316TIP3    H279364   1.210   0.762   4.812 -1.0901 -0.5679 -1.1995
19317TIP3   OH279365   1.216   5.649   4.649  0.6685 -0.4338 -0.2490
19317TIP3    H179366   1.235   5.644   4.555  1.0201 -3.5599 -0.0762
19317TIP3    H279367   1.290   5.605   4.691  1.6445  2.8522  1.7137
19318TIP3   OH279368   6.628   5.820   4.873 -1.0384  0.2775 -0.2236
19318TIP3    H179369   6.643   5.869   4.792 -2.3723 -0.0456 -0.6674
19318TIP3    H279370   6.715   5.789   4.898 -0.5934  0.4938 -1.4635
19319TIP3   OH279371   2.860   7.252   3.030  0.0465 -0.1906 -0.1555
19319TIP3    H179372   2.894   7.247   3.119 -2.8278  1.3862  1.0913
19319TIP3    H279373   2.811   7.172   3.018 -1.5941  0.6896  0.5806
19320TIP3   OH279374   2.884   5.601   3.411 -0.3809 -0.2975  0.3413
19320TIP3    H179375   2.904   5.665   3.344  0.9803  0.6005  1.5762
19320TIP3    H279376   2.789   5.610   3.426 -0.6417 -0.3132 -1.2196
19321TIP3   OH279377   3.618   6.262   4.548 -0.0819  0.2144 -0.8987
19321TIP3    H179378   3.652   6.327   4.609  0.5773  0.1157 -1.1569
19321TIP3    H279379   3.533   6.238   4.584 -0.1495  0.9143 -0.5758
19322TIP3   OH279380   3.447   5.732   1.955  0.1755 -0.1182  0.4795
19322TIP3    H179381   3.483   5.686   1.880 -0.0237  3.5301 -2.0185
19322TIP3    H279382   3.520   5.782   1.990 -0.7545  1.9456 -0.3678
19323TIP3   OH279383   2.412   4.966   3.885 -0.4193  0.2186  0.0980
19323TIP3    H179384   2.498   4.999   3.860 -0.7685  0.3501 -0.9298
19323TIP3    H279385   2.424   4.871   3.893 -0.8267 -0.0879 -2.7139
19324TIP3   OH279386   4.546   0.420   4.635  0.7194 -0.3700  0.1016
19324TIP3    H179387   4.565   0.343   4.687 -0.0822  0.0290  1.0140
19324TIP3    H279388   4.450   0.422   4.630  0.7678  0.0340 -0.7188
19325TIP3   OH279389   4.180   5.130   4.603 -0.2864 -0.0465  0.2271
19325TIP3    H179390   4.115   5.107   4.537  0.5174 -0.6058 -0.3673
19325TIP3    H279391   4.131   5.129   4.686 -0.9513 -0.8347 -0.1713
19326TIP3   OH279392   2.111   5.958   1.492  0.4263 -0.2438  0.4477
19326TIP3    H179393   2.182   5.998   1.543 -1.6020  1.6079  1.9041
19326TIP3    H279394   2.102   6.015   1.416  0.1507 -0.1968  0.5171
19327TIP3   OH279395   3.659   6.492   5.201  0.0984 -0.0597 -0.4026
19327TIP3    H179396   3.656   6.565   5.263  1.7727 -0.7261  0.4984
19327TIP3    H279397   3.710   6.424   5.246  0.1562 -1.0784 -1.9687
19328TIP3   OH279398   3.780   5.293   5.635  0.2313  0.0727  0.4671
19328TIP3    H179399   3.865   5.309   5.677 -0.4762 -0.9390  2.3256
19328TIP3    H279400   3.757   5.204   5.661 -0.9967  0.0206 -0.7577
19329TIP3   OH279401   1.862   7.265   4.120  0.0949  0.6377 -0.1233
19329TIP3    H179402   1.842   7.186   4.170 -0.2153  1.0205  0.3554
19329TIP3    H279403   1.935   7.306   4.168  0.6757  0.3191 -0.7204
19330TIP3   OH279404   4.222   5.515   4.487  0.4815  0.1514 -0.5007
19330TIP3    H179405   4.281   5.440   4.480  1.1842  0.5190  1.3214
19330TIP3    H279406   4.247   5.572   4.414  1.7405 -0.1240 -0.2878
19331TIP3   OH279407   5.809   6.916   5.450  0.3036  0.6771  0.0070
19331TIP3    H179408   5.876   6.858   5.413  1.2371  2.0011 -0.4302
19331TIP3    H279409   5.818   6.997   5.400 -0.4795  1.4466  1.0969
19332TIP3   OH279410   4.104   7.153   5.005 -0.1188 -0.1277 -0.4486
19332TIP3    H179411   4.056   7.236   5.005 -0.7022 -0.4593 -0.2664
19332TIP3    H279412   4.052   7.095   4.949  0.7372 -0.1205 -1.2711
19333TIP3   OH279413   1.710   4.757   5.082 -0.0153 -0.4221  0.0732
19333TIP3    H179414   1.804   4.737   5.074  0.2058  0.5750  0.0878
19333TIP3    H279415   1.679   4.700   5.152  0.9945  0.5824  1.3669
19334TIP3   OH279416   1.748   0.456   4.243 -0.0741 -0.5273 -0.2821
19334TIP3    H179417   1.756   0.463   4.148  1.1555 -0.3520 -0.1773
19334TIP3    H279418   1.729   0.546   4.272 -0.1053 -0.5149 -0.3420
19335TIP3   OH279419   0.649   6.873   5.504 -0.5489  0.2883 -0.9028
19335TIP3    H179420   0.652   6.817   5.427  1.7496 -0.6811 -0.1476
19335TIP3    H279421   0.683   6.957   5.475  0.9016 -0.2615 -0.8094
19336TIP3   OH279422   2.526   6.664   2.883 -0.1437 -0.4875  0.3655
19336TIP3    H179423   2.561   6.675   2.971  1.8712  0.1915 -0.4794
19336TIP3    H279424   2.500   6.753   2.856 -0.7878 -0.6962  0.2838
19337TIP3   OH279425   3.423   6.724   5.128 -0.2339  0.3270 -0.4717
19337TIP3    H179426   3.410   6.673   5.209 -0.2700 -0.8548 -1.2107
19337TIP3    H279427   3.335   6.754   5.105  0.0965  2.7690  1.2600
19338TIP3   OH279428   5.377   7.147   5.726  0.1441 -0.1940 -0.8385
19338TIP3    H179429   5.385   7.052   5.737  2.0398 -0.0835 -1.1506
19338TIP3    H279430   5.464   7.176   5.701 -0.1263  1.8129  0.4631
19339TIP3   OH279431   2.740   1.899   4.828 -0.1835  0.2551 -0.1589
19339TIP3    H179432   2.804   1.933   4.766 -0.4142  2.1667  0.6122
19339TIP3    H279433   2.666   1.960   4.823 -1.2632 -0.9878  0.1678
19340TIP3   OH279434   2.886   6.600   5.636  0.3576  0.0422 -0.2613
19340TIP3    H179435   2.906   6.573   5.726  4.5707  1.0593 -0.7969
19340TIP3    H279436   2.899   6.522   5.583 -0.1779 -0.0573 -0.2518
19341TIP3   OH279437   3.154   6.075   5.886  0.3343  0.0040 -0.7703
19341TIP3    H179438   3.209   6.142   5.846 -0.0793  0.3829 -0.7051
19341TIP3    H279439   3.210   6.033   5.951  1.2953 -1.2133 -2.3477
19342TIP3   OH279440   2.612   5.562   4.012 -1.0740 -0.1785 -0.5278
19342TIP3    H179441   2.673   5.526   3.947 -1.4802  2.3389 -2.4123
19342TIP3    H279442   2.661   5.633   4.054 -1.3685 -0.7607  0.8178
19343TIP3   OH279443   3.237   6.015   3.842 -0.1655  0.3638  0.0984
19343TIP3    H179444   3.163   5.957   3.827  0.3964 -0.0187 -1.2496
19343TIP3    H279445   3.209   6.072   3.914 -1.1192 -0.8688  0.7084
19344TIP3   OH279446   2.268   5.029   4.818  0.3438 -0.5804 -0.5776
19344TIP3    H179447   2.320   5.008   4.895  0.2882 -1.1236 -0.6855
19344TIP3    H279448   2.318   4.993   4.745  0.2645 -0.3030 -0.7690
19345TIP3   OH279449   1.800   6.238   3.555  0.0748  0.1602 -0.0454
19345TIP3    H179450   1.805   6.168   3.490  1.6772  0.7112 -0.5363
19345TIP3    H279451   1.717   6.282   3.537 -0.6425 -1.2111 -0.1376
19346TIP3   OH279452   2.152   6.214   5.875 -0.1589  0.0475 -0.1872
19346TIP3    H179453   2.226   6.255   5.831 -0.3431  0.3125 -0.2442
19346TIP3    H279454   2.164   6.120   5.859 -0.4469  0.1679 -1.1345
19347TIP3   OH279455   5.233   0.879   2.483 -0.5144  0.2645 -0.1680
19347TIP3    H179456   5.204   0.794   2.515  1.3283 -0.3106 -0.0001
19347TIP3    H279457   5.161   0.939   2.506 -1.3931 -1.0512  0.5626
19348TIP3   OH279458   0.319   0.091   4.870  0.7501  0.0793 -0.1237
19348TIP3    H179459   0.376   0.124   4.940 -0.5585  0.3897  0.8113
19348TIP3    H279460   0.377   0.085   4.793  1.7552  1.5625  0.4828
19349TIP3   OH279461   3.877   4.585   4.418 -0.0542  0.2574 -0.3754
19349TIP3    H179462   3.791   4.559   4.449  0.0958  0.3542  0.1251
19349TIP3    H279463   3.916   4.634   4.491  1.0916 -1.2518  0.0478
19350TIP3   OH279464   2.317   0.842   4.431 -0.5157 -0.1407 -0.0528
19350TIP3    H179465   2.331   0.861   4.523  0.2136 -1.7841  0.1897
19350TIP3    H279466   2.299   0.928   4.391  0.6339  0.7664  1.3484
19351TIP3   OH279467   2.679   6.599   4.843  0.1666 -0.2988 -0.0156
19351TIP3    H179468   2.714   6.634   4.761  0.4951 -2.2054 -0.7368
19351TIP3    H279469   2.590   6.634   4.848  0.3343  0.2795 -0.9210
19352TIP3   OH279470   1.871   1.036   2.617 -0.0025 -0.4790 -0.0512
19352TIP3    H179471   1.793   0.993   2.580  1.5137 -2.1144 -1.4465
19352TIP3    H279472   1.880   0.998   2.704  1.8143 -3.7785 -1.5818
19353TIP3   OH279473   2.852   0.124   4.505  0.3688  0.1356 -0.0584
19353TIP3    H179474   2.760   0.146   4.519 -0.3222 -3.3878  1.4873
19353TIP3    H279475   2.900   0.182   4.564 -0.7985  2.1162 -1.0062
19354TIP3   OH279476   4.643   5.921   3.776  0.2548  0.0156 -0.2247
19354TIP3    H179477   4.608   5.981   3.842 -0.7634  0.2488 -0.9715
19354TIP3    H279478   4.716   5.969   3.736  0.7300 -0.0393  0.5643
19355TIP3   OH279479   0.673   1.516   4.331 -0.4001 -0.3880 -0.9159
19355TIP3    H179480   0.613   1.563   4.388  0.9360  0.8854 -0.5331
19355TIP3    H279481   0.629   1.513   4.246 -2.0524 -1.5960 -0.0546
19356TIP3   OH279482   3.154   5.347   2.274 -0.2609 -0.2458  0.2125
19356TIP3    H179483   3.179   5.404   2.201  0.0569  0.1442  0.6239
19356TIP3    H279484   3.234   5.299   2.295 -0.9172 -1.9971 -1.1504
19357TIP3   OH279485   1.193   6.335   5.273  0.0825 -0.1295  0.1926
19357TIP3    H179486   1.219   6.367   5.187  0.6277 -0.8046  0.1012
19357TIP3    H279487   1.172   6.413   5.323 -3.2481  0.1568 -1.5182
19358TIP3   OH279488   5.242   6.087   4.423 -0.1982  0.1004  0.6357
19358TIP3    H179489   5.186   6.151   4.467  0.0554  0.5855  0.2584
19358TIP3    H279490   5.329   6.103   4.459  0.2545  1.3485 -0.9326
19359TIP3   OH279491   1.068   0.384   4.519 -0.2968  0.4567 -0.1532
19359TIP3    H179492   0.983   0.396   4.562 -0.1044 -0.6749  0.5865
19359TIP3    H279493   1.062   0.298   4.478  0.1592  0.7755 -0.9019
19360TIP3   OH279494   0.859   0.586   3.217 -0.3415 -0.0346  0.0411
19360TIP3    H179495   0.937   0.641   3.231  0.2932 -0.7391 -0.6799
19360TIP3    H279496   0.851   0.535   3.298 -1.3630  1.6248  1.0153
19361TIP3   OH279497   1.991   0.618   2.848 -0.7009 -0.2232  0.0060
19361TIP3    H179498   2.013   0.594   2.938 -1.2794  0.0580  0.2242
19361TIP3    H279499   1.896   0.609   2.843 -0.8774  1.5312 -0.0510
19362TIP3   OH279500   4.627   0.736   5.804 -0.2304 -0.5219  0.5235
19362TIP3    H179501   4.558   0.749   5.869  0.2286 -0.4582  1.0021
19362TIP3    H279502   4.603   0.654   5.760 -0.3962 -0.7156  0.9648
19363TIP3   OH279503   2.564   6.278   4.488  0.2603 -0.3397  0.2563
19363TIP3    H179504   2.473   6.272   4.514  0.4253  1.6319  1.4167
19363TIP3    H279505   2.577   6.371   4.466  2.2172 -0.3686  1.1143
19364TIP3   OH279506   2.865   6.718   5.385  0.0272  0.5988  0.0034
19364TIP3    H179507   2.854   6.642   5.442  1.6512 -0.6061 -1.2543
19364TIP3    H279508   2.885   6.790   5.444  0.8264 -0.4636  1.0448
19365TIP3   OH279509   1.649   0.938   5.048 -0.4898  0.7197 -0.1940
19365TIP3    H179510   1.575   0.927   4.988 -1.8953  3.5993  0.8815
19365TIP3    H279511   1.723   0.961   4.992 -0.7938 -0.5031 -1.1298
19366TIP3   OH279512   2.587   6.133   5.986  0.7013  0.3447  0.2672
19366TIP3    H179513   2.641   6.083   6.047  1.3169 -2.3959 -2.3764
19366TIP3    H279514   2.522   6.069   5.955 -1.8456  2.6257  0.7089
19367TIP3   OH279515   2.038   1.637   2.122 -0.0497 -1.0950  0.0033
19367TIP3    H179516   1.970   1.615   2.058  1.0481 -0.0717 -1.5470
19367TIP3    H279517   2.009   1.719   2.161  0.7896 -0.0953 -1.4255
19368TIP3   OH279518   5.303   0.013   4.222 -0.0981  0.7328 -0.4356
19368TIP3    H179519   5.395   0.020   4.198  0.1950  2.5542  1.1145
19368TIP3    H279520   5.297   0.056   4.307 -2.1721 -0.3903  0.0094
19369TIP3   OH279521   1.386   0.009   4.804  0.0467  0.2103 -0.1576
19369TIP3    H179522   1.451  -0.033   4.861 -0.7588 -0.2073  0.4523
19369TIP3    H279523   1.335   0.064   4.863 -0.8598 -0.3043 -0.4589
19370TIP3   OH279524   4.398   0.121   5.335 -0.2887 -0.3549 -0.5925
19370TIP3    H179525   4.378   0.029   5.349  0.8305 -0.8039 -1.8056
19370TIP3    H279526   4.487   0.132   5.368 -0.3609  0.2482 -0.5925
19371TIP3   OH279527   2.590   5.340   6.024 -0.2147 -0.2021  0.6466
19371TIP3    H179528   2.624   5.332   5.935  0.6330  0.8428  0.8556
19371TIP3    H279529   2.613   5.257   6.066 -1.2107 -0.9623 -0.2891
19372TIP3   OH279530   4.594   5.832   4.724 -0.2816  0.1714  0.0601
19372TIP3    H179531   4.662   5.872   4.670  0.1926 -1.6323 -0.7021
19372TIP3    H279532   4.517   5.887   4.710 -0.0968 -0.1381 -2.2680
19373TIP3   OH279533   3.484   6.919   5.719  0.8512 -0.2535 -0.3084
19373TIP3    H179534   3.548   6.989   5.711  0.4289  0.4440  1.8597
19373TIP3    H279535   3.412   6.959   5.768  0.2250 -1.9559  0.1956
19374TIP3   OH279536   4.371   6.381   4.486 -0.3993 -0.0218  0.2859
19374TIP3    H179537   4.306   6.417   4.547  0.3599  1.0976  0.4374
19374TIP3    H279538   4.383   6.451   4.421  2.9275  1.0284  1.9523
19375TIP3   OH279539   2.415   5.005   5.680 -0.2419  0.3666 -0.0733
19375TIP3    H179540   2.440   5.085   5.634  0.1016  0.5875  0.4806
19375TIP3    H279541   2.442   5.021   5.771  0.4131 -0.6324 -0.0841
19376TIP3   OH279542   2.603   4.596   5.002 -0.4482  0.4463  0.1671
19376TIP3    H179543   2.594   4.674   4.947 -0.9933 -0.0906 -0.5122
19376TIP3    H279544   2.651   4.533   4.947  0.3652  0.4449  0.8645
19377TIP3   OH279545   4.068   5.101   5.568 -0.1725  0.7663  0.0809
19377TIP3    H179546   4.004   5.033   5.589  0.4924  0.1726  0.2065
19377TIP3    H279547   4.053   5.120   5.475  0.6515 -0.6717 -0.3825
19378TIP3   OH279548   2.771   6.973   4.151  0.0984  0.1991  0.1706
19378TIP3    H179549   2.737   7.009   4.069  0.3354 -1.9359 -0.9093
19378TIP3    H279550   2.840   7.034   4.178  0.2173  0.7594 -1.3788
19379TIP3   OH279551   3.737   6.402   5.825  0.3723  0.0738 -0.4200
19379TIP3    H179552   3.757   6.484   5.779  1.5593 -0.3169 -0.6080
19379TIP3    H279553   3.741   6.335   5.758  1.5664 -0.4241  0.1385
19380TIP3   OH279554   0.979   7.282   5.743 -0.2324  0.2983 -0.1928
19380TIP3    H179555   1.035   7.280   5.820 -0.3852  2.1457 -0.0072
19380TIP3    H279556   0.896   7.319   5.774 -1.0117 -0.9133 -0.7950
19381TIP3   OH279557   2.776   4.757   5.934 -0.1033 -0.3548  0.3092
19381TIP3    H179558   2.850   4.768   5.994  0.2353  1.0123 -0.3460
19381TIP3    H279559   2.796   4.814   5.860 -1.6696 -0.1986 -0.0138
19382TIP3   OH279560   2.852   5.092   5.609  0.2662 -0.2598  0.2807
19382TIP3    H179561   2.865   5.101   5.703 -0.4671 -0.2097  0.3811
19382TIP3    H279562   2.865   5.181   5.575  1.8776 -0.5363  0.1628
19383TIP3   OH279563   2.675   6.240   5.529  0.2892  0.5566 -0.1946
19383TIP3    H179564   2.681   6.263   5.622  1.8424  1.0885 -0.4251
19383TIP3    H279565   2.665   6.144   5.529  2.3295  0.3207  0.4657
19384TIP3   OH279566   2.528   5.224   5.610  0.5047  0.5502 -0.5562
19384TIP3    H179567   2.492   5.285   5.546  1.0451  0.4002 -1.0101
19384TIP3    H279568   2.622   5.223   5.591  0.4855 -0.5086 -0.6341
19385TIP3   OH279569   0.969   4.726   5.241  0.1519 -0.1381 -0.2766
19385TIP3    H179570   1.044   4.756   5.191 -0.0037  1.1263  0.2277
19385TIP3    H279571   0.975   4.630   5.239  1.7581 -0.0485 -0.2494
19386TIP3   OH279572   2.032   0.147   2.358 -0.2392  0.5846 -0.3346
19386TIP3    H179573   1.962   0.203   2.392 -1.6670 -0.4691 -1.4568
19386TIP3    H279574   2.079   0.202   2.295 -2.8090  0.0142 -2.8505
19387TIP3   OH279575   1.456   7.154   5.257  0.0101 -0.4607 -0.4737
19387TIP3    H179576   1.501   7.211   5.195 -0.7959  1.0706  0.3184
19387TIP3    H279577   1.443   7.072   5.209  3.2423 -0.8289 -0.8527
19388TIP3   OH279578   1.367   4.733   3.956 -0.7278 -0.0028 -0.1698
19388TIP3    H179579   1.346   4.645   3.926 -0.9397 -0.6743  1.9213
19388TIP3    H279580   1.293   4.759   4.010  1.9104 -0.8999  4.0718
19389TIP3   OH279581   4.519   4.144   4.868  0.3351 -0.4394 -0.6490
19389TIP3    H179582   4.445   4.087   4.886  0.3225 -0.5097 -0.9323
19389TIP3    H279583   4.526   4.147   4.773  0.1069  0.3297 -0.6424
19390TIP3   OH279584   2.793   6.771   5.119  0.3606  0.3171 -0.4314
19390TIP3    H179585   2.807   6.749   5.211 -0.6425 -0.0258 -0.3519
19390TIP3    H279586   2.745   6.696   5.083  0.9791  0.3258 -1.3000
19391TIP3   OH279587   3.985   5.402   5.770  0.1156  0.0777 -0.1784
19391TIP3    H179588   4.034   5.424   5.690 -0.8411  1.4219 -0.4113
19391TIP3    H279589   4.043   5.430   5.841  0.5759 -0.2569 -0.4157
19392TIP3   OH279590   1.599   1.688   1.918 -0.2465  0.1354 -0.5135
19392TIP3    H179591   1.692   1.696   1.899 -0.1212 -1.3370 -0.6240
19392TIP3    H279592   1.577   1.765   1.970  0.6782  1.2889 -1.8102
19393TIP3   OH279593   0.792   7.002   1.796 -0.1481  0.2237 -0.1114
19393TIP3    H179594   0.711   6.974   1.839 -0.4012  1.6254  0.3903
19393TIP3    H279595   0.782   7.097   1.788 -0.0278  0.0190 -3.1540
19394TIP3   OH279596   1.100   6.282   3.976  0.1439 -0.3726  0.5678
19394TIP3    H179597   1.060   6.235   3.902  0.8025 -0.5845  0.3450
19394TIP3    H279598   1.099   6.219   4.048  1.7616 -1.0255  0.0470
19395TIP3   OH279599   1.774   6.824   5.268 -0.1245  0.1416  0.2472
19395TIP3    H179600   1.790   6.730   5.256  0.2076  0.1346  0.7304
19395TIP3    H279601   1.772   6.860   5.180 -3.8851 -0.9076 -0.1759
19396TIP3   OH279602   4.418   6.596   4.703 -0.7323 -0.0852 -0.2446
19396TIP3    H179603   4.495   6.541   4.714 -0.5024  0.3468  0.3403
19396TIP3    H279604   4.452   6.678   4.667 -0.7387  0.5705  1.1961
19397TIP3   OH279605   4.678   6.094   5.384  0.3233 -0.2241 -0.1906
19397TIP3    H179606   4.645   6.035   5.317  1.2150  0.5458 -1.3360
19397TIP3    H279607   4.616   6.086   5.456 -0.8012 -0.8768 -1.2102
19398TIP3   OH279608   2.710   3.400   4.467  0.3074  0.4819  0.0941
19398TIP3    H179609   2.658   3.457   4.523  1.6654  1.4165  0.4187
19398TIP3    H279610   2.731   3.325   4.522 -0.1562  0.3944  0.1559
19399TIP3   OH279611   3.998   5.446   1.778 -0.7611 -0.1140 -0.3879
19399TIP3    H179612   3.923   5.387   1.784 -2.0752  1.5621  0.1265
19399TIP3    H279613   3.960   5.531   1.757  1.1282  0.4902 -1.5187
19400TIP3   OH279614   4.371   5.279   4.087  0.0340 -0.3327 -0.2600
19400TIP3    H179615   4.366   5.231   4.004  1.7393 -1.2810  0.1579
19400TIP3    H279616   4.444   5.339   4.076  0.4681 -0.6751  0.6565
19401TIP3   OH279617   1.768   2.613   2.800  0.6644 -0.0285 -0.1051
19401TIP3    H179618   1.766   2.700   2.761  0.3273 -0.2713 -0.6385
19401TIP3    H279619   1.700   2.616   2.867  2.3409  0.8993  1.5871
19402TIP3   OH279620   2.001   4.229   5.144  0.0202 -0.2780  0.5299
19402TIP3    H179621   2.015   4.226   5.239  0.9827  1.4828  0.4690
19402TIP3    H279622   1.914   4.191   5.131 -0.9471  1.2650  2.3227
19403TIP3   OH279623   3.129   6.077   4.302 -0.3829  0.2729  0.1374
19403TIP3    H179624   3.124   6.128   4.383  1.0241  1.8291 -0.7104
19403TIP3    H279625   3.099   5.989   4.326  1.3001  0.3512  2.6482
19404TIP3   OH279626   5.216   6.411   5.700  0.2067  0.3395 -0.0234
19404TIP3    H179627   5.177   6.425   5.613 -0.0566 -0.5135 -0.0487
19404TIP3    H279628   5.208   6.316   5.715  1.5207  0.2693  0.3278
19405TIP3   OH279629   2.646   5.370   5.345  0.8719  0.3975  0.0321
19405TIP3    H179630   2.575   5.433   5.334  0.8849  0.5778  0.9171
19405TIP3    H279631   2.688   5.365   5.259  0.0694  0.6292 -0.3773
19406TIP3   OH279632   2.036   6.447   5.060  0.2512  0.1815 -0.0732
19406TIP3    H179633   2.117   6.486   5.092 -1.1408  3.6140 -0.5060
19406TIP3    H279634   1.967   6.502   5.097 -1.7800 -1.5239 -1.2275
19407TIP3   OH279635   3.874   6.124   5.743  0.2347  0.3932 -0.3157
19407TIP3    H179636   3.859   6.108   5.836 -0.0400  0.3378 -0.3710
19407TIP3    H279637   3.917   6.044   5.712  1.4983  0.9243  0.0434
19408TIP3   OH279638   3.731   0.184   4.301  0.3361 -0.3004 -0.1741
19408TIP3    H179639   3.657   0.226   4.344  0.7131 -0.0252  0.2002
19408TIP3    H279640   3.748   0.105   4.354  0.1583 -0.4898 -0.3979
19409TIP3   OH279641   3.288   0.630   5.429 -0.1736  0.3764  0.1360
19409TIP3    H179642   3.230   0.626   5.353 -0.8803 -0.2628  0.7061
19409TIP3    H279643   3.376   0.627   5.392 -0.5065  0.4641 -0.6803
19410TIP3   OH279644   1.206   3.491   4.830  0.2225  0.0675 -0.2936
19410TIP3    H179645   1.203   3.547   4.908 -0.0242  3.2205 -2.4901
19410TIP3    H279646   1.280   3.432   4.847 -0.0206  0.4566  2.4440
19411TIP3   OH279647   1.515   6.031   6.288  0.2550  0.8411  0.1892
19411TIP3    H179648   1.588   5.995   6.237 -0.4979  0.3238 -0.5402
19411TIP3    H279649   1.453   6.062   6.222 -1.3610 -1.1027  0.7545
19412TIP3   OH279650   3.010   6.420   5.186  0.5780 -0.3301 -0.3633
19412TIP3    H179651   3.055   6.499   5.158  1.3023 -0.7985 -0.5191
19412TIP3    H279652   2.936   6.412   5.126 -0.9161  1.5648  1.1642
19413TIP3   OH279653   3.071   5.770   6.246  0.1371  0.2113  0.3094
19413TIP3    H179654   3.083   5.852   6.294  2.7029 -0.3892  0.7938
19413TIP3    H279655   3.144   5.715   6.274 -2.6084 -2.9928  1.4423
19414TIP3   OH279656   2.919   0.263   5.387  0.2373 -0.0775  0.0247
19414TIP3    H179657   2.982   0.259   5.459 -0.9177  2.0793  1.2123
19414TIP3    H279658   2.969   0.297   5.313  1.0638 -0.8676  0.2006
19415TIP3   OH279659   3.923   5.832   5.721 -0.7353 -0.0077 -0.4592
19415TIP3    H179660   4.006   5.791   5.745 -0.2876  1.4193  0.4517
19415TIP3    H279661   3.922   5.831   5.626  0.6542  0.6065 -0.4945
19416TIP3   OH279662   3.598   4.115   4.318  0.1813 -0.0529  0.2861
19416TIP3    H179663   3.585   4.124   4.413 -0.4325 -0.7143  0.2718
19416TIP3    H279664   3.509   4.104   4.283  0.4937 -0.9542 -0.2359
19417TIP3   OH279665   1.431   7.182   2.155 -0.0348 -0.2369  0.9120
19417TIP3    H179666   1.338   7.200   2.169 -0.2847 -1.4911  0.9051
19417TIP3    H279667   1.434   7.133   2.073  0.7142  0.4871  0.4998
19418TIP3   OH279668   0.775   0.343   6.192  0.3429  0.4114  0.4360
19418TIP3    H179669   0.724   0.272   6.230  0.5304 -0.4099 -0.8213
19418TIP3    H279670   0.751   0.420   6.244 -0.7894 -0.3270  1.0301
19419TIP3   OH279671   1.276   6.371   5.722 -0.2928  0.1761  0.5962
19419TIP3    H179672   1.267   6.284   5.760 -0.3457 -0.7947 -1.5658
19419TIP3    H279673   1.364   6.399   5.745  1.0823 -1.9986 -1.7256
19420TIP3   OH279674   3.451   5.733   4.091 -0.6124 -0.8404  0.3227
19420TIP3    H179675   3.439   5.786   4.170 -0.5902 -0.4810  0.0872
19420TIP3    H279676   3.367   5.691   4.077 -0.2020 -2.0413  1.3542
19421TIP3   OH279677   3.885   4.897   5.484  0.3021 -0.5224 -0.6176
19421TIP3    H179678   3.791   4.917   5.484  0.7347  1.7322 -3.7780
19421TIP3    H279679   3.892   4.816   5.434  0.0300 -0.8032 -0.2044
19422TIP3   OH279680   1.364   2.948   4.659 -0.1864 -0.2293  0.5293
19422TIP3    H179681   1.452   2.919   4.681 -0.3908 -2.1587 -1.1024
19422TIP3    H279682   1.375   3.040   4.635  1.4796 -0.6130 -0.2355
19423TIP3   OH279683   1.493   1.329   5.312 -0.1872 -0.5826 -0.0038
19423TIP3    H179684   1.452   1.280   5.241  0.9719 -1.8337  0.1700
19423TIP3    H279685   1.556   1.268   5.349  0.5104  0.6919  0.9205
19424TIP3   OH279686   1.864   6.216   5.102  0.1440  0.4086 -0.4504
19424TIP3    H179687   1.783   6.242   5.058  0.0185  1.7971  0.5580
19424TIP3    H279688   1.923   6.291   5.090  0.5077  0.3146  0.7239
19425TIP3   OH279689   4.203   6.092   5.946 -0.2344  0.1920 -0.6285
19425TIP3    H179690   4.280   6.140   5.975 -0.9108  1.1036 -0.3140
19425TIP3    H279691   4.132   6.157   5.946 -1.0401 -0.6648 -0.7466
19426TIP3   OH279692   3.191   5.498   5.446  0.7547 -0.6389  0.1381
19426TIP3    H179693   3.180   5.463   5.535  0.8515 -1.2789 -0.1028
19426TIP3    H279694   3.169   5.425   5.388  2.9318 -0.9405 -0.3617
19427TIP3   OH279695   3.633   6.375   5.493  0.0781 -0.0855  0.5375
19427TIP3    H179696   3.541   6.350   5.478 -0.2080  1.1258  0.1861
19427TIP3    H279697   3.638   6.465   5.462  1.4470 -0.2107  0.3771
19428TIP3   OH279698   3.060   7.075   4.665 -0.0156 -0.0012 -0.4334
19428TIP3    H179699   3.058   7.095   4.759 -0.4312  1.2885 -0.7019
19428TIP3    H279700   2.973   7.042   4.645  0.3206 -1.0509 -0.2176
19429TIP3   OH279701   6.478   5.529   5.057  0.2676 -0.3134 -0.3365
19429TIP3    H179702   6.503   5.448   5.101 -0.2376 -0.4424 -0.2847
19429TIP3    H279703   6.549   5.546   4.995  0.9691 -0.1588  0.4875
19430TIP3   OH279704   4.035   4.867   5.066 -0.3669  0.4772  0.3426
19430TIP3    H179705   4.046   4.779   5.030  1.0513 -0.6561  3.4488
19430TIP3    H279706   4.119   4.911   5.047  1.1602 -0.7651  3.8413
19431TIP3   OH279707   3.957   6.525   4.801  0.4147  0.0652  0.3082
19431TIP3    H179708   3.951   6.621   4.807 -0.1563  0.0204  0.5010
19431TIP3    H279709   3.979   6.498   4.890  0.3733  0.0030  0.2991
19432TIP3   OH279710   6.643   0.432   3.041  0.4864  0.0053  0.1180
19432TIP3    H179711   6.624   0.342   3.067 -1.5279  0.5165  0.5640
19432TIP3    H279712   6.635   0.432   2.946  0.0358 -0.2037  0.1525
19433TIP3   OH279713   5.122   0.167   5.839  0.7808  0.3519 -0.4076
19433TIP3    H179714   5.164   0.246   5.806  0.5342  0.1440 -1.2516
19433TIP3    H279715   5.194   0.108   5.859  0.9214  0.1499 -1.4528
19434TIP3   OH279716   5.387   6.272   5.204 -0.1388 -0.1486  0.2414
19434TIP3    H179717   5.435   6.241   5.128  0.8364  0.6626  0.5232
19434TIP3    H279718   5.300   6.232   5.195  0.8384 -2.3024  0.1807
19435TIP3   OH279719   5.729   6.713   4.643 -0.1593 -0.5445 -0.0423
19435TIP3    H179720   5.659   6.671   4.594 -0.3200 -0.9900  0.5653
19435TIP3    H279721   5.733   6.666   4.726 -0.5815  0.8538  0.7991
19436TIP3   OH279722   5.179   6.129   5.787  0.3361 -0.0040  0.2950
19436TIP3    H179723   5.178   6.079   5.705  1.2955 -1.6381  1.2733
19436TIP3    H279724   5.101   6.099   5.834 -0.0494  0.7194  0.1335
19437TIP3   OH279725   6.781   3.594   4.402 -0.4332  0.5584 -0.5717
19437TIP3    H179726   6.829   3.656   4.457 -1.8628  1.5434 -0.4051
19437TIP3    H279727   6.730   3.542   4.464  2.3687 -2.2899 -0.5212
19438TIP3   OH279728   5.834   5.957   3.579  0.3182  0.4239  0.0363
19438TIP3    H179729   5.927   5.947   3.560 -0.0542  0.5741 -2.0781
19438TIP3    H279730   5.792   5.955   3.492 -1.7479 -0.7578  1.0302
19439TIP3   OH279731   5.363   0.450   4.001  0.1153 -0.3158 -0.2400
19439TIP3    H179732   5.356   0.386   3.931 -0.1235  0.9946 -1.4438
19439TIP3    H279733   5.398   0.528   3.958 -3.4633  1.7119  0.2950
19440TIP3   OH279734   6.572   4.166   4.239  0.4522 -0.1670 -0.2291
19440TIP3    H179735   6.581   4.095   4.176  1.7451 -2.7140  2.7214
19440TIP3    H279736   6.657   4.172   4.282 -0.3510  1.5865  1.2319
19441TIP3   OH279737   3.152   6.289   2.084 -0.7250 -0.5947  0.0128
19441TIP3    H179738   3.211   6.221   2.116 -0.5642 -0.0885  0.8121
19441TIP3    H279739   3.156   6.357   2.151 -0.7432  0.2858 -0.8752
19442TIP3   OH279740   4.278   6.560   4.075 -0.0574  0.2834  0.2994
19442TIP3    H179741   4.305   6.558   4.166  0.0780  0.8478  0.2696
19442TIP3    H279742   4.310   6.644   4.041  1.5338 -0.7124 -0.7656
19443TIP3   OH279743   6.122   5.825   5.616  0.1333  0.1148 -0.1638
19443TIP3    H179744   6.077   5.744   5.589 -0.3583 -0.5567  2.5513
19443TIP3    H279745   6.104   5.832   5.709  1.4907  2.5626 -0.0629
19444TIP3   OH279746   6.133   6.913   4.828 -0.0278  0.2628  0.4754
19444TIP3    H179747   6.099   6.934   4.915 -2.2705  1.1869 -0.5823
19444TIP3    H279748   6.199   6.980   4.812 -1.4198  1.6715  0.4537
19445TIP3   OH279749   5.128   6.182   3.836  1.0765 -0.5331  0.4990
19445TIP3    H179750   5.067   6.255   3.849 -2.2833 -2.8202 -1.7558
19445TIP3    H279751   5.161   6.163   3.924  0.2065  2.1136  1.4515
19446TIP3   OH279752   6.916   6.950   4.527 -0.1935  0.6077 -0.1081
19446TIP3    H179753   6.966   6.992   4.597 -1.7021  2.6786 -0.2502
19446TIP3    H279754   6.868   6.880   4.570 -0.7665  1.5867  0.8745
19447TIP3   OH279755   5.791   6.973   5.758  0.7863 -0.2062  0.6093
19447TIP3    H179756   5.810   6.936   5.672 -1.2268 -0.1640  0.1333
19447TIP3    H279757   5.720   6.919   5.793  0.0209  1.1765  1.2653
19448TIP3   OH279758   6.224   5.983   4.724  0.1943 -0.2714  0.0166
19448TIP3    H179759   6.132   5.971   4.750 -0.6598  0.1475 -2.6771
19448TIP3    H279760   6.227   6.069   4.683  1.9855  0.0621  0.7835
19449TIP3   OH279761   3.200   0.055   4.623  0.1317  0.1911 -0.1246
19449TIP3    H179762   3.269  -0.005   4.653 -1.2114 -0.5117  1.6303
19449TIP3    H279763   3.181   0.026   4.533  1.8707  0.1784 -0.5121
19450TIP3   OH279764   3.976   1.393   4.928 -0.0983 -0.2442  0.1854
19450TIP3    H179765   4.037   1.467   4.935 -0.6687  0.3138 -0.6295
19450TIP3    H279766   3.960   1.367   5.018  0.7458  0.1063  0.4421
19451TIP3   OH279767   5.963   6.253   4.837 -0.4786 -0.3700  0.5686
19451TIP3    H179768   6.032   6.314   4.812 -2.4457  1.5793 -0.3327
19451TIP3    H279769   5.978   6.177   4.782 -0.0541  0.7185 -0.8575
19452TIP3   OH279770   6.530   5.888   4.419 -0.4817  0.2850 -0.7889
19452TIP3    H179771   6.552   5.965   4.367 -0.5538  0.8802  0.0402
19452TIP3    H279772   6.436   5.876   4.405 -0.2178 -0.4530 -1.9625
19453TIP3   OH279773   2.485   4.924   5.949 -0.0608  0.7306 -0.3278
19453TIP3    H179774   2.416   4.932   6.014 -1.5999  0.2538 -1.8434
19453TIP3    H279775   2.480   4.834   5.919  2.2594  0.2497  0.6188
19454TIP3   OH279776   5.541   0.084   5.429  0.0523 -0.1499 -0.5583
19454TIP3    H179777   5.530  -0.011   5.416 -1.4176 -0.1635  0.5706
19454TIP3    H279778   5.452   0.116   5.446  0.8700  0.9742  1.8608
19455TIP3   OH279779   6.841   5.739   2.244 -0.5669  0.3135  0.0903
19455TIP3    H179780   6.748   5.763   2.247 -0.5603  0.4025 -0.3881
19455TIP3    H279781   6.846   5.658   2.295 -0.7873  0.6840  0.7055
19456TIP3   OH279782   6.737   0.646   4.656  0.3571 -0.8363  0.3101
19456TIP3    H179783   6.737   0.714   4.589  0.5030 -1.5049 -0.3710
19456TIP3    H279784   6.651   0.654   4.698  0.9316  0.7180  1.2068
19457TIP3   OH279785   6.346   0.078   5.888 -0.5018  0.5556  0.4156
19457TIP3    H179786   6.328   0.001   5.941  1.1943 -0.4719 -0.4447
19457TIP3    H279787   6.425   0.116   5.928  1.3755 -0.7786 -1.8809
19458TIP3   OH279788   7.013   0.584   4.027  0.1390  0.2877  0.0444
19458TIP3    H179789   6.994   0.661   3.974 -0.1232  0.1925 -0.0003
19458TIP3    H279790   6.948   0.586   4.097 -0.1328 -0.1215 -0.1934
19459TIP3   OH279791   0.230   6.231   4.961 -0.4332  0.3009 -0.2139
19459TIP3    H179792   0.162   6.198   5.019 -0.1626 -0.4494 -0.3235
19459TIP3    H279793   0.201   6.320   4.939 -0.6235  0.5260  0.9213
19460TIP3   OH279794   4.562   5.126   1.942 -0.2472 -0.0852  0.2088
19460TIP3    H179795   4.627   5.059   1.961 -0.5722  0.1269  2.1960
19460TIP3    H279796   4.528   5.103   1.856  0.6858 -1.6307  0.2381
19461TIP3   OH279797   5.837   0.380   4.975 -0.0634 -0.5987  0.1989
19461TIP3    H179798   5.772   0.392   5.044 -0.5506 -1.6680 -0.0695
19461TIP3    H279799   5.787   0.356   4.898  0.3776  1.7860 -0.8753
19462TIP3   OH279800   5.811   5.391   4.453 -0.2162  0.2957  0.0274
19462TIP3    H179801   5.738   5.399   4.513 -1.4126  1.2649 -1.5214
19462TIP3    H279802   5.862   5.471   4.465 -0.1928  0.2685  0.1082
19463TIP3   OH279803   5.444   5.213   3.716 -0.3330  0.1636  0.6053
19463TIP3    H179804   5.364   5.248   3.679  0.0514 -1.7202 -2.1322
19463TIP3    H279805   5.419   5.130   3.756  0.5477 -1.4119 -2.0099
19464TIP3   OH279806   6.644   4.222   3.454  0.0312 -0.5919 -0.3071
19464TIP3    H179807   6.720   4.183   3.497  0.2862  0.5370  0.2833
19464TIP3    H279808   6.672   4.238   3.364  0.3017 -0.6921 -0.2393
19465TIP3   OH279809   5.381   1.484   2.646  0.0676  0.1789  0.4826
19465TIP3    H179810   5.392   1.454   2.736 -0.4961  2.1929  1.2504
19465TIP3    H279811   5.463   1.529   2.625  0.3327 -0.5784 -0.1439
19466TIP3   OH279812   6.317   6.960   5.811 -0.5090  0.3960 -0.2823
19466TIP3    H179813   6.388   7.002   5.762 -0.6032  0.8425 -0.0352
19466TIP3    H279814   6.297   7.020   5.882 -0.6247 -0.0840  0.0955
19467TIP3   OH279815   0.438   6.119   2.974 -0.3084  0.0598  0.0923
19467TIP3    H179816   0.452   6.046   3.033 -0.2818 -1.3675 -1.6225
19467TIP3    H279817   0.351   6.152   2.996 -0.1080 -0.1464  1.2110
19468TIP3   OH279818   3.457   4.886   4.159  0.1743  0.5350  0.0778
19468TIP3    H179819   3.393   4.873   4.089  0.2385  1.5490 -0.1695
19468TIP3    H279820   3.500   4.801   4.168 -1.3305 -0.2121  0.3684
19469TIP3   OH279821   5.110   6.374   3.136 -0.2847 -0.4414  0.0209
19469TIP3    H179822   5.172   6.372   3.064 -1.3394  0.5414 -0.9246
19469TIP3    H279823   5.160   6.341   3.211  1.3812  0.3450 -0.7147
19470TIP3   OH279824   3.756   0.200   5.436 -0.4862  0.4382  0.4212
19470TIP3    H179825   3.705   0.223   5.359 -2.1049  0.8284  1.5760
19470TIP3    H279826   3.778   0.108   5.424 -2.8738 -0.1963  0.6497
19471TIP3   OH279827   6.718   5.931   3.760 -0.0152  0.2163  0.1064
19471TIP3    H179828   6.733   5.980   3.841  1.6862  0.3044 -0.2467
19471TIP3    H279829   6.765   5.980   3.693 -0.9077 -0.1892 -0.8445
19472TIP3   OH279830   4.347   6.536   4.984  0.3697 -0.2369 -0.4442
19472TIP3    H179831   4.375   6.445   4.994 -1.8328 -0.8831  0.2144
19472TIP3    H279832   4.348   6.551   4.890 -0.4760 -1.3648 -0.6467
19473TIP3   OH279833   6.999   1.617   3.894  0.3308 -0.0417 -0.2351
19473TIP3    H179834   6.965   1.695   3.850 -0.3316 -0.8596 -1.1959
19473TIP3    H279835   7.021   1.647   3.983  1.6788  1.6275 -1.0915
19474TIP3   OH279836   4.840   4.683   4.793  0.5991 -0.2818  0.1218
19474TIP3    H179837   4.856   4.775   4.813  0.1201 -0.6924  2.4581
19474TIP3    H279838   4.926   4.651   4.763  0.9889  0.6916  0.1656
19475TIP3   OH279839   4.687   5.174   4.528 -0.2726 -0.0858  0.2303
19475TIP3    H179840   4.633   5.110   4.480 -0.5383 -0.5453  1.1160
19475TIP3    H279841   4.776   5.142   4.518 -0.2824  0.0376 -0.2784
19476TIP3   OH279842   6.324   0.469   5.679  1.3112 -0.0750 -0.5148
19476TIP3    H179843   6.291   0.380   5.688 -0.1534  0.4248 -0.8221
19476TIP3    H279844   6.337   0.500   5.769 -0.5736  0.2660 -0.3453
19477TIP3   OH279845   5.933   1.798   3.577 -0.0957  0.0539  0.0285
19477TIP3    H179846   5.989   1.722   3.566  1.7659  1.0105  2.4492
19477TIP3    H279847   5.901   1.792   3.667 -0.3537  1.8283  0.0881
19478TIP3   OH279848   2.995   6.313   3.432  0.8216  0.9452  0.2466
19478TIP3    H179849   3.051   6.379   3.390 -0.0713  1.1982 -0.5692
19478TIP3    H279850   2.908   6.330   3.397  0.2588  0.4612  1.4072
19479TIP3   OH279851   3.885   6.700   5.296 -0.1885  0.7461  0.8399
19479TIP3    H179852   3.886   6.723   5.389 -1.1786  0.4071  0.9314
19479TIP3    H279853   3.819   6.758   5.257 -0.5087  0.1688  0.5251
19480TIP3   OH279854   5.173   6.052   5.528 -0.2890  0.2622 -0.0491
19480TIP3    H179855   5.212   5.997   5.460  0.5070  2.0993 -1.0804
19480TIP3    H279856   5.080   6.055   5.506  0.0057  1.0416 -1.1734
19481TIP3   OH279857   4.941   5.133   6.211 -0.5731 -0.0979  0.5911
19481TIP3    H179858   4.867   5.101   6.161  0.5375 -1.1375 -0.4199
19481TIP3    H279859   4.972   5.210   6.162  0.1855 -0.7996 -0.0456
19482TIP3   OH279860   4.973   6.343   4.114  0.1166 -0.1295  0.4190
19482TIP3    H179861   5.013   6.257   4.125 -1.2819 -0.8767 -0.1574
19482TIP3    H279862   4.999   6.370   4.026 -1.5835 -1.1383 -0.4106
19483TIP3   OH279863   4.107   5.818   3.685 -0.1483 -0.8701 -0.2328
19483TIP3    H179864   4.181   5.862   3.728 -0.2727 -1.7806  0.9371
19483TIP3    H279865   4.139   5.729   3.668 -1.2138 -1.4966  0.9680
19484TIP3   OH279866   0.731   6.415   2.475  0.1988 -0.1914  0.8360
19484TIP3    H179867   0.773   6.501   2.481 -0.7304  0.4920 -1.7811
19484TIP3    H279868   0.641   6.431   2.503 -0.5912  0.2314 -1.7680
19485TIP3   OH279869   2.432   0.371   4.604 -0.3385 -0.4967 -0.1619
19485TIP3    H179870   2.399   0.351   4.692 -0.1564  1.9639  0.5121
19485TIP3    H279871   2.357   0.412   4.560 -0.3423 -1.4658 -1.0691
19486TIP3   OH279872   6.112   4.360   5.050 -0.1706  0.3367 -0.7985
19486TIP3    H179873   6.021   4.388   5.063 -0.6275 -1.5990  0.2468
19486TIP3    H279874   6.108   4.302   4.974  0.2938  0.6977 -1.1013
19487TIP3   OH279875   5.095   6.475   2.259 -0.2023 -0.2761  0.2527
19487TIP3    H179876   5.040   6.397   2.250 -1.2681  0.3914  0.8837
19487TIP3    H279877   5.164   6.449   2.319 -0.0032 -1.0204 -0.2845
19488TIP3   OH279878   0.268   6.983   4.883  0.0941 -0.2478  0.2283
19488TIP3    H179879   0.265   7.059   4.825 -1.5750 -0.4413  0.0216
19488TIP3    H279880   0.229   7.014   4.965 -0.6366 -0.8888  0.1273
19489TIP3   OH279881   6.556   7.230   4.667 -0.2007 -0.1487  0.1085
19489TIP3    H179882   6.510   7.296   4.616  0.5698 -0.1108 -0.5575
19489TIP3    H279883   6.560   7.266   4.756 -1.6942 -0.2949  0.2398
19490TIP3   OH279884   4.622   4.904   3.092  0.2124 -0.6195  0.0199
19490TIP3    H179885   4.527   4.912   3.096  0.4163  1.4633  1.9113
19490TIP3    H279886   4.649   4.893   3.183  1.8147 -0.7802 -0.4532
19491TIP3   OH279887   4.948   5.429   4.335  0.0329  0.0539 -0.0805
19491TIP3    H179888   4.950   5.525   4.333 -1.1874  0.0724 -0.9926
19491TIP3    H279889   4.876   5.408   4.396 -1.1944 -0.2587 -1.6162
19492TIP3   OH279890   4.641   0.301   5.309  0.3881 -0.2439 -0.8864
19492TIP3    H179891   4.614   0.273   5.222 -0.8209 -1.4127 -0.1603
19492TIP3    H279892   4.590   0.380   5.326  1.5897  0.7225 -1.7525
19493TIP3   OH279893   5.858   3.733   5.502  0.0654  0.6806 -0.1128
19493TIP3    H179894   5.833   3.692   5.585  1.0559 -0.1694 -0.2255
19493TIP3    H279895   5.936   3.783   5.522  1.4669 -1.1088 -0.9329
19494TIP3   OH279896   5.404   5.909   4.748  0.4326  0.0254 -0.3375
19494TIP3    H179897   5.444   5.887   4.832 -1.2306  0.2161  0.5180
19494TIP3    H279898   5.345   5.836   4.730  1.7456 -0.6598 -2.0000
19495TIP3   OH279899   3.718   6.014   5.219  0.3993 -0.4688 -0.6498
19495TIP3    H179900   3.630   6.051   5.231  0.7641 -0.0577  0.8714
19495TIP3    H279901   3.710   5.923   5.248  1.2718  0.5138  3.0360
19496TIP3   OH279902   5.282   0.819   5.598  0.3098 -0.1723 -0.0858
19496TIP3    H179903   5.234   0.875   5.660 -0.6455  0.4196 -1.3287
19496TIP3    H279904   5.239   0.733   5.606  0.4485 -0.2035  0.3519
19497TIP3   OH279905   4.711   7.018   4.133 -0.3740  0.2571 -0.9789
19497TIP3    H179906   4.805   7.035   4.144 -0.5215  0.8934 -0.6972
19497TIP3    H279907   4.669   7.073   4.199 -0.8004 -2.1499  0.8589
19498TIP3   OH279908   7.258   7.002   3.047 -0.1344 -0.0386 -0.7399
19498TIP3    H179909   7.236   7.017   2.955  1.3890 -1.3881 -1.3273
19498TIP3    H279910   7.179   6.963   3.084 -1.2209  1.7204 -1.1457
19499TIP3   OH279911   1.890   6.933   5.958  0.2104 -0.2247 -0.4153
19499TIP3    H179912   1.889   6.838   5.948 -0.4890 -0.4576  1.7300
19499TIP3    H279913   1.805   6.955   5.995  1.0840  1.0156  0.9230
19500TIP3   OH279914   2.809   1.157   5.468 -0.1506 -0.4111 -0.2928
19500TIP3    H179915   2.783   1.249   5.460 -0.1128 -0.3800 -0.0757
19500TIP3    H279916   2.830   1.130   5.379 -0.8056 -0.3991 -0.4582
19501TIP3   OH279917   2.952   5.669   5.523  0.4067 -0.2222  0.0668
19501TIP3    H179918   2.985   5.626   5.445 -0.0626 -0.0933 -0.2033
19501TIP3    H279919   2.979   5.611   5.595  0.0396 -0.8191 -0.2659
19502TIP3   OH279920   5.248   0.015   5.343 -0.0546 -0.0446 -0.2230
19502TIP3    H179921   5.215  -0.049   5.406  3.3125 -0.9199  0.7712
19502TIP3    H279922   5.254  -0.033   5.261 -0.3029 -0.1425 -0.1853
19503TIP3   OH279923   3.704   6.467   4.698 -0.1748  0.1234 -0.0344
19503TIP3    H179924   3.797   6.464   4.721 -0.2041  1.4984  0.2848
19503TIP3    H279925   3.661   6.495   4.779 -1.0672 -2.1825  0.3375
19504TIP3   OH279926   5.970   0.901   4.961 -0.2238  0.0472 -0.5302
19504TIP3    H179927   6.049   0.847   4.971 -0.3024  0.1568  0.7562
19504TIP3    H279928   5.905   0.841   4.923 -0.7632 -1.2133  2.2681
19505TIP3   OH279929   4.274   5.148   5.736 -0.1769 -0.5427  0.3169
19505TIP3    H179930   4.201   5.131   5.677  0.4189 -0.5653 -0.4157
19505TIP3    H279931   4.236   5.139   5.824 -0.7057 -2.1101 -0.0515
19506TIP3   OH279932   3.921   5.134   5.847 -0.5983 -0.6240 -0.3535
19506TIP3    H179933   3.944   5.226   5.835  1.4966 -0.8733  1.2887
19506TIP3    H279934   3.994   5.098   5.898 -3.3639 -2.1626  2.7671
19507TIP3   OH279935   5.111   5.631   5.615 -0.1263 -0.1709 -0.0379
19507TIP3    H179936   5.092   5.692   5.686 -0.4074 -0.3422  0.0356
19507TIP3    H279937   5.168   5.565   5.654 -0.2302 -0.2306  0.0140
19508TIP3   OH279938   4.356   0.321   5.569  0.4410 -0.0541  0.3353
19508TIP3    H179939   4.319   0.303   5.655  0.6704  0.0159  0.4497
19508TIP3    H279940   4.415   0.248   5.553  1.0741  0.3885  0.6266
19509TIP3   OH279941   3.494   5.923   3.897 -0.0680  0.0700  0.6843
19509TIP3    H179942   3.464   5.856   3.959 -2.1077  0.1731 -0.1584
19509TIP3    H279943   3.420   5.983   3.889  0.7046  0.8658 -0.7552
19510TIP3   OH279944   3.886   4.621   3.022 -0.5929  0.0393 -0.4921
19510TIP3    H179945   3.845   4.580   2.945  0.1005 -1.3142 -0.1620
19510TIP3    H279946   3.823   4.687   3.051 -0.5367  1.0863 -2.6660
19511TIP3   OH279947   6.064   5.152   5.687 -0.5292  0.4098  0.4977
19511TIP3    H179948   6.075   5.060   5.660  0.5413  0.4939  0.6408
19511TIP3    H279949   6.075   5.150   5.782  0.9746  0.9121  0.3332
19512TIP3   OH279950   3.761   0.700   4.245 -0.0517 -0.0867  0.1123
19512TIP3    H179951   3.770   0.651   4.327  0.9417 -0.6579 -0.3398
19512TIP3    H279952   3.842   0.750   4.237  0.2806 -0.8071 -1.0437
19513TIP3   OH279953   7.280   5.271   0.943 -0.1213  0.0939 -0.0586
19513TIP3    H179954   7.286   5.335   1.014 -1.7276 -0.3502  0.5027
19513TIP3    H279955   7.371   5.255   0.918  0.3105  2.7678 -0.3801
19514TIP3   OH279956   6.258   0.443   5.150  0.4501 -0.5478  0.4575
19514TIP3    H179957   6.316   0.515   5.125 -0.6717  0.1320 -0.2205
19514TIP3    H279958   6.248   0.452   5.245  3.6581 -2.3350  1.0359
19515TIP3   OH279959   6.459   4.572   3.478  0.4863 -0.3582  0.2277
19515TIP3    H179960   6.498   4.516   3.546  1.6530 -0.3629 -0.4226
19515TIP3    H279961   6.503   4.656   3.489  2.0210 -0.8752 -1.6685
19516TIP3   OH279962   6.324   5.707   2.539 -0.3160  0.3478  0.0434
19516TIP3    H179963   6.337   5.612   2.536 -0.6999  0.2899  0.2464
19516TIP3    H279964   6.262   5.726   2.468 -1.9222  0.1753  1.3785
19517TIP3   OH279965   0.335   6.219   4.381  0.8550  0.3138 -0.3618
19517TIP3    H179966   0.403   6.152   4.374  2.1945  1.6973 -1.0643
19517TIP3    H279967   0.382   6.302   4.372 -0.6333  1.3986  1.4696
19518TIP3   OH279968   6.107   7.036   3.401 -0.6688 -0.6437  0.7238
19518TIP3    H179969   6.049   7.076   3.466  0.4702  1.0166  0.7425
19518TIP3    H279970   6.092   7.087   3.321 -1.7133 -2.3706 -0.2151
19519TIP3   OH279971   4.693   7.052   3.860  0.0542 -0.0331 -0.7513
19519TIP3    H179972   4.735   7.006   3.933 -2.2497  0.2021  0.7647
19519TIP3    H279973   4.619   6.997   3.836 -0.6776  1.1491 -1.2410
19520TIP3   OH279974   4.476   0.516   4.928  0.4026  0.7454  1.3053
19520TIP3    H179975   4.384   0.508   4.904  1.3321 -2.8439 -1.6197
19520TIP3    H279976   4.482   0.479   5.016 -0.4462 -2.6588  0.0234
19521TIP3   OH279977   6.271   5.713   3.802 -0.6533  0.1305 -0.0660
19521TIP3    H179978   6.330   5.784   3.778 -0.5669 -0.7795 -2.6161
19521TIP3    H279979   6.302   5.684   3.888  1.4517  0.8817 -0.5454
19522TIP3   OH279980   4.477   1.023   5.573  0.1168 -0.4948 -0.8914
19522TIP3    H179981   4.570   1.011   5.551  0.1892  0.2314 -0.9687
19522TIP3    H279982   4.469   0.990   5.662  0.6549  0.4268 -0.5076
19523TIP3   OH279983   5.548   6.666   4.451 -0.0604 -0.0600  0.5447
19523TIP3    H179984   5.493   6.600   4.409  0.8311  0.0313 -0.7983
19523TIP3    H279985   5.596   6.707   4.379  1.5878  0.0154  1.6447
19524TIP3   OH279986   5.024   3.647   3.963 -0.9466  0.8592 -0.2190
19524TIP3    H179987   4.950   3.588   3.977 -0.3995  0.2364  0.0572
19524TIP3    H279988   5.100   3.600   3.999 -0.5535  1.8440  0.2712
19525TIP3   OH279989   4.364   7.047   3.949  0.1301  0.4707 -0.2264
19525TIP3    H179990   4.410   7.108   4.006  0.3770  0.7099 -0.6741
19525TIP3    H279991   4.347   7.098   3.869  0.2467 -0.0135 -0.5628
19526TIP3   OH279992   5.548   6.624   2.920  0.3988 -0.3538 -0.4347
19526TIP3    H179993   5.514   6.572   2.848  0.5926 -0.8403 -0.1807
19526TIP3    H279994   5.619   6.571   2.957 -0.7508 -0.8376  1.1348
19527TIP3   OH279995   2.404   5.879   4.600  0.0489 -0.1395 -0.1106
19527TIP3    H179996   2.340   5.949   4.609 -0.6158 -0.8954  1.0599
19527TIP3    H279997   2.352   5.799   4.596  0.8992 -0.7300  0.5265
19528TIP3   OH279998   3.148   7.088   2.648  0.2096 -0.0064 -0.4154
19528TIP3    H179999   3.204   7.163   2.630 -0.0986  0.1969 -0.5360
19528TIP3    H280000   3.120   7.100   2.739 -1.0451  0.8299 -0.8917
19529TIP3   OH280001   4.145   3.980   4.648 -0.3788  0.0558  0.6647
19529TIP3    H180002   4.063   4.031   4.651 -0.9077 -0.7594  0.3461
19529TIP3    H280003   4.120   3.898   4.606  0.8294  0.1982 -0.3575
19530TIP3   OH280004   5.635   6.492   5.414  0.2982 -0.4312 -0.0117
19530TIP3    H180005   5.655   6.555   5.483  1.2551 -0.6750 -0.0617
19530TIP3    H280006   5.661   6.407   5.449 -1.3981 -0.8751  0.2200
19531TIP3   OH280007   5.195   0.861   1.785 -0.5939 -0.3008 -0.4094
19531TIP3    H180008   5.250   0.795   1.826 -0.6388  0.2773  0.5933
19531TIP3    H280009   5.256   0.916   1.735 -0.2589  0.2630  0.5989
19532TIP3   OH280010   5.461   0.307   4.232  0.2503  0.4107  0.3501
19532TIP3    H180011   5.494   0.223   4.201 -2.9401 -0.9103  0.3395
19532TIP3    H280012   5.394   0.332   4.168 -0.7783  1.5907  1.8353
19533TIP3   OH280013   4.647   5.637   2.023 -0.1127  0.3514  0.5306
19533TIP3    H180014   4.696   5.707   2.065  1.3005 -0.5603  0.4267
19533TIP3    H280015   4.633   5.572   2.092  1.9219 -0.9923 -0.2702
19534TIP3   OH280016   5.179   5.742   4.696  0.1572 -0.8068 -0.4082
19534TIP3    H180017   5.112   5.673   4.696 -1.2407  0.5040  0.9068
19534TIP3    H280018   5.154   5.799   4.623 -1.4053  0.8038  1.3283
19535TIP3   OH280019   3.428   0.814   3.820  0.0877  0.2851  0.1219
19535TIP3    H180020   3.403   0.733   3.866 -1.8578  0.7017 -0.1363
19535TIP3    H280021   3.402   0.884   3.880 -1.1800  0.7906 -0.9823
19536TIP3   OH280022   6.929   3.771   4.553 -0.0019 -0.1698 -0.1150
19536TIP3    H180023   7.017   3.796   4.580  0.0150 -0.9939  0.6331
19536TIP3    H280024   6.872   3.837   4.593  0.2731  0.3316 -0.5528
19537TIP3   OH280025   4.350   6.267   4.923  1.0133  0.1242 -0.0354
19537TIP3    H180026   4.349   6.234   5.013  2.2383  0.0844 -0.0261
19537TIP3    H280027   4.294   6.206   4.875  0.7007 -0.1098  0.6146
19538TIP3   OH280028   4.760   6.583   5.397 -0.3697 -0.2954 -0.1669
19538TIP3    H180029   4.840   6.531   5.391  0.7957  1.3871  0.4300
19538TIP3    H280030   4.706   6.537   5.461  0.8974 -0.4454  0.8161
19539TIP3   OH280031   3.184   6.492   3.272  0.2225  0.2472 -0.5452
19539TIP3    H180032   3.270   6.528   3.291  1.1097 -1.6131 -0.9024
19539TIP3    H280033   3.148   6.549   3.205  1.2387  0.9304 -0.5261
19540TIP3   OH280034   5.390   0.552   2.996 -0.2576 -0.1608 -0.4576
19540TIP3    H180035   5.327   0.605   2.946 -0.5396  0.1961  0.2746
19540TIP3    H280036   5.390   0.591   3.083  0.5035 -0.5636 -0.2765
19541TIP3   OH280037   5.193   3.497   3.081 -0.1922 -0.6791  0.3702
19541TIP3    H180038   5.157   3.415   3.117 -0.6414 -0.8570 -0.4784
19541TIP3    H280039   5.278   3.505   3.124 -1.1947 -0.2736  2.3748
19542TIP3   OH280040   1.858   7.038   5.700  0.4652  0.3168  0.0162
19542TIP3    H180041   1.804   6.968   5.663  1.9481 -1.1790  0.6112
19542TIP3    H280042   1.852   7.026   5.795  1.1428  0.6545  0.1083
19543TIP3   OH280043   5.074   6.255   4.525  0.2817  0.2805 -0.1859
19543TIP3    H180044   5.024   6.230   4.602  3.2890  0.7651  2.0192
19543TIP3    H280045   5.078   6.351   4.529  2.1298  0.2149  0.2315
19544TIP3   OH280046   4.221   6.388   3.876  0.2696  0.1906  0.3983
19544TIP3    H180047   4.243   6.444   3.950 -0.4394  1.3637 -0.2675
19544TIP3    H280048   4.303   6.377   3.829  0.5711  0.0269  0.9591
19545TIP3   OH280049   4.430   7.213   5.865 -0.0336  0.3717 -0.4588
19545TIP3    H180050   4.501   7.150   5.859 -0.6571 -0.3675 -0.2588
19545TIP3    H280051   4.444   7.273   5.792  0.8132  0.2621 -0.3929
19546TIP3   OH280052   2.059   1.673   4.527 -0.0816 -0.6657  0.0036
19546TIP3    H180053   1.979   1.717   4.497  0.0360 -1.5771 -1.7167
19546TIP3    H280054   2.079   1.610   4.458  3.0444  0.6368 -0.3274
19547TIP3   OH280055   5.173   6.605   5.430 -0.3826 -0.2394  0.0886
19547TIP3    H180056   5.206   6.651   5.507 -2.4614  0.8492  0.3424
19547TIP3    H280057   5.252   6.583   5.380  0.8487  0.7473  1.5572
19548TIP3   OH280058   2.053   1.127   5.054 -0.3882  1.9889 -0.0271
19548TIP3    H180059   2.072   1.213   5.091 -1.6925  1.8622  0.9644
19548TIP3    H280060   1.993   1.087   5.116  1.4093 -0.2712  0.3223
19549TIP3   OH280061   5.146   6.106   4.131  0.7901 -0.0145 -0.2522
19549TIP3    H180062   5.117   6.018   4.108 -0.3983 -0.1095  1.5660
19549TIP3    H280063   5.197   6.095   4.211  0.6212  0.9494 -0.0072
19550TIP3   OH280064   5.008   0.637   5.405 -0.6097  0.1192  0.0635
19550TIP3    H180065   4.996   0.697   5.331  0.2642  0.5785  0.2821
19550TIP3    H280066   4.951   0.671   5.473  0.2931  1.0472  0.3798
19551TIP3   OH280067   5.007   5.587   5.081 -0.2960  0.2193 -1.1644
19551TIP3    H180068   5.027   5.523   5.150 -0.6775 -0.1028 -1.3518
19551TIP3    H280069   4.935   5.548   5.031  1.1087 -0.3658 -2.8100
19552TIP3   OH280070   3.614   6.740   2.912 -0.4438 -0.0095 -0.2968
19552TIP3    H180071   3.615   6.830   2.878 -0.1587  0.2743  0.4529
19552TIP3    H280072   3.522   6.714   2.906 -0.3589 -0.0559 -1.5107
19553TIP3   OH280073   3.860   4.967   3.096  0.7063  0.1163 -0.6593
19553TIP3    H180074   3.802   4.892   3.081  0.0054 -0.0824  2.7189
19553TIP3    H280075   3.948   4.930   3.094  0.3612 -0.8790  1.1324
19554TIP3   OH280076   5.315   5.603   3.680  0.0083  0.1009  0.5717
19554TIP3    H180077   5.264   5.594   3.761  0.0044  0.1586  0.5753
19554TIP3    H280078   5.322   5.513   3.646  0.2113  0.0474  0.7587
19555TIP3   OH280079   5.069   6.770   6.186  0.4950 -0.3879  0.0033
19555TIP3    H180080   5.157   6.808   6.189  0.9419 -1.2786 -1.4514
19555TIP3    H280081   5.056   6.734   6.274  1.2933  0.3767  0.4427
19556TIP3   OH280082   5.012   1.232   1.495  0.7032  0.0247  0.5090
19556TIP3    H180083   4.944   1.167   1.515  0.4184  0.2743  0.3495
19556TIP3    H280084   5.063   1.239   1.576  0.8419 -0.5245  0.4755
19557TIP3   OH280085   5.038   6.879   4.344 -0.8711 -0.1073  0.0151
19557TIP3    H180086   5.039   6.828   4.263 -1.8599 -0.2659  0.0878
19557TIP3    H280087   5.019   6.814   4.413  1.3640 -0.2137  0.5716
19558TIP3   OH280088   3.704   0.209   4.014  0.0005 -0.0477  0.6440
19558TIP3    H180089   3.679   0.166   4.096 -3.1814  0.1460 -0.1807
19558TIP3    H280090   3.753   0.286   4.041 -1.6778  0.4233  2.4223
19559TIP3   OH280091   4.836   6.618   4.814 -0.2710 -0.1434  0.2517
19559TIP3    H180092   4.876   6.668   4.885  1.1733 -1.8334  0.6773
19559TIP3    H280093   4.834   6.528   4.847 -1.3496 -0.6276 -1.1108
19560TIP3   OH280094   4.143   3.138   5.649  0.3458 -0.4458  0.5292
19560TIP3    H180095   4.072   3.128   5.712  1.8675 -1.8292  2.0959
19560TIP3    H280096   4.134   3.064   5.589  0.3339 -0.4874  0.5832
19561TIP3   OH280097   6.248   4.846   4.257 -0.2612  0.3374 -0.0422
19561TIP3    H180098   6.258   4.815   4.347  1.5162  1.3845  0.1267
19561TIP3    H280099   6.160   4.883   4.254 -0.5944 -0.3578  1.0536
19562TIP3   OH280100   6.253   4.977   4.760 -0.2955  0.4297  0.3834
19562TIP3    H180101   6.298   5.027   4.692  0.9977 -0.3782  0.6386
19562TIP3    H280102   6.162   4.974   4.730 -0.0734  1.5577 -0.4384
19563TIP3   OH280103   4.676   4.869   5.264  0.8828  0.0955  0.7939
19563TIP3    H180104   4.695   4.775   5.260 -3.4307 -0.8017 -0.6221
19563TIP3    H280105   4.639   4.883   5.351 -2.6186 -0.4712 -0.5158
19564TIP3   OH280106   5.008   6.026   5.971 -0.0136  0.6536  0.3469
19564TIP3    H180107   5.075   5.995   6.031  1.3918  1.5766 -0.6979
19564TIP3    H280108   4.957   6.089   6.022  1.5316  1.8684  0.4324
19565TIP3   OH280109   4.393   4.861   2.559 -0.0699 -0.4902  0.1768
19565TIP3    H180110   4.436   4.944   2.577 -0.4188 -0.3275  0.2664
19565TIP3    H280111   4.383   4.859   2.464  0.5940 -0.7579  0.1131
19566TIP3   OH280112   3.219   6.661   2.290  0.1769  0.1578  0.1404
19566TIP3    H180113   3.238   6.713   2.368  0.6945  1.0879 -0.6029
19566TIP3    H280114   3.134   6.693   2.260  1.5508  2.2306 -1.6549
19567TIP3   OH280115   5.007   7.099   3.501 -0.7034 -0.2569  0.1495
19567TIP3    H180116   5.026   7.125   3.411 -0.6533  2.9567  1.0129
19567TIP3    H280117   4.912   7.109   3.509 -0.5296  0.9337  0.8521
19568TIP3   OH280118   6.159   0.327   4.502 -0.3306  0.2083 -0.3101
19568TIP3    H180119   6.170   0.232   4.494 -0.0222  0.3466 -1.6793
19568TIP3    H280120   6.068   0.338   4.530 -0.3017 -0.4927  0.0819
19569TIP3   OH280121   6.026   5.939   5.226 -0.1879 -0.0502  0.3342
19569TIP3    H180122   6.019   6.034   5.234  1.1069 -0.0192  1.1315
19569TIP3    H280123   6.104   5.916   5.276  0.5345 -1.3421 -1.3260
19570TIP3   OH280124   6.250   0.942   4.733 -0.5265  0.8781  0.3152
19570TIP3    H180125   6.303   1.021   4.722  0.2259  0.5744  1.6717
19570TIP3    H280126   6.162   0.969   4.710  0.0784  1.5934 -1.2210
19571TIP3   OH280127   5.339   4.979   3.776 -0.4106  0.6649 -0.8176
19571TIP3    H180128   5.243   4.975   3.786 -0.3415 -1.0465 -0.7296
19571TIP3    H280129   5.372   4.916   3.839  0.6784 -0.2735 -2.3010
19572TIP3   OH280130   5.281   6.442   3.991 -0.2328 -0.0905  0.3406
19572TIP3    H180131   5.371   6.413   3.979  0.3802  1.6666  0.6145
19572TIP3    H280132   5.283   6.499   4.067 -1.4893  0.3566  0.0624
19573TIP3   OH280133   4.933   4.220   3.492  0.1604 -0.1042 -0.0336
19573TIP3    H180134   4.878   4.145   3.518 -0.5784 -0.7614 -3.2248
19573TIP3    H280135   4.992   4.233   3.566 -0.3393 -3.2352  1.0176
19574TIP3   OH280136   5.697   5.761   3.858  0.5528  0.6326 -0.4578
19574TIP3    H180137   5.614   5.805   3.877 -0.3854 -0.7154 -1.3148
19574TIP3    H280138   5.695   5.747   3.763  0.2774 -2.2648 -0.0740
19575TIP3   OH280139   2.819   1.763   5.452  0.1175 -0.5936  0.4240
19575TIP3    H180140   2.769   1.829   5.500  1.3362  0.4540  0.2913
19575TIP3    H280141   2.856   1.707   5.520 -1.9875 -1.9473  0.4823
19576TIP3   OH280142   3.916   4.788   3.893  0.2185  0.0509 -0.2919
19576TIP3    H180143   3.930   4.789   3.798 -0.0064  0.1653 -0.3251
19576TIP3    H280144   3.899   4.696   3.913 -0.1803  0.0947 -0.4293
19577TIP3   OH280145   5.160   0.195   5.032  0.2864 -0.1044  0.6974
19577TIP3    H180146   5.155   0.101   5.049 -0.8164 -0.4753 -1.4959
19577TIP3    H280147   5.068   0.222   5.022  0.6835  0.8610 -0.4258
19578TIP3   OH280148   6.447   5.649   2.139 -0.1626  0.1618 -0.2295
19578TIP3    H180149   6.380   5.677   2.077 -0.5557  1.3599  0.7042
19578TIP3    H280150   6.508   5.723   2.143 -0.5804  0.4354  1.3970
19579TIP3   OH280151   6.497   6.129   5.530 -0.2700  0.1452 -0.2346
19579TIP3    H180152   6.454   6.200   5.578  0.9194  0.9763 -0.3826
19579TIP3    H280153   6.509   6.163   5.442  3.2754  1.1045  0.4970
19580TIP3   OH280154   5.165   0.281   5.476 -0.4422 -0.6932 -0.6998
19580TIP3    H180155   5.085   0.260   5.524  0.8887 -1.1902  1.3250
19580TIP3    H280156   5.170   0.215   5.407 -2.3014 -0.0344 -1.4967
19581TIP3   OH280157   6.255   6.628   5.442 -0.3458  0.2707 -0.0572
19581TIP3    H180158   6.332   6.642   5.388 -1.4317 -0.4448 -1.8300
19581TIP3    H280159   6.287   6.633   5.532  2.5879 -4.3822 -0.6829
19582TIP3   OH280160   4.207   5.451   2.808 -0.3718  0.3918  1.0194
19582TIP3    H180161   4.203   5.547   2.802 -0.2092  0.7443  5.0699
19582TIP3    H280162   4.301   5.431   2.808 -0.3498  0.4519  2.3789
19583TIP3   OH280163   6.627   4.939   6.244  0.0278 -0.2072  0.3544
19583TIP3    H180164   6.658   4.979   6.163 -1.2743 -0.6635 -0.3841
19583TIP3    H280165   6.539   4.908   6.223  0.4325 -2.1070  1.3348
19584TIP3   OH280166   5.223   6.112   4.832 -0.4163 -0.1986  0.2665
19584TIP3    H180167   5.272   6.031   4.813  1.9432  0.8275  1.8486
19584TIP3    H280168   5.285   6.182   4.813 -1.4594  1.1584  1.8086
19585TIP3   OH280169   4.562   1.815   4.367  0.2758  0.0621 -0.1097
19585TIP3    H180170   4.579   1.873   4.293  0.8883 -1.1762 -0.9449
19585TIP3    H280171   4.475   1.779   4.350  0.2182  0.1437  0.0138
19586TIP3   OH280172   4.012   7.025   4.680 -0.3854  0.0459 -0.4722
19586TIP3    H180173   4.061   7.104   4.659  1.5812 -0.6862  1.2036
19586TIP3    H280174   3.922   7.055   4.694  0.4241  2.0485  0.5448
19587TIP3   OH280175   4.683   5.624   5.118 -0.2820  0.1440  0.2820
19587TIP3    H180176   4.620   5.552   5.121 -0.2824  0.1644  0.8771
19587TIP3    H280177   4.744   5.605   5.189 -0.0747  0.5422  0.2093
19588TIP3   OH280178   6.697   1.387   2.972  0.1965  0.2910 -0.2541
19588TIP3    H180179   6.622   1.395   2.913 -1.7486 -1.2584  1.9444
19588TIP3    H280180   6.729   1.298   2.957  1.8882  1.0721 -1.4626
19589TIP3   OH280181   3.586   4.912   5.489  0.4716  0.0012  0.1234
19589TIP3    H180182   3.549   4.942   5.406  1.2034  0.8420  0.0803
19589TIP3    H280183   3.541   4.830   5.509 -1.7798  1.2513  0.3483
19590TIP3   OH280184   3.696   7.091   5.694 -0.3419  0.1459  0.1224
19590TIP3    H180185   3.790   7.080   5.676 -0.6745  0.4802 -1.9395
19590TIP3    H280186   3.693   7.133   5.779  1.4031  0.5753 -0.0034
19591TIP3   OH280187   5.961   6.192   5.335  0.4650 -0.8596  0.5465
19591TIP3    H180188   5.948   6.287   5.336  0.4691 -0.8569  0.0399
19591TIP3    H280189   5.883   6.158   5.378  0.1407 -0.6697  0.1056
19592TIP3   OH280190   2.374   6.251   4.932  0.4998  0.3228 -0.1604
19592TIP3    H180191   2.408   6.325   4.984 -0.2339  0.1488  0.5873
19592TIP3    H280192   2.367   6.285   4.843  2.5016  0.4002 -0.3113
19593TIP3   OH280193   4.918   4.826   5.069  0.2279  0.1904  0.1801
19593TIP3    H180194   4.987   4.793   5.127 -0.1592 -1.2713 -0.1764
19593TIP3    H280195   4.837   4.810   5.116 -0.1706 -1.9501 -1.1559
19594TIP3   OH280196   3.253   5.977   5.451 -0.4532 -0.4454 -0.5623
19594TIP3    H180197   3.243   6.022   5.367 -1.5009  0.6332  0.1358
19594TIP3    H280198   3.277   5.887   5.427 -0.2649 -0.0177 -2.0035
19595TIP3   OH280199   3.754   5.222   4.397  0.0465  0.3931  0.2786
19595TIP3    H180200   3.789   5.259   4.316  0.3266  0.2076  0.3127
19595TIP3    H280201   3.663   5.200   4.376  0.0463  0.5702  0.0886
19596TIP3   OH280202   5.828   6.037   5.660 -0.2693  0.5009  0.1501
19596TIP3    H180203   5.803   5.955   5.616 -0.7840  0.2361  0.9316
19596TIP3    H280204   5.897   6.011   5.722 -0.3343  0.6879  0.2994
19597TIP3   OH280205   0.638   5.860   3.446 -0.1745 -0.2107 -0.0488
19597TIP3    H180206   0.597   5.936   3.488  2.3138  0.6969  0.8835
19597TIP3    H280207   0.731   5.869   3.469  0.4407 -2.4808 -1.5840
19598TIP3   OH280208   3.485   5.497   2.521  0.7909 -0.1315  0.6227
19598TIP3    H180209   3.454   5.410   2.494  2.4869 -0.9044  1.0341
19598TIP3    H280210   3.564   5.511   2.468 -1.3507  2.6884 -1.9401
19599TIP3   OH280211   5.787   5.997   4.089 -0.4582  0.0575  0.1097
19599TIP3    H180212   5.767   5.989   4.182  0.1012 -0.8621  0.1536
19599TIP3    H280213   5.760   5.913   4.052  1.2834 -0.3611 -0.2091
19600TIP3   OH280214   5.020   6.822   3.553  0.1188  0.4362  0.5100
19600TIP3    H180215   4.939   6.793   3.508 -0.9786 -0.3185  2.8998
19600TIP3    H280216   5.031   6.913   3.526 -1.9221  0.7538  0.6704
19601TIP3   OH280217   4.124   6.801   3.836  0.1631  0.0933 -0.0291
19601TIP3    H180218   4.163   6.811   3.750  0.4250 -0.0861  0.0682
19601TIP3    H280219   4.057   6.734   3.825 -0.0429  0.3242 -0.1718
19602TIP3   OH280220   5.293   4.685   4.146 -0.3503  0.2843 -0.1564
19602TIP3    H180221   5.220   4.735   4.181 -0.8428 -0.4933 -0.0683
19602TIP3    H280222   5.274   4.594   4.170  1.4954  0.2717  1.3555
19603TIP3   OH280223   5.891   4.154   1.359 -1.0714  0.0527 -0.0804
19603TIP3    H180224   5.819   4.185   1.413 -0.4846  0.1904  0.6185
19603TIP3    H280225   5.951   4.111   1.420 -0.8273 -0.5475 -0.7331
19604TIP3   OH280226   2.977   6.873   3.486  0.0396  0.1344  0.1213
19604TIP3    H180227   3.065   6.839   3.497 -0.3383 -0.9965 -0.3054
19604TIP3    H280228   2.962   6.926   3.564  0.5809 -0.7954  0.8673
19605TIP3   OH280229   5.156   6.301   6.204  0.9077  0.3101  0.4771
19605TIP3    H180230   5.137   6.207   6.196 -1.6215  0.8019  0.5482
19605TIP3    H280231   5.099   6.331   6.275 -0.7889  2.5889 -1.7846
19606TIP3   OH280232   4.890   0.205   4.505  0.4016 -0.1025  0.2008
19606TIP3    H180233   4.906   0.209   4.599  1.3814 -0.5063  0.0554
19606TIP3    H280234   4.804   0.246   4.494  0.2101 -0.1859  1.2824
19607TIP3   OH280235   6.298   5.556   5.714  0.1186 -0.6007 -0.4817
19607TIP3    H180236   6.286   5.582   5.805  1.2918  1.0198 -0.7743
19607TIP3    H280237   6.382   5.594   5.688 -0.5996 -0.2975 -2.4962
19608TIP3   OH280238   4.734   0.062   6.166 -0.1522 -0.6421 -0.5558
19608TIP3    H180239   4.722   0.156   6.149  0.4663 -0.3442  0.6344
19608TIP3    H280240   4.649   0.023   6.144 -1.0073  0.4612  0.7593
19609TIP3   OH280241   5.199   3.239   3.356  0.4712  0.0864 -0.7029
19609TIP3    H180242   5.278   3.277   3.394  0.8563 -1.9586  0.6275
19609TIP3    H280243   5.143   3.220   3.432 -0.8527  0.5313 -1.5500
19610TIP3   OH280244   5.420   3.451   3.880 -0.1271  0.3763 -0.0513
19610TIP3    H180245   5.373   3.428   3.960 -0.3228  1.3953  0.1257
19610TIP3    H280246   5.353   3.483   3.820  0.0078 -0.4690 -0.6589
19611TIP3   OH280247   0.292   4.754   4.543 -0.4020  0.0528 -0.5095
19611TIP3    H180248   0.249   4.821   4.597 -0.5984 -0.8870  0.5276
19611TIP3    H280249   0.221   4.696   4.516  0.0978 -1.1360  0.6702
19612TIP3   OH280250   5.855   0.447   2.952 -0.2910 -0.2429 -0.5418
19612TIP3    H180251   5.894   0.361   2.937  0.7828 -0.0515  0.9844
19612TIP3    H280252   5.928   0.508   2.941 -0.7727  0.3647 -0.3664
19613TIP3   OH280253   1.265   0.682   4.625 -0.7865  0.5701  0.4526
19613TIP3    H180254   1.237   0.596   4.655 -0.6751  0.9962  1.8374
19613TIP3    H280255   1.319   0.664   4.548 -0.3267 -0.6487  1.0368
19614TIP3   OH280256   6.706   6.256   4.632 -0.0787 -0.0796 -0.2426
19614TIP3    H180257   6.701   6.166   4.665  0.7047 -0.7205 -1.8226
19614TIP3    H280258   6.775   6.253   4.565  2.7210  2.5071  2.3160
19615TIP3   OH280259   6.761   1.739   3.548 -0.2300  1.4371 -0.5986
19615TIP3    H180260   6.686   1.749   3.490  0.1517  0.5777 -1.2567
19615TIP3    H280261   6.818   1.676   3.503  0.6149  1.6474  0.1580
19616TIP3   OH280262   0.285   0.057   4.053  0.0324 -0.7612 -0.3922
19616TIP3    H180263   0.276   0.099   4.138  1.9890 -1.4101  0.1859
19616TIP3    H280264   0.202   0.012   4.039 -0.8920  0.6577  0.4416
19617TIP3   OH280265   6.577   5.702   5.699  0.3645 -0.1243  0.3585
19617TIP3    H180266   6.588   5.726   5.791  0.0932  0.6652  0.1890
19617TIP3    H280267   6.530   5.776   5.660 -0.2375 -0.8102 -0.2380
19618TIP3   OH280268   6.434   5.735   3.218  0.1989 -0.0767  0.0300
19618TIP3    H180269   6.469   5.705   3.303  0.9385  0.3485 -0.1194
19618TIP3    H280270   6.466   5.825   3.210 -0.5207  0.1487 -0.3529
19619TIP3   OH280271   0.705   5.671   3.249 -0.1891  0.5059 -0.0518
19619TIP3    H180272   0.693   5.601   3.314 -0.8633 -0.4589 -1.1844
19619TIP3    H280273   0.694   5.752   3.299  1.9012 -0.1411  1.5461
19620TIP3   OH280274   6.572   0.663   1.867 -0.4395 -0.0834 -0.6452
19620TIP3    H180275   6.507   0.724   1.902  0.7127 -0.1267  1.6277
19620TIP3    H280276   6.647   0.718   1.845  0.2507 -0.5389  0.5242
19621TIP3   OH280277   1.599   4.354   1.802  0.9313  0.3047 -0.6462
19621TIP3    H180278   1.558   4.432   1.765  0.5176  0.1813 -0.4614
19621TIP3    H280279   1.571   4.354   1.894  2.2476  0.8055 -0.2399
19622TIP3   OH280280   0.328   6.352   3.250  0.1610  0.0375  0.5499
19622TIP3    H180281   0.315   6.435   3.205  0.2618 -0.1441  0.1882
19622TIP3    H280282   0.251   6.300   3.226 -0.1601  0.2060  1.1834
19623TIP3   OH280283   0.708   6.155   2.605 -0.3600  0.3471  0.2544
19623TIP3    H180284   0.659   6.192   2.678 -0.5046  1.3220 -0.3321
19623TIP3    H280285   0.652   6.169   2.529  1.0329  1.9407 -0.5179
19624TIP3   OH280286   6.930   4.932   1.913 -0.4179 -0.0603  0.3733
19624TIP3    H180287   6.932   5.010   1.858  1.9031  0.2022  0.7678
19624TIP3    H280288   7.015   4.932   1.958  0.1723 -3.5132 -0.6025
19625TIP3   OH280289   6.794   5.219   5.050 -0.7313 -0.3013 -0.2075
19625TIP3    H180290   6.833   5.145   5.002  1.0075  0.7094 -0.4264
19625TIP3    H280291   6.816   5.202   5.142 -0.1623  0.0298 -0.2795
19626TIP3   OH280292   5.888   0.427   1.948  0.6357  0.5850 -0.2157
19626TIP3    H180293   5.938   0.359   1.993  0.8389 -0.0296 -1.3509
19626TIP3    H280294   5.833   0.465   2.016  0.9405 -0.3272  0.5557
19627TIP3   OH280295   4.732   6.254   5.764  0.2473 -0.3348 -0.0376
19627TIP3    H180296   4.717   6.243   5.858 -0.9227 -0.0163 -0.1753
19627TIP3    H280297   4.757   6.167   5.734 -1.3947 -0.9229  0.2251
19628TIP3   OH280298   4.640   6.771   5.200  0.2320 -0.2432  0.9865
19628TIP3    H180299   4.668   6.711   5.270 -2.4828 -1.7290  0.8548
19628TIP3    H280300   4.591   6.716   5.139  0.2072  1.5793 -0.6768
19629TIP3   OH280301   0.305   2.390   4.529 -0.4097  0.3343  0.1603
19629TIP3    H180302   0.373   2.420   4.469 -0.5649 -0.3326 -0.3497
19629TIP3    H280303   0.224   2.392   4.477 -0.6727  0.4764  0.5687
19630TIP3   OH280304   0.502   0.790   5.048 -0.0528 -0.5251 -0.1934
19630TIP3    H180305   0.587   0.747   5.054 -0.3986 -1.0259  1.4892
19630TIP3    H280306   0.439   0.722   5.073 -0.8565  0.1348 -0.3896
19631TIP3   OH280307   6.937   6.681   3.857 -0.2023  0.4228  0.7487
19631TIP3    H180308   6.962   6.589   3.862  0.7306  0.7519  3.0819
19631TIP3    H280309   7.001   6.721   3.798  1.1258  0.0877  1.9303
19632TIP3   OH280310   0.060   0.256   5.955 -0.1005  0.1073 -0.3516
19632TIP3    H180311   0.121   0.279   6.025  1.1983 -0.4355 -1.2932
19632TIP3    H280312   0.115   0.241   5.878 -1.3981 -0.6256 -1.1641
19633TIP3   OH280313   5.541   0.870   3.529 -0.2836  0.1832 -0.0132
19633TIP3    H180314   5.551   0.855   3.435 -1.1340  1.4518 -0.3180
19633TIP3    H280315   5.630   0.867   3.563  0.3077  2.2855 -1.2717
19634TIP3   OH280316   7.269   0.281   5.640 -0.6152 -0.0092 -0.4750
19634TIP3    H180317   7.242   0.191   5.657  0.7990 -0.1137  1.3419
19634TIP3    H280318   7.237   0.330   5.716 -1.0573  0.9794 -1.2747
19635TIP3   OH280319   6.291   6.507   3.058 -0.4865 -0.2825  0.3962
19635TIP3    H180320   6.230   6.579   3.043 -1.0846 -0.6031  1.2355
19635TIP3    H280321   6.373   6.549   3.082 -0.6941  0.1329  0.3779
19636TIP3   OH280322   5.346   0.480   5.386 -0.0809 -0.5036  0.1295
19636TIP3    H180323   5.367   0.446   5.299 -2.1706  1.9215 -1.3884
19636TIP3    H280324   5.268   0.431   5.413  0.4708 -1.1388  0.6155
19637TIP3   OH280325   6.601   0.167   5.946  1.0099  0.1867 -0.4054
19637TIP3    H180326   6.658   0.094   5.922  0.1852 -0.6088  0.0073
19637TIP3    H280327   6.628   0.191   6.034  0.4458 -0.4592 -0.0514
19638TIP3   OH280328   5.680   4.235   3.378 -0.1767 -0.1367  0.3452
19638TIP3    H180329   5.599   4.231   3.429  0.0938 -3.6697  0.6208
19638TIP3    H280330   5.651   4.260   3.290 -1.4189 -0.3530  0.6754
19639TIP3   OH280331   7.037   2.035   3.416  0.1634  0.2975  0.2337
19639TIP3    H180332   7.026   2.043   3.510  0.0429  0.9311  0.1679
19639TIP3    H280333   7.102   2.102   3.394  1.3753 -0.9022  0.0950
19640TIP3   OH280334   6.532   0.717   5.634  0.4116 -0.2943 -0.2052
19640TIP3    H180335   6.595   0.774   5.679  0.2626  1.4134 -2.1073
19640TIP3    H280336   6.476   0.683   5.705  2.5166 -0.6604  1.3270
19641TIP3   OH280337   7.082   4.529   4.334  0.4721 -0.2401  0.1892
19641TIP3    H180338   7.129   4.521   4.417 -0.5172  1.2644  0.9179
19641TIP3    H280339   6.990   4.517   4.358  0.3683 -2.0601 -1.0530
19642TIP3   OH280340   6.767   0.199   4.355 -0.4346  0.7854  0.6289
19642TIP3    H180341   6.757   0.278   4.407 -1.8575  0.8731  0.2234
19642TIP3    H280342   6.771   0.128   4.419 -1.7228  0.9407  0.8897
19643TIP3   OH280343   5.006   6.919   5.624  0.5509  0.5210 -0.5441
19643TIP3    H180344   4.954   6.897   5.701  2.2609 -1.9960 -0.0821
19643TIP3    H280345   4.951   6.891   5.550 -0.6715  2.0531 -0.2540
19644TIP3   OH280346   5.031   0.442   3.393  0.0604 -0.4854  0.1598
19644TIP3    H180347   5.106   0.480   3.438  0.0635 -0.2732 -0.0271
19644TIP3    H280348   4.983   0.396   3.462  0.5689 -0.9477  0.2078
19645TIP3   OH280349   0.485   7.156   3.719 -0.6913 -0.1377  0.2258
19645TIP3    H180350   0.416   7.222   3.725  0.5814  1.4792 -2.0539
19645TIP3    H280351   0.566   7.205   3.737  0.1391 -1.4079  0.0114
19646TIP3   OH280352   6.794   6.103   3.549 -0.1835  0.0514 -0.2614
19646TIP3    H180353   6.852   6.179   3.543 -0.7048  0.4458 -0.3613
19646TIP3    H280354   6.719   6.127   3.495  1.1332 -1.9121 -3.0884
19647TIP3   OH280355   6.914   0.220   4.917  0.4601  0.3013  0.5271
19647TIP3    H180356   6.824   0.235   4.946  0.8745  2.4906  0.7822
19647TIP3    H280357   6.941   0.304   4.879  2.6134 -0.1222  1.0534
19648TIP3   OH280358   6.732   7.208   5.649 -0.6191 -0.3366  0.6269
19648TIP3    H180359   6.640   7.232   5.650 -0.8439 -1.1130 -0.4534
19648TIP3    H280360   6.760   7.217   5.740 -2.0425 -1.1528  1.1723
19649TIP3   OH280361   6.239   5.596   5.320  0.2289 -0.4954 -0.1689
19649TIP3    H180362   6.232   5.616   5.226 -0.3158 -0.7109 -0.1751
19649TIP3    H280363   6.256   5.681   5.361 -0.3232 -0.2764 -0.3845
19650TIP3   OH280364   6.328   6.094   3.481  0.6083 -0.5383 -0.5814
19650TIP3    H180365   6.257   6.064   3.536  0.7493  1.3434  0.6769
19650TIP3    H280366   6.401   6.035   3.500  0.0685 -1.0868 -0.2155
19651TIP3   OH280367   6.102   0.004   5.520  0.2627  0.3737  0.1846
19651TIP3    H180368   6.019   0.002   5.568  0.1373  0.2919 -0.0386
19651TIP3    H280369   6.136   0.092   5.535  0.5344  0.1421  0.9653
19652TIP3   OH280370   0.918   6.500   5.509  0.4046  0.5435  0.1323
19652TIP3    H180371   0.925   6.441   5.585 -1.8431 -0.9026 -0.7429
19652TIP3    H280372   1.006   6.535   5.498  1.7197 -2.3284  0.9547
19653TIP3   OH280373   6.762   4.563   5.387  0.4014 -0.1565  0.2316
19653TIP3    H180374   6.813   4.487   5.359 -1.7820 -1.8782  0.7396
19653TIP3    H280375   6.713   4.589   5.310  0.9211  0.5750  0.1414
19654TIP3   OH280376   5.902   5.598   5.143 -0.4219 -0.0774 -0.0912
19654TIP3    H180377   5.986   5.625   5.105  0.0102  0.0695  0.9437
19654TIP3    H280378   5.907   5.627   5.234 -2.8468  2.7417 -0.7500
19655TIP3   OH280379   5.780   0.104   4.445 -0.3602 -0.0644  0.3510
19655TIP3    H180380   5.761   0.010   4.441  0.3779 -0.2160  0.2261
19655TIP3    H280381   5.875   0.108   4.457 -0.5186  0.6487  1.4396
19656TIP3   OH280382   5.933   6.749   5.233 -0.1610 -0.2644  0.2670
19656TIP3    H180383   5.954   6.727   5.142  2.4348  0.7790  0.5628
19656TIP3    H280384   5.945   6.666   5.280  0.6140 -0.3191 -0.0183
19657TIP3   OH280385   5.007   7.198   4.921 -0.1285  0.1374 -0.6823
19657TIP3    H180386   4.990   7.284   4.881  2.0626  1.9450  2.0542
19657TIP3    H280387   4.963   7.202   5.006  1.0268 -0.9525 -0.0157
19658TIP3   OH280388   6.852   5.737   3.364  0.4971  0.8496  0.0712
19658TIP3    H180389   6.845   5.802   3.294  1.4912 -1.0698 -1.8523
19658TIP3    H280390   6.919   5.676   3.334  1.6307  0.5157  3.1632
19659TIP3   OH280391   0.254   0.955   3.357 -0.8455 -0.2520  0.0020
19659TIP3    H180392   0.336   0.955   3.308 -0.6684  2.9886  0.2062
19659TIP3    H280393   0.250   0.868   3.396  1.6582 -1.0459 -1.3738
19660TIP3   OH280394   5.028   4.216   3.739  0.1227 -0.1278  0.1019
19660TIP3    H180395   5.110   4.244   3.778  1.0495 -1.2997 -0.9650
19660TIP3    H280396   4.961   4.268   3.784  1.6356  2.7059 -0.7719
19661TIP3   OH280397   1.958   4.397   1.113 -0.1649 -0.0077 -0.4619
19661TIP3    H180398   1.944   4.309   1.149  0.9475  0.3864  0.9873
19661TIP3    H280399   1.912   4.455   1.172  0.8770  0.5615 -0.1952
19662TIP3   OH280400   6.372   4.350   3.138  0.1312 -0.6596 -0.0076
19662TIP3    H180401   6.301   4.292   3.109 -0.1944  0.4975 -1.6181
19662TIP3    H280402   6.444   4.332   3.077 -0.5286  1.7407 -1.5897
19663TIP3   OH280403   7.022   4.261   3.923 -0.0002  0.1202  0.1537
19663TIP3    H180404   7.021   4.243   4.017  0.4240  0.9704  0.3300
19663TIP3    H280405   7.097   4.319   3.911 -0.7121  0.9003 -0.5443
19664TIP3   OH280406   0.530   4.739   2.831  0.5314  0.3057  0.5010
19664TIP3    H180407   0.445   4.769   2.862  0.1118 -0.6926  0.3528
19664TIP3    H280408   0.542   4.783   2.747  0.4419  0.9340  0.8199
19665TIP3   OH280409   5.646   5.249   3.906 -0.0530 -0.2041 -0.3831
19665TIP3    H180410   5.618   5.207   3.988 -0.2862  1.0871  0.2071
19665TIP3    H280411   5.567   5.251   3.852 -0.2013  0.0801 -0.1559
19666TIP3   OH280412   6.615   4.682   6.068 -0.4179  0.0250 -0.0450
19666TIP3    H180413   6.537   4.729   6.097  2.1197  3.9339  0.9198
19666TIP3    H280414   6.617   4.696   5.973 -0.0045  1.4024  0.1573
19667TIP3   OH280415   5.511   4.654   4.384 -0.5682 -0.1468  0.5590
19667TIP3    H180416   5.430   4.696   4.413 -1.3046 -0.4663 -0.9809
19667TIP3    H280417   5.555   4.720   4.331 -0.6166 -0.5152  0.0496
19668TIP3   OH280418   1.740   6.437   5.375 -0.5125 -0.0772 -0.2920
19668TIP3    H180419   1.743   6.341   5.374  0.7464 -0.0482 -1.8447
19668TIP3    H280420   1.799   6.462   5.446 -0.2080 -0.4448 -0.4133
19669TIP3   OH280421   0.912   5.861   4.394 -0.2034  0.0668 -0.8268
19669TIP3    H180422   0.835   5.890   4.346 -0.4385  0.2678 -0.3310
19669TIP3    H280423   0.886   5.865   4.486  1.4322  3.2692 -0.4341
19670TIP3   OH280424   6.244   4.853   2.709 -0.0885 -0.6126 -0.5118
19670TIP3    H180425   6.256   4.761   2.683 -0.0450 -0.4204 -1.1763
19670TIP3    H280426   6.272   4.855   2.801  1.3256 -0.9662 -0.9146
19671TIP3   OH280427   6.525   4.833   3.526  0.1837  0.2592  0.1672
19671TIP3    H180428   6.594   4.844   3.460 -1.4576  2.6003 -1.2167
19671TIP3    H280429   6.566   4.858   3.609  1.9393 -1.6077 -0.0985
19672TIP3   OH280430   1.298   5.187   4.926 -0.2522  0.1961  0.2175
19672TIP3    H180431   1.236   5.130   4.880  0.1557  1.2301 -1.6615
19672TIP3    H280432   1.247   5.264   4.950 -0.6594 -0.6730  2.2497
19673TIP3   OH280433   3.458   4.224   3.798  0.4504  0.3810  0.3344
19673TIP3    H180434   3.544   4.260   3.817  0.4705  0.8595 -0.6551
19673TIP3    H280435   3.420   4.284   3.734  0.2721 -1.0559 -0.9223
19674TIP3   OH280436   6.374   7.121   5.087 -0.3888  0.5489 -0.5748
19674TIP3    H180437   6.339   7.143   5.173 -0.3691  3.0902 -1.1867
19674TIP3    H280438   6.380   7.205   5.041  0.8672 -0.5998 -2.5800
19675TIP3   OH280439   7.147   4.963   3.046 -0.1155  0.7639  0.6808
19675TIP3    H180440   7.159   4.876   3.084  0.4215  1.0103  1.0868
19675TIP3    H280441   7.236   4.998   3.039 -0.2510  0.8914 -0.3976
19676TIP3   OH280442   1.601   3.395   4.575  0.0566  0.4140 -0.5506
19676TIP3    H180443   1.673   3.342   4.542  0.9323  1.6791 -0.6956
19676TIP3    H280444   1.637   3.442   4.650 -1.1517 -0.3581  0.5342
19677TIP3   OH280445   6.484   1.618   4.080 -0.2902  0.4654 -0.2934
19677TIP3    H180446   6.431   1.538   4.080 -1.6225  1.3353 -0.6174
19677TIP3    H280447   6.494   1.640   4.173  2.0145 -1.3074 -0.0682
19678TIP3   OH280448   1.026   0.107   3.880 -0.1472 -0.1225  0.1814
19678TIP3    H180449   0.932   0.125   3.892 -0.4763 -1.4370 -0.3402
19678TIP3    H280450   1.069   0.163   3.945 -1.2130  1.3814 -0.3568
19679TIP3   OH280451   6.902   7.165   5.217 -0.5425  0.5843 -0.1149
19679TIP3    H180452   6.980   7.210   5.249  1.2048 -2.4966  0.1178
19679TIP3    H280453   6.906   7.078   5.257 -2.4507 -0.6884 -2.5267
19680TIP3   OH280454   6.842   6.402   3.788  0.1455 -0.1385 -0.0734
19680TIP3    H180455   6.749   6.395   3.809  0.5113  0.8118  1.9522
19680TIP3    H280456   6.846   6.475   3.726 -0.3182  0.5945  0.7551
19681TIP3   OH280457   6.137   6.494   5.020  0.2247 -0.0926 -0.1274
19681TIP3    H180458   6.131   6.493   5.116  1.7325  2.2160  0.0160
19681TIP3    H280459   6.209   6.434   5.000  0.2259 -0.2031  0.1989
19682TIP3   OH280460   6.112   5.835   3.550  0.3994  0.1384  0.1382
19682TIP3    H180461   6.080   5.756   3.594 -0.4049  0.2571 -0.2379
19682TIP3    H280462   6.205   5.837   3.571  0.0235  0.1902  1.8499
19683TIP3   OH280463   1.642   0.124   3.538 -0.2344  0.5224  0.6647
19683TIP3    H180464   1.688   0.208   3.543 -2.3204  1.6343  1.4168
19683TIP3    H280465   1.676   0.074   3.612  1.2822  0.5405  0.0064
19684TIP3   OH280466   2.069   1.582   3.671  0.0078 -0.2710  0.3084
19684TIP3    H180467   2.145   1.603   3.725 -0.7144  0.2352  1.1398
19684TIP3    H280468   2.022   1.514   3.720 -1.4974  1.3118  1.1064
19685TIP3   OH280469   4.702   7.250   5.016 -0.0261 -0.1076  0.0849
19685TIP3    H180470   4.627   7.214   5.064  0.1577 -1.6501 -0.7788
19685TIP3    H280471   4.772   7.255   5.080 -0.2174 -0.7596  0.3423
19686TIP3   OH280472   5.970   6.721   5.678  0.3370  0.3755  0.1867
19686TIP3    H180473   5.968   6.693   5.770  1.6821 -0.8208 -0.1240
19686TIP3    H280474   6.058   6.756   5.666  0.7361 -1.0258 -1.0773
19687TIP3   OH280475   7.124   6.160   4.069  0.2178  0.2875 -0.1075
19687TIP3    H180476   7.154   6.103   3.998 -1.4185  0.7492 -1.2134
19687TIP3    H280477   7.189   6.150   4.138 -0.3921 -3.4190 -0.0125
19688TIP3   OH280478   0.807   6.222   2.297 -0.0883  0.1428 -0.6129
19688TIP3    H180479   0.879   6.174   2.339 -3.0519 -2.9851  1.1032
19688TIP3    H280480   0.776   6.282   2.365  0.4702  1.0637 -1.1592
19689TIP3   OH280481   6.907   6.466   2.713 -0.0183 -0.0270  0.7263
19689TIP3    H180482   6.890   6.557   2.689  1.8475  0.7184  2.1584
19689TIP3    H280483   6.833   6.418   2.676 -1.7950  2.2411  1.2306
19690TIP3   OH280484   0.929   0.325   1.325  0.1571 -0.3240  0.5864
19690TIP3    H180485   0.964   0.274   1.252 -1.5718 -3.1460  1.6158
19690TIP3    H280486   1.003   0.337   1.384  1.9500  3.3077 -2.2300
19691TIP3   OH280487   4.562   4.364   5.040  0.2344 -0.3125 -0.2042
19691TIP3    H180488   4.650   4.396   5.021  0.5305 -1.2519 -0.4715
19691TIP3    H280489   4.548   4.294   4.975 -0.5847 -0.3644  0.0313
19692TIP3   OH280490   0.403   0.684   3.308  0.4810 -0.0108 -0.0168
19692TIP3    H180491   0.319   0.647   3.282  0.8723 -0.3401 -0.8470
19692TIP3    H280492   0.444   0.616   3.362  0.7957 -0.4134 -0.7554
19693TIP3   OH280493   6.964   0.882   3.992 -0.4863 -0.0419 -0.0304
19693TIP3    H180494   7.058   0.891   3.978 -0.5535 -0.7609 -0.9364
19693TIP3    H280495   6.928   0.967   3.966 -0.0688  0.3056  0.5190
19694TIP3   OH280496   6.300   6.219   2.725 -0.8620 -0.5601 -0.4336
19694TIP3    H180497   6.326   6.200   2.634 -0.8014 -0.1943 -0.4948
19694TIP3    H280498   6.374   6.268   2.761 -0.4913 -1.5205  0.1000
19695TIP3   OH280499   0.562   5.824   4.905  0.1319 -0.0639 -0.2932
19695TIP3    H180500   0.487   5.773   4.874  2.1815 -2.3176 -1.6964
19695TIP3    H280501   0.574   5.795   4.996  1.0459 -1.8927 -0.9622
19696TIP3   OH280502   5.724   4.616   4.533 -0.1798 -0.0660 -0.3432
19696TIP3    H180503   5.716   4.705   4.568 -1.0597 -0.0314 -0.6296
19696TIP3    H280504   5.642   4.601   4.485 -0.4352 -1.3760  0.4791
19697TIP3   OH280505   7.303   0.608   2.912 -0.1777 -0.1628  0.1942
19697TIP3    H180506   7.246   0.613   2.836  0.2188  0.0494 -0.0930
19697TIP3    H280507   7.346   0.523   2.904  0.6219  0.2898 -0.3688
19698TIP3   OH280508   6.489   3.260   3.818  0.2143  0.5374 -0.5364
19698TIP3    H180509   6.454   3.223   3.899  2.5189  1.1806  0.7896
19698TIP3    H280510   6.497   3.354   3.836 -0.3021  0.8679 -1.9197
19699TIP3   OH280511   0.447   0.967   4.609  0.2585  0.6224  0.0837
19699TIP3    H180512   0.418   0.892   4.556  0.0811 -0.7634  2.0712
19699TIP3    H280513   0.528   0.937   4.649  0.0648  1.4256  1.0700
19700TIP3   OH280514   4.021   0.476   4.399 -0.1916  0.4271 -0.9452
19700TIP3    H180515   4.026   0.388   4.361 -0.4642  0.0427 -0.0943
19700TIP3    H280516   3.928   0.492   4.411 -0.1035  0.5285 -0.3945
19701TIP3   OH280517   0.014   4.893   3.811  0.5310 -0.0858  0.0567
19701TIP3    H180518   0.101   4.893   3.772  0.5213  1.7006 -0.0055
19701TIP3    H280519   0.028   4.921   3.901  0.1306 -0.6841  0.3058
19702TIP3   OH280520   1.883   5.228   5.758 -0.2739  0.0746 -0.0597
19702TIP3    H180521   1.902   5.240   5.665 -0.0783  1.2649  0.1189
19702TIP3    H280522   1.821   5.299   5.778 -0.6730 -0.4619  0.6060
19703TIP3   OH280523   5.122   6.661   4.106  0.2644  0.5183 -0.1477
19703TIP3    H180524   5.034   6.652   4.142 -0.8927  2.0090 -2.4875
19703TIP3    H280525   5.129   6.591   4.042  1.2545 -0.3477  0.8878
19704TIP3   OH280526   6.276   6.823   3.497  0.5273  0.0329 -0.0159
19704TIP3    H180527   6.199   6.879   3.490 -0.7249 -1.5930  0.5082
19704TIP3    H280528   6.312   6.821   3.408  0.1271  1.0099 -0.2082
19705TIP3   OH280529   0.140   5.912   4.892  0.0826  0.3624  0.1887
19705TIP3    H180530   0.205   5.972   4.855  1.1695 -1.0136 -0.1551
19705TIP3    H280531   0.101   5.869   4.816  0.0965 -0.1918  0.4949
19706TIP3   OH280532   0.868   4.612   4.034  0.9216  0.5689 -0.1250
19706TIP3    H180533   0.908   4.659   4.107  3.0707 -1.5741  0.1286
19706TIP3    H280534   0.903   4.655   3.955  2.7262 -0.4233  0.1056
19707TIP3   OH280535   5.337   3.204   4.087 -0.4110  1.1915 -0.3808
19707TIP3    H180536   5.354   3.111   4.102 -2.8283  0.8742  0.6735
19707TIP3    H280537   5.312   3.239   4.172  0.9822  2.9491 -0.6588
19708TIP3   OH280538   6.908   4.637   1.430  0.4703  0.1516  0.4755
19708TIP3    H180539   6.963   4.562   1.406  0.9312 -0.1345  2.4079
19708TIP3    H280540   6.968   4.699   1.471 -0.2440  0.8258  0.5103
19709TIP3   OH280541   1.532   6.572   4.084  0.6887 -0.2999 -0.7880
19709TIP3    H180542   1.518   6.667   4.089  1.0464 -0.1844 -1.7646
19709TIP3    H280543   1.625   6.562   4.063  1.1202 -0.9400  1.3749
19710TIP3   OH280544   6.406   5.923   5.667  0.1738 -0.0483  0.5645
19710TIP3    H180545   6.434   5.993   5.608  0.6798 -1.1686 -0.5492
19710TIP3    H280546   6.329   5.886   5.626 -0.1646 -0.0859  1.2181
19711TIP3   OH280547   6.377   7.043   4.786 -0.0710  0.0212  0.0217
19711TIP3    H180548   6.435   7.096   4.731 -0.1231  0.5201  0.4444
19711TIP3    H280549   6.427   7.028   4.867 -1.4214  2.4427  1.3421
19712TIP3   OH280550   5.418   6.381   4.463 -0.6365  0.2787  0.1629
19712TIP3    H180551   5.364   6.439   4.409 -1.7309 -0.9380 -0.0913
19712TIP3    H280552   5.495   6.364   4.409 -1.0551  0.2342 -0.4403
19713TIP3   OH280553   1.359   6.518   4.509  0.5855 -0.6268  0.0341
19713TIP3    H180554   1.411   6.581   4.459 -0.5083 -1.0205 -1.6371
19713TIP3    H280555   1.291   6.489   4.448 -0.0186 -2.0678  1.3573
19714TIP3   OH280556   3.697   6.355   4.943  0.1559 -0.4986  0.1696
19714TIP3    H180557   3.617   6.305   4.925  0.2599 -0.9408  0.9123
19714TIP3    H280558   3.699   6.363   5.038  0.8813 -0.2992  0.1384
19715TIP3   OH280559   7.262   1.023   2.618 -0.2544  0.9370  0.6613
19715TIP3    H180560   7.349   1.057   2.637  0.3116  0.2002 -0.5004
19715TIP3    H280561   7.259   1.017   2.522 -1.4309  0.5687  0.7065
19716TIP3   OH280562   5.892   0.566   5.429  0.4559  0.2352  0.1862
19716TIP3    H180563   5.841   0.610   5.497  1.0847  0.4504  0.5241
19716TIP3    H280564   5.884   0.623   5.352 -1.1024 -0.5228 -0.2407
19717TIP3   OH280565   7.240   1.189   1.114  0.0007  0.1222  0.4125
19717TIP3    H180566   7.186   1.175   1.192 -0.1063 -1.0048  0.1329
19717TIP3    H280567   7.330   1.190   1.147 -0.0634  0.0022  0.5894
19718TIP3   OH280568   3.642   6.647   5.419 -1.0981  0.4421  0.2318
19718TIP3    H180569   3.718   6.675   5.471 -0.3527 -1.6855  0.3430
19718TIP3    H280570   3.593   6.728   5.403  1.3196  1.9006 -0.0590
19719TIP3   OH280571   5.533   5.020   2.319  0.0223 -0.0086 -0.2749
19719TIP3    H180572   5.590   5.056   2.387  1.0942 -0.3724 -0.9727
19719TIP3    H280573   5.559   5.064   2.239 -1.4131  0.5928 -0.4221
19720TIP3   OH280574   6.930   6.342   4.109 -0.0533  0.3990  0.2120
19720TIP3    H180575   7.006   6.285   4.098  0.2447  0.5333  1.5759
19720TIP3    H280576   6.888   6.342   4.023  0.2131 -1.4702  0.0699
19721TIP3   OH280577   0.860   0.100   6.024  0.4475  0.0966 -0.2129
19721TIP3    H180578   0.833   0.178   6.073 -1.1880 -1.2517  1.0991
19721TIP3    H280579   0.947   0.079   6.059  1.0070  1.4436 -0.7497
19722TIP3   OH280580   7.292   7.289   4.854  0.8958  0.1819 -0.7649
19722TIP3    H180581   7.291   7.384   4.869 -0.1383 -0.0027  0.3830
19722TIP3    H280582   7.348   7.255   4.924 -1.5107 -0.3812  0.9424
19723TIP3   OH280583   6.431   5.246   5.256 -0.1584 -0.6472 -0.0511
19723TIP3    H180584   6.392   5.211   5.176 -1.6690 -0.7024  0.6884
19723TIP3    H280585   6.508   5.191   5.271  2.6247  1.9875 -3.7381
19724TIP3   OH280586   7.126   6.863   3.681  0.2682  0.4781 -0.1570
19724TIP3    H180587   7.191   6.927   3.711  0.3263  0.0960  0.5322
19724TIP3    H280588   7.046   6.914   3.671  0.0973  0.4952  1.2324
19725TIP3   OH280589   6.743   4.677   5.102 -0.2061  0.7421 -0.2402
19725TIP3    H180590   6.837   4.668   5.089  0.0116  0.0031  1.6468
19725TIP3    H280591   6.728   4.771   5.107  0.8474  0.8192  2.1384
19726TIP3   OH280592   6.619   6.585   4.433 -0.6173  0.5355 -0.1784
19726TIP3    H180593   6.671   6.590   4.352 -1.2614  0.8750 -0.5731
19726TIP3    H280594   6.682   6.558   4.500  0.0972  1.0628 -0.6306
19727TIP3   OH280595   0.463   6.463   4.291  0.0610 -0.0069 -0.7188
19727TIP3    H180596   0.427   6.464   4.202 -0.2604 -0.8757 -0.6013
19727TIP3    H280597   0.418   6.535   4.336 -0.4493 -0.1454 -1.0030
19728TIP3   OH280598   6.112   6.089   5.543  0.0762 -0.9612  0.4686
19728TIP3    H180599   6.070   6.101   5.458 -0.7023 -1.3605  0.8034
19728TIP3    H280600   6.119   5.994   5.554  0.2539 -0.9106  0.8135
19729TIP3   OH280601   4.917   5.931   4.590 -0.5194 -0.2090 -0.2561
19729TIP3    H180602   4.947   5.978   4.668 -1.0719  0.4555 -0.4357
19729TIP3    H280603   4.892   6.000   4.529  0.6883 -0.7222 -1.3431
19730TIP3   OH280604   6.190   6.406   5.284 -0.2753  0.2111  0.1636
19730TIP3    H180605   6.214   6.475   5.346 -1.4381  1.7733 -1.0549
19730TIP3    H280606   6.217   6.325   5.326  3.8864  1.5911  0.3451
19731TIP3   OH280607   7.257   6.755   6.156 -0.3717  0.3532 -0.0449
19731TIP3    H180608   7.331   6.810   6.182  0.6042 -0.8919 -0.1269
19731TIP3    H280609   7.275   6.671   6.198 -1.7050  0.0135 -0.1465
19732TIP3   OH280610   4.742   5.588   4.859 -0.1588  0.3329  0.3381
19732TIP3    H180611   4.689   5.639   4.798  0.3649  0.7128  0.1992
19732TIP3    H280612   4.712   5.614   4.946 -0.3243  0.4149  0.2546
19733TIP3   OH280613   0.767   5.676   4.807 -0.2823 -0.4809 -0.2856
19733TIP3    H180614   0.801   5.753   4.762 -0.5841 -2.1193 -3.4288
19733TIP3    H280615   0.698   5.710   4.863 -0.1690  1.5787 -1.3504
19734TIP3   OH280616   6.860   5.381   5.405  0.1007 -0.3472 -0.4687
19734TIP3    H180617   6.830   5.290   5.411 -1.1717 -0.0004 -1.2393
19734TIP3    H280618   6.785   5.432   5.435 -0.1918  0.5618 -2.6798
19735TIP3   OH280619   6.859   0.112   5.574 -0.5174  0.0453 -0.2949
19735TIP3    H180620   6.847   0.130   5.481 -3.2403 -0.0475  0.0049
19735TIP3    H280621   6.806   0.034   5.591 -1.0260  0.7684  1.5756
19736TIP3   OH280622   7.176   6.909   5.182  0.3917  0.8635  0.0787
19736TIP3    H180623   7.145   6.916   5.092 -0.1070  0.5646  0.2254
19736TIP3    H280624   7.097   6.922   5.235  0.3349 -0.8747  0.4486
19737TIP3   OH280625   0.846   4.860   5.465  0.7044 -0.2005  0.1886
19737TIP3    H180626   0.894   4.800   5.522  0.4610 -1.2841 -0.7069
19737TIP3    H280627   0.873   4.834   5.376 -0.3393  0.2078 -0.2553
19738TIP3   OH280628   7.219   5.805   5.360 -0.0340  0.3492  0.4347
19738TIP3    H180629   7.124   5.796   5.364 -0.0261  0.2390  0.3802
19738TIP3    H280630   7.238   5.824   5.268  0.1092 -1.0077  0.1774
19739TIP3   OH280631   7.303   5.970   3.487  0.6362 -0.5577 -0.0448
19739TIP3    H180632   7.273   5.898   3.430 -0.0216  2.2468 -3.4347
19739TIP3    H280633   7.228   6.028   3.493  1.5403  0.4495  1.6571
19740TIP3   OH280634   5.485   4.793   3.952  0.2816 -0.0531 -0.1265
19740TIP3    H180635   5.559   4.826   4.003  0.1543  1.8254 -1.0961
19740TIP3    H280636   5.422   4.762   4.017  0.7104  1.0221  0.8180
19741TIP3   OH280637   5.747   6.467   4.813  0.4442  0.1641 -0.2592
19741TIP3    H180638   5.793   6.382   4.812  0.5935  0.2018  1.4198
19741TIP3    H280639   5.685   6.459   4.885 -0.7426  0.8895 -1.1821
19742TIP3   OH280640   4.199   4.576   1.465  0.3182 -0.3175 -0.2686
19742TIP3    H180641   4.166   4.572   1.554 -1.6207  1.0451 -0.8870
19742TIP3    H280642   4.202   4.484   1.436 -1.6333 -0.5779  0.2967
19743TIP3   OH280643   4.107   5.446   4.069 -0.3689 -0.0066  0.2743
19743TIP3    H180644   4.193   5.414   4.043 -0.6493 -0.2327 -0.3933
19743TIP3    H280645   4.052   5.368   4.069 -0.4283  0.0335  1.3210
19744TIP3   OH280646   0.872   6.154   1.487 -0.0385  0.7567 -0.2679
19744TIP3    H180647   0.790   6.105   1.482 -0.6553  1.8055 -0.3605
19744TIP3    H280648   0.899   6.147   1.579  0.3818 -0.5773 -0.4808
19745TIP3   OH280649   0.342   5.970   2.700 -0.0128 -0.0525  0.0361
19745TIP3    H180650   0.253   5.990   2.671  0.0608 -0.5477 -0.5280
19745TIP3    H280651   0.369   6.049   2.748 -0.2201  0.6899 -1.0381
19746TIP3   OH280652   0.329   5.595   3.662  0.2838 -0.3759 -0.0821
19746TIP3    H180653   0.252   5.649   3.678  0.2476 -0.4494 -0.0069
19746TIP3    H280654   0.328   5.530   3.733  1.6326  0.9711  1.2103
19747TIP3   OH280655   1.675   0.482   5.946  0.2971  0.0621  0.3439
19747TIP3    H180656   1.590   0.478   5.902  0.3833  0.5461  0.1328
19747TIP3    H280657   1.686   0.396   5.985  0.0453 -0.2467 -0.2609
19748TIP3   OH280658   6.739   0.640   5.426 -0.3051 -0.2133  0.1096
19748TIP3    H180659   6.678   0.711   5.403  1.0625  1.1467  0.6713
19748TIP3    H280660   6.682   0.571   5.459 -1.6691  0.5691 -0.5185
19749TIP3   OH280661   0.136   6.626   4.657  0.0914 -0.3821 -0.1332
19749TIP3    H180662   0.219   6.620   4.608 -0.3466  1.1811 -1.0681
19749TIP3    H280663   0.107   6.716   4.645 -1.1408 -0.5885  1.2151
19750TIP3   OH280664   5.153   7.142   5.545 -0.6439  0.9442 -0.3171
19750TIP3    H180665   5.118   7.081   5.610  2.7490 -1.8566 -0.9259
19750TIP3    H280666   5.218   7.194   5.593  0.9779 -0.2833 -1.1186
19751TIP3   OH280667   6.383   5.092   4.543  0.1865 -0.4852 -0.3190
19751TIP3    H180668   6.365   5.119   4.453  1.4086 -1.4773 -0.8719
19751TIP3    H280669   6.478   5.091   4.550  0.0992  0.2411  1.1969
19752TIP3   OH280670   4.743   4.003   3.924 -0.0228  0.2255  0.9717
19752TIP3    H180671   4.689   4.057   3.982  0.5962 -0.8601  2.6095
19752TIP3    H280672   4.738   4.046   3.839 -0.3291  2.3039  2.0052
19753TIP3   OH280673   0.484   3.751   3.762  0.2018  0.0503 -0.2160
19753TIP3    H180674   0.499   3.798   3.844 -0.5682 -1.3587  0.7529
19753TIP3    H280675   0.397   3.712   3.773  0.6675 -1.2622 -1.1483
19754TIP3   OH280676   6.358   5.704   4.096 -0.4399  0.6376  0.1843
19754TIP3    H180677   6.340   5.613   4.120 -0.8621  0.7815  0.4305
19754TIP3    H280678   6.343   5.754   4.177  0.2815  0.8682  0.1811
19755TIP3   OH280679   5.706   5.857   5.503 -0.0776 -0.0130  0.0893
19755TIP3    H180680   5.714   5.834   5.411 -0.6471  0.8258 -0.1726
19755TIP3    H280681   5.627   5.811   5.532 -0.5420  0.6321 -0.1345
19756TIP3   OH280682   0.537   6.041   4.408  0.2496 -0.5336 -0.0715
19756TIP3    H180683   0.623   6.026   4.370  1.3429  0.3323  2.0116
19756TIP3    H280684   0.538   5.995   4.492 -0.6351  1.0338  0.8243
19757TIP3   OH280685   6.932   4.708   2.664  0.0302  0.0554  0.1009
19757TIP3    H180686   6.923   4.680   2.755  1.4916 -1.9221 -0.3148
19757TIP3    H280687   6.977   4.635   2.621  1.2668  1.8476 -1.7429
19758TIP3   OH280688   0.411   4.551   4.164 -0.2397  0.3706 -0.1678
19758TIP3    H180689   0.332   4.498   4.155  1.9787 -3.5441  2.0481
19758TIP3    H280690   0.454   4.544   4.079  0.3704 -2.0249  0.3166
19759TIP3   OH280691   1.647   5.121   2.319 -0.2579 -0.0070  0.5222
19759TIP3    H180692   1.562   5.130   2.363 -0.7759  0.5111 -0.5694
19759TIP3    H280693   1.632   5.058   2.249  0.3434 -0.1745  0.5419
19760TIP3   OH280694   6.953   7.250   3.850 -0.9869 -0.0136  0.2646
19760TIP3    H180695   7.046   7.238   3.867 -0.8989 -0.6984 -0.6458
19760TIP3    H280696   6.911   7.173   3.889 -1.2784  0.7925  1.5517
19761TIP3   OH280697   0.262   7.000   3.910 -0.1883  0.4356  0.2104
19761TIP3    H180698   0.272   6.948   3.831 -1.0856 -1.4488  1.3030
19761TIP3    H280699   0.183   7.052   3.894 -0.3501  0.0850 -0.1521
19762TIP3   OH280700   6.137   6.618   3.599  0.3108 -0.0507 -0.3921
19762TIP3    H180701   6.181   6.541   3.562  1.5003  0.7966 -0.7901
19762TIP3    H280702   6.181   6.693   3.558 -1.8194  0.8335 -1.1322
19763TIP3   OH280703   0.992   6.099   3.050  0.2784 -0.5036  0.0762
19763TIP3    H180704   0.971   6.184   3.088  1.6484 -0.7381  1.4135
19763TIP3    H280705   0.908   6.053   3.045 -0.2811  0.4533  0.5553
19764TIP3   OH280706   1.558   6.060   2.870  0.3840 -0.0868  0.3561
19764TIP3    H180707   1.591   6.142   2.833  0.3202 -0.4374 -0.4912
19764TIP3    H280708   1.466   6.058   2.846  0.7168 -1.1047 -0.9116
19765TIP3   OH280709   6.863   6.808   3.367  0.1366  0.2714 -0.3059
19765TIP3    H180710   6.768   6.809   3.359  0.0827  0.9308  0.3584
19765TIP3    H280711   6.882   6.868   3.440  1.0031 -0.5156  0.1361
19766TIP3   OH280712   5.206   3.939   2.204 -0.5705  0.1304  0.7860
19766TIP3    H180713   5.300   3.925   2.206 -0.7858 -1.8013 -0.4716
19766TIP3    H280714   5.191   3.999   2.131 -0.2213  1.5177  1.8342
19767TIP3   OH280715   6.876   3.763   5.464  0.3572  0.0372  0.1546
19767TIP3    H180716   6.954   3.818   5.456  1.4248 -1.5978 -0.8809
19767TIP3    H280717   6.905   3.688   5.516 -0.8286 -0.0444  0.7142
19768TIP3   OH280718   6.511   5.355   3.903  0.1016  0.2408  0.2812
19768TIP3    H180719   6.605   5.345   3.918  0.0864 -1.2107 -0.4809
19768TIP3    H280720   6.504   5.431   3.845  0.8215  0.2044  0.1366
19769TIP3   OH280721   0.339   0.495   6.044  0.1101  0.3251 -0.0033
19769TIP3    H180722   0.384   0.576   6.019 -0.5052  0.0373 -2.1625
19769TIP3    H280723   0.277   0.523   6.112  1.3040  1.2936  0.7027
19770TIP3   OH280724   0.749   0.690   5.149 -0.0539 -0.0641 -0.0896
19770TIP3    H180725   0.789   0.776   5.162  0.2656 -0.6195  2.9770
19770TIP3    H280726   0.800   0.631   5.204 -1.8824 -1.7180 -0.0916
19771TIP3   OH280727   0.294   2.932   3.980 -0.1711  0.1215 -0.0489
19771TIP3    H180728   0.330   3.021   3.984 -1.4101  0.6218  0.1453
19771TIP3    H280729   0.199   2.944   3.974 -0.3556 -1.1910 -0.0130
19772TIP3   OH280730   2.578   2.358   5.619 -0.2748 -0.8649 -0.8354
19772TIP3    H180731   2.660   2.338   5.664 -0.8444 -1.8210 -0.1939
19772TIP3    H280732   2.566   2.284   5.559 -1.9644 -2.0654  0.9259
19773TIP3   OH280733   1.502   0.974   5.496 -0.2708 -0.1312  0.1530
19773TIP3    H180734   1.552   0.913   5.441 -0.9224 -0.0149 -0.5649
19773TIP3    H280735   1.411   0.947   5.486 -0.2830 -0.8635  2.1161
19774TIP3   OH280736   1.029   0.354   6.283 -0.3740  0.5348  0.0852
19774TIP3    H180737   1.051   0.271   6.240  1.8092  1.8265 -1.4381
19774TIP3    H280738   0.942   0.376   6.251  0.0879  0.0793 -1.5519
19775TIP3   OH280739   1.105   0.753   6.454  0.0478 -0.0615 -0.0723
19775TIP3    H180740   1.070   0.779   6.539 -0.9858  1.1017 -0.8418
19775TIP3    H280741   1.199   0.743   6.469 -0.0654  0.5356  1.0992
19776TIP3   OH280742   0.184   7.173   4.684 -0.1720  0.0206  0.0831
19776TIP3    H180743   0.141   7.100   4.639  0.0448  0.2154 -0.4356
19776TIP3    H280744   0.114   7.213   4.736 -0.1303 -1.0022  0.9414
19777TIP3   OH280745   1.790   0.423   6.380 -0.1848 -0.3999  0.2483
19777TIP3    H180746   1.699   0.442   6.405  0.0298  1.8915 -0.6310
19777TIP3    H280747   1.827   0.380   6.457 -1.4990  0.2562  1.2691
19778TIP3   OH280748   1.689   1.163   5.428  0.5364 -0.1875 -0.0159
19778TIP3    H180749   1.717   1.202   5.510  2.1273 -2.1986  0.4193
19778TIP3    H280750   1.642   1.084   5.453  1.7342 -1.2538 -1.0494
19779TIP3   OH280751   1.901   1.740   5.340 -0.3125 -0.2731  0.5209
19779TIP3    H180752   1.978   1.733   5.283 -1.1762 -0.8049 -0.5965
19779TIP3    H280753   1.828   1.715   5.284 -1.3417  0.5637  1.4860
19780TIP3   OH280754   1.092   0.414   6.542 -0.2352 -0.2161  0.5906
19780TIP3    H180755   1.062   0.407   6.451  2.0941 -0.6273 -0.1676
19780TIP3    H280756   1.162   0.479   6.539  0.9217 -1.3780  1.8256
19781TIP3   OH280757   0.596   2.708   4.557 -0.3260  0.5161  0.0366
19781TIP3    H180758   0.664   2.677   4.616 -0.3110  1.2392  0.3953
19781TIP3    H280759   0.628   2.685   4.469  0.1561  0.4357  0.2337
19782TIP3   OH280760   0.367   1.141   5.119  0.3396 -0.2131  0.3848
19782TIP3    H180761   0.317   1.096   5.186  1.3943  0.4068  1.6024
19782TIP3    H280762   0.381   1.076   5.050  2.4924 -1.9792  2.4448
19783TIP3   OH280763   2.774   0.267   5.910 -0.5425  0.4981 -0.1539
19783TIP3    H180764   2.853   0.220   5.882  0.1193  0.9530  0.9169
19783TIP3    H280765   2.771   0.345   5.855  0.9220  1.5418  1.1909
19784TIP3   OH280766   6.724   1.487   5.923  0.1419 -0.2761  0.5082
19784TIP3    H180767   6.757   1.574   5.946  0.7622  0.0015 -1.3266
19784TIP3    H280768   6.792   1.426   5.951  0.6758  0.0208 -0.1206
19785TIP3   OH280769   1.771   1.231   5.693 -0.4437  0.3319 -0.9070
19785TIP3    H180770   1.866   1.227   5.689 -0.4183  0.7399 -0.7632
19785TIP3    H280771   1.748   1.194   5.778 -0.5181 -1.2933 -1.6205
19786TIP3   OH280772   7.157   2.113   5.139 -0.3104 -0.1029  0.1875
19786TIP3    H180773   7.183   2.205   5.147 -0.7634  0.0797 -0.4861
19786TIP3    H280774   7.240   2.066   5.130 -0.0734  0.2293  0.5864
19787TIP3   OH280775   2.134   7.126   5.802  0.0235  0.3668 -0.6763
19787TIP3    H180776   2.051   7.131   5.755 -0.8518 -1.4776  0.6349
19787TIP3    H280777   2.152   7.033   5.810 -0.4651  0.5459  3.6736
19788TIP3   OH280778   6.787   0.476   5.008 -0.3903 -0.2453 -0.6193
19788TIP3    H180779   6.823   0.512   5.089 -1.1649  0.9869 -0.8090
19788TIP3    H280780   6.764   0.386   5.030  0.2720 -0.1940  0.2691
19789TIP3   OH280781   0.694   0.089   6.297 -0.0557 -0.2240  0.6821
19789TIP3    H180782   0.759   0.036   6.343 -0.9349 -1.2957  0.7086
19789TIP3    H280783   0.617   0.033   6.291 -0.7152  0.7400 -0.0643
19790TIP3   OH280784   6.945   0.570   5.228  0.1503  0.2761  0.3211
19790TIP3    H180785   7.028   0.614   5.211  0.4221  1.0400  3.2875
19790TIP3    H280786   6.900   0.627   5.291 -1.5249 -1.3841  0.6804
19791TIP3   OH280787   1.394   0.955   6.068 -0.1379  0.0735  0.2860
19791TIP3    H180788   1.413   1.021   6.135  1.2424  1.6378 -1.5932
19791TIP3    H280789   1.305   0.974   6.040  0.0230  0.7526  0.2161
19792TIP3   OH280790   2.818   0.224   6.194  0.5189  0.0620 -0.5424
19792TIP3    H180791   2.786   0.133   6.195 -0.5761  0.4412  0.4389
19792TIP3    H280792   2.837   0.242   6.102 -1.4964 -0.4009 -1.0639
19793TIP3   OH280793   2.737   0.544   6.275 -0.1520  0.1766  0.1999
19793TIP3    H180794   2.725   0.451   6.253 -2.0695  0.5262 -0.2814
19793TIP3    H280795   2.652   0.572   6.309  1.2282  1.0415  3.0854
19794TIP3   OH280796   3.328   6.569   4.744  0.2235 -0.0987 -0.6148
19794TIP3    H180797   3.286   6.655   4.740 -0.8160 -0.6182 -1.1726
19794TIP3    H280798   3.411   6.584   4.790  0.1212  1.2250 -0.8529
19795TIP3   OH280799   1.585   1.010   4.800 -0.2492 -0.1501  0.3977
19795TIP3    H180800   1.608   1.096   4.836  1.2462 -0.7122  0.8006
19795TIP3    H280801   1.511   1.028   4.741  0.3919  1.4956  0.0719
19796TIP3   OH280802   2.803   1.011   6.354 -0.2553  0.3135  0.1033
19796TIP3    H180803   2.726   1.049   6.311  0.3785  2.8962  1.1509
19796TIP3    H280804   2.777   1.002   6.445  0.3607  0.2836  0.2768
19797TIP3   OH280805   1.830   6.898   4.487 -0.5794  0.3774 -0.1523
19797TIP3    H180806   1.785   6.972   4.527 -2.3020 -0.7280  0.0125
19797TIP3    H280807   1.825   6.828   4.552 -1.5632 -0.7822 -1.4323
19798TIP3   OH280808   2.299   6.889   4.566 -0.3148  0.3167  0.1644
19798TIP3    H180809   2.222   6.945   4.567 -0.3194  0.3037  0.5262
19798TIP3    H280810   2.373   6.949   4.558 -0.1725  0.5404  2.7751
19799TIP3   OH280811   2.405   0.743   5.302 -0.4308  0.1388 -0.6098
19799TIP3    H180812   2.395   0.659   5.346 -1.8696  1.3790  1.5784
19799TIP3    H280813   2.316   0.765   5.272  0.1522  0.3193 -2.2372
19800TIP3   OH280814   4.328   1.329   4.603  0.3071 -0.0652  0.4015
19800TIP3    H180815   4.302   1.414   4.638 -1.3621 -0.6131  0.5073
19800TIP3    H280816   4.309   1.335   4.509  1.0089 -0.0206  0.2599
19801TIP3   OH280817   3.651   0.634   5.519 -0.5783 -0.4642 -0.1407
19801TIP3    H180818   3.590   0.639   5.593  0.9856 -1.6090  1.2640
19801TIP3    H280819   3.698   0.717   5.522 -2.5080  0.7226 -1.6582
19802TIP3   OH280820   3.130   0.819   6.190 -0.2436 -0.2700 -0.3567
19802TIP3    H180821   3.113   0.871   6.269 -0.5747  1.3606 -1.4766
19802TIP3    H280822   3.047   0.778   6.170 -0.2594 -0.3796 -0.0585
19803TIP3   OH280823   6.485   7.301   5.648  0.1526 -0.0035  0.6191
19803TIP3    H180824   6.443   7.327   5.566  1.8539 -0.4296 -0.4118
19803TIP3    H280825   6.450   7.362   5.714  0.2214  1.5703 -0.7760
19804TIP3   OH280826   4.865   0.758   5.615  0.3630 -0.1144  0.3088
19804TIP3    H180827   4.854   0.851   5.594  0.7237  0.0614  0.8759
19804TIP3    H280828   4.819   0.748   5.698  0.0871 -0.5069  0.1074
19805TIP3   OH280829   4.207   0.579   4.886 -0.3870  0.4540  0.3308
19805TIP3    H180830   4.122   0.544   4.859  0.2822 -0.9164 -0.0480
19805TIP3    H280831   4.189   0.670   4.910 -2.0191  0.0810  0.5761
19806TIP3   OH280832   5.868   1.388   6.219 -0.3632  0.0862  0.3852
19806TIP3    H180833   5.834   1.299   6.219 -0.5787  0.1702  0.2074
19806TIP3    H280834   5.942   1.386   6.158 -1.8497  0.6101 -1.4649
19807TIP3   OH280835   0.376   1.301   5.884  0.6261  0.4048 -0.1393
19807TIP3    H180836   0.318   1.376   5.876 -0.6924 -0.4720  1.0230
19807TIP3    H280837   0.454   1.336   5.929  0.4318  1.2798 -0.4781
19808TIP3   OH280838   0.298   1.948   5.415  0.0859 -0.7434 -0.5608
19808TIP3    H180839   0.304   1.923   5.508 -0.5403 -0.1059 -0.3411
19808TIP3    H280840   0.205   1.969   5.403  0.1256 -1.0428 -1.3914
19809TIP3   OH280841   0.817   0.160   4.687 -0.3504  0.0042 -0.0310
19809TIP3    H180842   0.784   0.122   4.606  1.3127  0.4773 -0.9638
19809TIP3    H280843   0.821   0.254   4.669  1.7016 -0.0632 -0.0436
19810TIP3   OH280844   6.328   1.656   6.314  0.3293 -0.3970  0.0031
19810TIP3    H180845   6.288   1.569   6.318 -1.9301  0.5815 -0.5413
19810TIP3    H280846   6.415   1.641   6.280  0.8168 -2.7296  2.1192
19811TIP3   OH280847   5.664   3.221   4.090  0.0164  0.4029  0.1868
19811TIP3    H180848   5.720   3.207   4.167  0.4865  0.2842 -0.1799
19811TIP3    H280849   5.576   3.226   4.126  0.2534  0.5228  0.7598
19812TIP3   OH280850   0.605   1.555   5.647  0.6113  0.3321  0.3642
19812TIP3    H180851   0.657   1.502   5.708 -0.9561 -0.0887  1.3666
19812TIP3    H280852   0.627   1.520   5.561  0.0701 -1.5729  0.9621
19813TIP3   OH280853   0.408   0.882   5.670  0.4547 -0.7076 -0.0982
19813TIP3    H180854   0.423   0.795   5.709 -1.4309 -0.6146  0.8863
19813TIP3    H280855   0.409   0.866   5.576  1.4256 -1.5696  0.0437
19814TIP3   OH280856   6.637   1.956   4.242 -0.4409 -0.0372 -0.6500
19814TIP3    H180857   6.610   1.867   4.267  0.8475 -0.0124  0.9360
19814TIP3    H280858   6.557   2.008   4.249 -1.2602 -1.1033 -1.8360
19815TIP3   OH280859   6.386   0.829   6.455  0.1981 -0.4859  0.4772
19815TIP3    H180860   6.436   0.838   6.536  0.8477  0.1360  0.0142
19815TIP3    H280861   6.453   0.822   6.387 -0.3279 -1.7753  0.0659
19816TIP3   OH280862   0.858   1.761   4.359 -0.1938  0.0679 -0.3588
19816TIP3    H180863   0.802   1.694   4.398 -0.5767  0.4084 -0.3227
19816TIP3    H280864   0.934   1.766   4.417 -0.1227 -0.4015 -0.4119
19817TIP3   OH280865   4.289   1.338   5.080 -0.0729  0.3412  0.6728
19817TIP3    H180866   4.305   1.432   5.067 -2.0879  0.7411  0.8789
19817TIP3    H280867   4.359   1.309   5.138  0.7337  1.6631  0.3662
19818TIP3   OH280868   0.694   1.604   3.838  0.2332 -0.3518 -0.5500
19818TIP3    H180869   0.721   1.670   3.903 -1.6944  0.5834 -0.6339
19818TIP3    H280870   0.724   1.521   3.874  1.8023  0.4608  0.0787
19819TIP3   OH280871   7.125   0.019   5.309  0.1648 -0.3628 -0.1370
19819TIP3    H180872   7.207   0.034   5.261  0.3495 -0.8114  0.0310
19819TIP3    H280873   7.087   0.106   5.320  0.3344 -0.2108 -0.7249
19820TIP3   OH280874   5.928   0.305   6.136  0.0368  0.3985 -0.3156
19820TIP3    H180875   5.937   0.260   6.052 -3.1312  1.0092 -1.0448
19820TIP3    H280876   5.950   0.239   6.201  1.8750 -0.2828 -1.5901
19821TIP3   OH280877   4.163   6.507   4.616 -0.1147  0.0223 -0.2961
19821TIP3    H180878   4.098   6.514   4.686  0.1732  0.7558 -0.0946
19821TIP3    H280879   4.240   6.553   4.650  0.5209 -0.8638 -0.5246
19822TIP3   OH280880   6.559   1.507   5.473 -0.4783  0.3654 -0.1329
19822TIP3    H180881   6.550   1.438   5.539  0.4831  1.2992  0.9894
19822TIP3    H280882   6.514   1.472   5.396  0.7157 -1.8551  0.1475
19823TIP3   OH280883   1.096   1.731   5.127 -0.1177 -0.3444  0.2380
19823TIP3    H180884   1.109   1.761   5.037  0.2300  1.5204  0.8849
19823TIP3    H280885   1.024   1.668   5.122  1.0670 -1.5903 -1.5894
19824TIP3   OH280886   1.116   2.747   6.230 -0.3224 -0.6855  0.6136
19824TIP3    H180887   1.186   2.711   6.284 -1.7779 -2.7518  1.2071
19824TIP3    H280888   1.124   2.704   6.146  0.1545  0.3532  0.1189
19825TIP3   OH280889   1.664   3.846   6.009 -0.3792 -0.6802 -0.7421
19825TIP3    H180890   1.585   3.844   6.063  0.0955  0.5791  0.0241
19825TIP3    H280891   1.658   3.927   5.959  1.2497  0.3536  0.6427
19826TIP3   OH280892   0.549   4.409   4.984  0.1611 -0.1135 -0.0685
19826TIP3    H180893   0.526   4.317   4.971 -0.4881 -0.0063  0.3169
19826TIP3    H280894   0.496   4.437   5.058 -0.0589  0.7291 -0.5339
19827TIP3   OH280895   0.404   2.153   5.732  0.0594  0.3268 -0.0710
19827TIP3    H180896   0.484   2.195   5.699 -0.0996 -0.9892 -2.1568
19827TIP3    H280897   0.431   2.117   5.817  1.6971 -0.0977 -0.7426
19828TIP3   OH280898   0.283   4.283   5.740 -0.4624  0.0285  0.3790
19828TIP3    H180899   0.273   4.219   5.670  0.2633 -0.5050  0.7571
19828TIP3    H280900   0.338   4.239   5.805  0.0596  1.0408  0.6307
19829TIP3   OH280901   0.550   3.165   6.242 -0.4836  0.1956 -0.0213
19829TIP3    H180902   0.623   3.226   6.258 -0.4207  0.2597 -0.5611
19829TIP3    H280903   0.550   3.108   6.319 -1.4080  1.7435  1.1721
19830TIP3   OH280904   0.010   5.384   3.085 -0.2199  0.4236  0.2899
19830TIP3    H180905   0.087   5.335   3.115  1.0432  0.7592 -2.2415
19830TIP3    H280906   0.036   5.476   3.091 -1.1577  0.6400  1.2552
19831TIP3   OH280907   0.562   3.310   6.654  0.8623  0.0451  0.2609
19831TIP3    H180908   0.542   3.235   6.599  1.6882  0.1037 -0.1196
19831TIP3    H280909   0.477   3.349   6.673  0.5829  0.0906 -1.0626
19832TIP3   OH280910   0.246   2.464   6.334  0.1610 -0.3409 -0.5966
19832TIP3    H180911   0.185   2.535   6.313  0.9500  0.2664 -0.8566
19832TIP3    H280912   0.331   2.508   6.346  0.6612 -1.2401 -0.8014
19833TIP3   OH280913   1.459   3.928   5.546 -0.0203 -0.2843 -0.2700
19833TIP3    H180914   1.394   3.897   5.483 -1.1799  0.4266  0.5615
19833TIP3    H280915   1.412   3.930   5.630  0.6071  1.7832  0.0575
19834TIP3   OH280916   0.794   3.271   6.298  0.3909 -0.4803 -0.1251
19834TIP3    H180917   0.782   3.255   6.391  0.0843  1.0631  0.1123
19834TIP3    H280918   0.887   3.255   6.282  0.5402 -0.2778  0.5499
19835TIP3   OH280919   6.780   5.055   6.034  0.0754 -0.3670 -0.4718
19835TIP3    H180920   6.859   5.012   6.001 -0.0496 -0.8119 -0.2019
19835TIP3    H280921   6.810   5.109   6.107  0.3988  0.8618 -1.4952
19836TIP3   OH280922   1.392   3.486   6.192  0.0005 -0.2161  0.0534
19836TIP3    H180923   1.456   3.433   6.239  1.4753  1.5589  0.1496
19836TIP3    H280924   1.307   3.452   6.218  0.8572 -0.9303  1.9840
19837TIP3   OH280925   0.524   1.321   3.905 -0.1637 -0.1568  0.5147
19837TIP3    H180926   0.619   1.322   3.913  0.0006  2.0457 -1.2665
19837TIP3    H280927   0.492   1.325   3.995  1.4057 -0.6810  1.1119
19838TIP3   OH280928   2.261   2.353   5.720 -0.4268 -0.1244 -0.1326
19838TIP3    H180929   2.356   2.336   5.718 -0.5827 -0.8653 -2.3508
19838TIP3    H280930   2.249   2.407   5.798  2.1062  1.5654 -0.8251
19839TIP3   OH280931   1.631   1.237   5.974  0.2797 -0.1702 -0.2375
19839TIP3    H180932   1.603   1.326   5.956  1.7983  0.2382 -0.6469
19839TIP3    H280933   1.583   1.212   6.053 -1.6369  0.2907 -1.2171
19840TIP3   OH280934   1.184   3.810   6.197 -0.9435 -0.0284 -0.5948
19840TIP3    H180935   1.147   3.899   6.193 -0.9832 -0.0200 -0.1066
19840TIP3    H280936   1.127   3.758   6.141 -0.2768  0.4783 -1.7649
19841TIP3   OH280937   0.398   3.347   6.105  0.2522 -0.3817 -0.3329
19841TIP3    H180938   0.310   3.353   6.141  0.5498 -0.0850  0.3357
19841TIP3    H280939   0.437   3.271   6.149  0.8417  0.3747  0.4487
19842TIP3   OH280940   3.379   3.438   4.945 -0.3539 -0.2331 -0.0584
19842TIP3    H180941   3.460   3.392   4.928  0.1998  0.7179 -0.0391
19842TIP3    H280942   3.374   3.444   5.040 -0.2240  0.0901 -0.0703
19843TIP3   OH280943   3.031   7.127   4.164 -0.4730  0.1270  0.0794
19843TIP3    H180944   2.969   7.143   4.092 -0.3841 -1.5601 -0.4002
19843TIP3    H280945   3.117   7.143   4.126 -0.5269  1.1093  0.3571
19844TIP3   OH280946   1.906   1.731   6.182  0.2775  0.3716  0.2402
19844TIP3    H180947   1.824   1.699   6.143  1.0071 -0.1196 -0.9103
19844TIP3    H280948   1.907   1.824   6.160 -1.1530  0.9407  2.3749
19845TIP3   OH280949   0.754   3.010   6.484  0.2335 -0.0825  0.0027
19845TIP3    H180950   0.788   3.073   6.548 -0.2013  0.3648 -0.2011
19845TIP3    H280951   0.663   2.996   6.510  1.0593 -2.7103  1.6690
19846TIP3   OH280952   1.943   3.353   4.976 -0.2798 -0.2703  0.1930
19846TIP3    H180953   1.910   3.358   4.886 -0.7808 -0.6247  0.3599
19846TIP3    H280954   1.892   3.418   5.024 -0.4420 -0.5204  0.3588
19847TIP3   OH280955   1.498   1.935   4.565 -0.1721 -0.0763  0.1260
19847TIP3    H180956   1.587   1.970   4.577 -0.7653  1.3002  0.6953
19847TIP3    H280957   1.492   1.863   4.628  0.0564  0.7804  1.1474
19848TIP3   OH280958   2.528   2.540   5.392 -0.0806  0.8121  0.1949
19848TIP3    H180959   2.504   2.629   5.369  0.2125  1.0887  0.9338
19848TIP3    H280960   2.472   2.518   5.467 -0.0119  0.4497  0.1421
19849TIP3   OH280961   3.643   4.338   3.981 -0.5893 -0.0401 -0.5780
19849TIP3    H180962   3.627   4.284   4.058 -1.4525 -1.9252 -2.0523
19849TIP3    H280963   3.736   4.324   3.961 -1.0758 -1.8535 -1.6017
19850TIP3   OH280964   3.380   3.347   6.058  0.6263 -0.4254  0.6141
19850TIP3    H180965   3.376   3.281   5.990  3.5722  1.2978 -1.3180
19850TIP3    H280966   3.464   3.332   6.102  0.4230  0.8009  1.4581
19851TIP3   OH280967   1.350   2.650   5.089 -0.0608 -0.3907  0.3157
19851TIP3    H180968   1.423   2.624   5.144  0.0425  0.7807  0.7535
19851TIP3    H280969   1.390   2.693   5.014 -0.2177 -1.6881 -0.5331
19852TIP3   OH280970   1.845   3.589   5.549  0.1137  0.1836  0.1964
19852TIP3    H180971   1.917   3.633   5.505 -0.6172  0.3321 -0.8677
19852TIP3    H280972   1.857   3.496   5.529 -1.4656  0.4590 -2.2148
19853TIP3   OH280973   2.855   1.991   5.062 -0.3715 -0.4148  0.0110
19853TIP3    H180974   2.810   2.074   5.072  1.4322  0.6598 -0.5543
19853TIP3    H280975   2.815   1.950   4.985 -1.0732  0.0660  0.1257
19854TIP3   OH280976   3.460   1.640   4.459 -0.7540 -0.6015 -0.0368
19854TIP3    H180977   3.466   1.546   4.446  1.4268 -0.4994  0.0323
19854TIP3    H280978   3.541   1.663   4.503 -1.2560  1.3241 -0.0709
19855TIP3   OH280979   3.720   2.305   6.194  0.0233  0.3478  0.1745
19855TIP3    H180980   3.693   2.217   6.167  1.8779  0.7358 -3.2347
19855TIP3    H280981   3.773   2.291   6.272  3.1494 -1.9848 -2.2213
19856TIP3   OH280982   1.445   2.032   5.378 -0.8713 -0.0203 -0.1173
19856TIP3    H180983   1.505   2.095   5.339  0.2052 -1.1168 -0.2507
19856TIP3    H280984   1.373   2.025   5.315 -1.3911  1.6656  0.2744
19857TIP3   OH280985   4.316   3.932   4.889 -0.1366 -0.2994  0.1751
19857TIP3    H180986   4.269   3.913   4.970  0.8518 -0.5511  0.6995
19857TIP3    H280987   4.247   3.938   4.823 -0.8287 -1.7915  0.7190
19858TIP3   OH280988   5.367   2.414   6.041  0.9012  0.2690  0.2375
19858TIP3    H180989   5.397   2.346   6.101  0.2070 -1.1678 -1.0260
19858TIP3    H280990   5.394   2.384   5.955 -2.6298 -0.2451 -0.7550
19859TIP3   OH280991   4.682   3.070   5.024  0.6358 -0.4781  0.1092
19859TIP3    H180992   4.745   3.038   5.089 -0.6161 -1.2045  0.9897
19859TIP3    H280993   4.596   3.051   5.062 -0.1230 -0.4005 -1.5106
19860TIP3   OH280994   4.540   3.536   4.439  0.2005 -0.1278  0.0467
19860TIP3    H180995   4.522   3.521   4.532  0.4455  1.7774  0.4342
19860TIP3    H280996   4.484   3.611   4.416  1.0583  0.2002 -1.0113
19861TIP3   OH280997   3.890   3.385   6.270  0.3806 -0.0260  0.1315
19861TIP3    H180998   3.913   3.315   6.331  2.1302  0.6641  0.3178
19861TIP3    H280999   3.960   3.384   6.205  0.5375  1.6501  0.2449
19862TIP3   OH281000   4.802   2.916   5.266 -0.0997  0.2265  0.8035
19862TIP3    H181001   4.769   2.957   5.346  1.5001 -0.6950  1.9740
19862TIP3    H281002   4.897   2.910   5.280  0.3420  1.0126 -1.6190
19863TIP3   OH281003   4.400   3.754   5.941 -0.5069  0.0716  0.3640
19863TIP3    H181004   4.340   3.687   5.974  0.2223 -0.4233  0.6673
19863TIP3    H281005   4.412   3.814   6.014  0.2975 -0.4693  0.6810
19864TIP3   OH281006   3.199   2.322   5.074 -0.4134  1.1116 -0.0916
19864TIP3    H181007   3.113   2.328   5.032 -0.6819 -0.3972  0.1961
19864TIP3    H281008   3.190   2.250   5.137  1.7561 -0.7333 -1.7912
19865TIP3   OH281009   5.076   3.002   5.288 -0.1788 -0.3445 -0.2045
19865TIP3    H181010   5.037   3.067   5.345 -0.8553 -0.9674  0.0502
19865TIP3    H281011   5.078   3.043   5.201  0.3300  0.3860  0.1537
19866TIP3   OH281012   4.416   0.936   5.003  0.2128  0.4829  0.0789
19866TIP3    H181013   4.348   0.889   5.051  0.7046  0.4705  0.7680
19866TIP3    H281014   4.371   0.974   4.928  0.0880 -2.4366 -1.4031
19867TIP3   OH281015   3.295   3.085   5.361  0.2557  0.2717 -0.6126
19867TIP3    H181016   3.224   3.126   5.411 -0.2145 -0.6733 -0.4992
19867TIP3    H281017   3.366   3.076   5.423 -0.4310 -1.1750 -0.0135
19868TIP3   OH281018   3.809   0.901   5.456 -0.8965  0.1830 -0.2409
19868TIP3    H181019   3.713   0.912   5.456 -0.7831  1.2222 -0.8336
19868TIP3    H281020   3.837   0.932   5.370 -0.0734 -0.7006 -0.3081
19869TIP3   OH281021   4.863   4.990   4.257 -0.4412 -0.1292  0.1176
19869TIP3    H181022   4.843   4.948   4.341  0.8129 -2.4319 -0.6723
19869TIP3    H281023   4.876   5.082   4.279  1.4972 -0.9455  2.7832
19870TIP3   OH281024   4.059   4.388   5.465 -0.0793  0.2713  0.5886
19870TIP3    H181025   4.081   4.305   5.509  0.1035 -0.2783 -0.5349
19870TIP3    H281026   3.980   4.368   5.415 -0.0237  0.7820  0.3047
19871TIP3   OH281027   6.193   2.558   5.903  0.3620 -0.0337 -0.2551
19871TIP3    H181028   6.198   2.603   5.819 -0.4979 -1.4055 -1.0578
19871TIP3    H281029   6.277   2.511   5.911  0.2733 -0.2409 -0.5444
19872TIP3   OH281030   5.906   1.999   5.808 -0.9094 -0.0659  0.3575
19872TIP3    H181031   5.944   2.008   5.896 -0.9672 -2.3427  0.6387
19872TIP3    H281032   5.852   2.078   5.797 -1.9399 -0.3732  2.9024
19873TIP3   OH281033   0.570   2.605   5.219 -0.2453  0.1301  0.2355
19873TIP3    H181034   0.543   2.692   5.191  0.4532  0.0205 -0.7998
19873TIP3    H281035   0.666   2.607   5.214 -0.2913 -1.1917 -1.3001
19874TIP3   OH281036   0.310   5.332   5.826  0.4027  0.5695  0.4602
19874TIP3    H181037   0.278   5.422   5.826 -1.9184 -0.2211 -0.4773
19874TIP3    H281038   0.303   5.303   5.917  0.1281  0.9849  0.5703
19875TIP3   OH281039   6.682   5.020   4.809 -0.4056 -0.0829  0.3408
19875TIP3    H181040   6.778   5.024   4.806 -0.3695  0.1306  1.6145
19875TIP3    H281041   6.661   4.933   4.775  0.1709  0.3059 -1.0541
19876TIP3   OH281042   6.628   1.739   5.384 -0.8477 -0.8895 -0.4013
19876TIP3    H181043   6.599   1.658   5.425  1.7784 -1.1248  1.1400
19876TIP3    H281044   6.578   1.808   5.428 -0.0566 -1.3822  1.3297
19877TIP3   OH281045   7.038   4.941   5.971  0.0023 -0.1607 -0.2339
19877TIP3    H181046   7.103   4.890   6.019 -0.5279 -1.0451 -0.4604
19877TIP3    H281047   7.086   5.019   5.943  0.0411  0.9074  2.6570
19878TIP3   OH281048   5.813   3.693   5.001  0.1085 -0.0704 -0.1602
19878TIP3    H181049   5.792   3.781   4.971  0.2445 -0.2419 -0.7547
19878TIP3    H281050   5.759   3.636   4.946 -0.6787 -0.3107  0.8461
19879TIP3   OH281051   0.240   3.032   3.024 -0.4906 -0.6089  0.3621
19879TIP3    H181052   0.286   2.953   2.997  1.7249  1.1407 -1.2850
19879TIP3    H281053   0.261   3.041   3.117  1.4288 -0.5961 -0.0452
19880TIP3   OH281054   0.565   2.910   5.839 -0.5782  0.1186  0.5188
19880TIP3    H181055   0.575   2.824   5.799  1.2257 -0.0866  1.3670
19880TIP3    H281056   0.653   2.947   5.839 -1.2966  1.8579  0.3997
19881TIP3   OH281057   5.866   4.011   5.780  0.1978  0.1686  0.4399
19881TIP3    H181058   5.844   4.037   5.870 -0.0929  0.8359  0.1818
19881TIP3    H281059   5.952   4.050   5.765 -0.4649  1.4553 -0.1270
19882TIP3   OH281060   6.423   4.651   6.395 -0.6085 -0.1289  0.3012
19882TIP3    H181061   6.399   4.716   6.328  0.4921 -1.4564 -1.4186
19882TIP3    H281062   6.433   4.569   6.347  0.0196 -1.1626  2.1369
19883TIP3   OH281063   6.917   3.835   6.130 -0.3376  0.0453 -0.5368
19883TIP3    H181064   6.991   3.869   6.180 -0.6993  1.5760 -1.0265
19883TIP3    H281065   6.876   3.771   6.188  1.2512 -0.6768 -0.1850
19884TIP3   OH281066   6.803   5.406   4.179  0.0184 -0.0310  0.6510
19884TIP3    H181067   6.808   5.371   4.268  1.2748  0.3219  0.7341
19884TIP3    H281068   6.760   5.491   4.190  2.8351  1.3752  1.3740
19885TIP3   OH281069   5.287   4.545   5.341 -0.4378 -0.0585  0.4021
19885TIP3    H181070   5.343   4.542   5.418  0.2734  2.0938 -0.0058
19885TIP3    H281071   5.245   4.459   5.339  1.0154 -0.8418  2.0652
19886TIP3   OH281072   6.076   3.898   5.556 -0.4894  0.5584  0.2098
19886TIP3    H181073   6.121   3.951   5.622 -0.1132 -1.3464  1.5382
19886TIP3    H281074   6.130   3.905   5.478  2.1282 -1.6006  1.7494
19887TIP3   OH281075   6.330   1.637   5.474  0.3574 -0.3914 -0.7434
19887TIP3    H181076   6.299   1.577   5.541 -1.1435  1.0715 -0.1256
19887TIP3    H281077   6.411   1.674   5.510  0.0880 -0.3544 -0.1850
19888TIP3   OH281078   0.084   3.512   3.274  0.4679  0.1197 -0.1112
19888TIP3    H181079   0.052   3.554   3.195 -0.8077 -0.5402  0.0511
19888TIP3    H281080   0.169   3.474   3.249  0.6308  0.9550 -0.8227
19889TIP3   OH281081   2.284   4.850   5.528 -0.3158 -0.1399 -0.1629
19889TIP3    H181082   2.317   4.912   5.594  1.4932  0.6572 -1.7793
19889TIP3    H281083   2.342   4.775   5.535 -1.2792 -0.8399  0.4162
19890TIP3   OH281084   6.031   4.585   6.055 -0.0636  0.3735  0.2589
19890TIP3    H181085   5.942   4.618   6.068  0.2004  0.4729  1.9006
19890TIP3    H281086   6.087   4.655   6.089  0.6339  0.1952 -0.5197
19891TIP3   OH281087   1.686   5.115   5.979 -0.0452 -0.7252 -0.0661
19891TIP3    H181088   1.734   5.196   5.962  0.0288 -0.5633  0.9050
19891TIP3    H281089   1.743   5.046   5.947  0.6417 -0.5014  0.6629
19892TIP3   OH281090   1.256   5.285   5.617  0.0870  0.2521  0.1332
19892TIP3    H181091   1.246   5.320   5.705  0.4555  0.3072  0.1554
19892TIP3    H281092   1.247   5.190   5.626  0.3358  0.2405  0.2630
19893TIP3   OH281093   0.059   4.577   2.871 -0.3162  0.0291 -0.1419
19893TIP3    H181094  -0.015   4.636   2.882 -0.5654 -0.3876  0.4472
19893TIP3    H281095   0.061   4.525   2.952  0.2339 -0.3895 -0.4183
19894TIP3   OH281096   6.928   6.043   5.229 -0.4494 -0.3081  0.1337
19894TIP3    H181097   6.925   6.052   5.134 -1.7096 -1.2901  0.0627
19894TIP3    H281098   6.923   6.133   5.262 -1.9436 -0.0581 -0.7028
19895TIP3   OH281099   2.553   6.479   5.085  0.0231 -0.2705  0.2990
19895TIP3    H181100   2.600   6.524   5.015  1.6233  0.5641  1.8843
19895TIP3    H281101   2.613   6.410   5.114  0.3917  0.9269  2.4671
19896TIP3   OH281102   2.736   5.350   5.769  0.0429  0.5396 -0.1732
19896TIP3    H181103   2.734   5.351   5.673 -1.3093  2.3188 -0.1494
19896TIP3    H281104   2.812   5.404   5.792 -0.9238  1.9478 -0.2358
19897TIP3   OH281105   1.601   3.421   6.348 -0.6037  0.5823 -0.0257
19897TIP3    H181106   1.689   3.457   6.341 -0.4740 -0.0286 -1.7080
19897TIP3    H281107   1.584   3.416   6.442  1.2549  0.4453  0.3098
19898TIP3   OH281108   0.020   4.888   4.379  0.0405 -0.1852  0.3263
19898TIP3    H181109  -0.032   4.963   4.405  0.5885  0.7150 -1.1123
19898TIP3    H281110   0.095   4.888   4.440  0.0811  0.4852  0.2764
19899TIP3   OH281111   0.214   4.757   3.425  0.4676  0.0148 -0.5233
19899TIP3    H181112   0.199   4.668   3.457  0.4211 -0.2678 -1.3233
19899TIP3    H281113   0.131   4.802   3.441  0.2145 -0.3181 -0.8761
19900TIP3   OH281114   0.883   3.925   5.492  0.4624  0.7810  0.2716
19900TIP3    H181115   0.851   3.998   5.440 -1.6581  0.5484  1.2077
19900TIP3    H281116   0.926   3.966   5.568 -3.7509  1.1283  2.6005
19901TIP3   OH281117   4.742   5.262   5.655 -0.1719 -0.0073 -0.0572
19901TIP3    H181118   4.680   5.234   5.723  1.7717 -0.0490  1.7570
19901TIP3    H281119   4.822   5.213   5.674  1.2777  2.0367 -0.7080
19902TIP3   OH281120   3.337   5.311   4.321 -0.2954 -0.4648  0.3904
19902TIP3    H181121   3.428   5.310   4.350 -0.1962 -0.3133  0.0875
19902TIP3    H281122   3.342   5.308   4.225 -0.6384 -1.6605  0.4066
19903TIP3   OH281123   3.196   5.224   5.333  0.3455  0.2905 -0.3394
19903TIP3    H181124   3.264   5.164   5.301  0.2081 -0.2112  0.3025
19903TIP3    H281125   3.143   5.170   5.391  0.8927  1.3248  1.1440
19904TIP3   OH281126   1.754   4.400   6.005  0.0149 -0.2473 -0.1657
19904TIP3    H181127   1.781   4.332   6.066  2.8754 -0.0922 -1.1751
19904TIP3    H281128   1.804   4.478   6.032 -1.7653  0.9196 -0.1880
19905TIP3   OH281129   3.240   3.092   4.507  0.1094 -0.6270  0.1154
19905TIP3    H181130   3.240   3.030   4.581  0.0704  0.8250  1.3561
19905TIP3    H281131   3.327   3.082   4.468  1.4646  1.1140  2.5536
19906TIP3   OH281132   1.996   4.461   5.409  0.0490 -0.2629  0.4322
19906TIP3    H181133   2.041   4.480   5.491 -0.7184 -2.9100  1.5288
19906TIP3    H281134   2.066   4.437   5.348  0.8184  3.6123 -0.3557
19907TIP3   OH281135   2.369   3.719   5.373  0.0688  0.0033  0.7262
19907TIP3    H181136   2.293   3.672   5.340 -1.0630  0.7031  2.3224
19907TIP3    H281137   2.442   3.687   5.319 -1.0580 -1.8782  0.2909
19908TIP3   OH281138   2.150   3.198   4.639  0.0358  0.2822 -0.1282
19908TIP3    H181139   2.146   3.103   4.637 -3.3531  0.3948 -1.0827
19908TIP3    H281140   2.232   3.218   4.685  1.9196 -3.0504 -1.8872
19909TIP3   OH281141   1.768   4.280   4.746 -0.0657  0.5267  0.2135
19909TIP3    H181142   1.817   4.231   4.681  0.7848  1.5766  0.0470
19909TIP3    H281143   1.713   4.215   4.789 -1.3495 -0.0492 -2.1802
19910TIP3   OH281144   2.547   4.110   5.334 -0.0795 -0.2164 -0.1097
19910TIP3    H181145   2.555   4.091   5.427  1.5825  1.6423  0.1412
19910TIP3    H281146   2.480   4.048   5.303  2.1765 -3.6209  1.4938
19911TIP3   OH281147   3.045   2.188   6.134  0.1744 -0.1325 -0.7812
19911TIP3    H181148   3.063   2.249   6.205 -0.5507  1.5752 -2.0157
19911TIP3    H281149   3.106   2.214   6.064  0.2957 -1.2236 -1.0815
19912TIP3   OH281150   6.972   3.515   5.329  0.0932 -0.2199 -0.1670
19912TIP3    H181151   6.933   3.479   5.409  0.1302  2.8843  1.3075
19912TIP3    H281152   6.899   3.558   5.284  0.9596  2.0633  0.5554
19913TIP3   OH281153   5.294   4.803   6.305 -0.4151  0.9938  0.0309
19913TIP3    H181154   5.247   4.886   6.314 -0.6625  0.8656 -0.0453
19913TIP3    H281155   5.385   4.824   6.321 -0.4974  1.2559  0.1523
19914TIP3   OH281156   4.474   4.613   6.134 -0.3566  0.1753 -0.0221
19914TIP3    H181157   4.382   4.605   6.157 -0.6086 -0.8797 -1.3598
19914TIP3    H281158   4.480   4.696   6.086 -0.7611 -0.2146 -0.7337
19915TIP3   OH281159   5.077   5.172   6.608 -0.9895 -0.5875  0.1142
19915TIP3    H181160   5.104   5.145   6.696  2.3473  2.2979  0.0942
19915TIP3    H281161   5.050   5.263   6.618  1.0639  0.3102 -2.0984
19916TIP3   OH281162   4.233   4.878   6.114 -0.6055 -0.2642 -0.0352
19916TIP3    H181163   4.284   4.873   6.194  2.6798  1.5540 -1.8975
19916TIP3    H281164   4.216   4.787   6.090 -1.4169 -0.8269  2.5511
19917TIP3   OH281165   4.550   5.226   5.829  0.2449  0.3766  0.0073
19917TIP3    H181166   4.468   5.225   5.779  0.9299  1.5469 -1.1817
19917TIP3    H281167   4.527   5.190   5.914 -1.4180  0.3086 -0.4526
19918TIP3   OH281168   4.220   5.794   5.974 -0.5045  0.7757  0.2742
19918TIP3    H181169   4.299   5.819   6.023 -0.6216  1.4434  0.1336
19918TIP3    H281170   4.150   5.846   6.015 -0.4977  1.8130 -1.0090
19919TIP3   OH281171   6.672   5.100   5.334  0.4201  0.0653 -0.2531
19919TIP3    H181172   6.760   5.066   5.354  0.7680  0.8782 -0.3930
19919TIP3    H281173   6.631   5.112   5.419  0.7980  0.6090 -0.1429
19920TIP3   OH281174   5.217   3.762   6.094  0.3550 -0.3367 -0.2670
19920TIP3    H181175   5.304   3.742   6.129  0.2944  0.9571  0.6338
19920TIP3    H281176   5.157   3.741   6.165  0.0775  0.4658 -0.2650
19921TIP3   OH281177   4.533   4.792   5.594 -0.3643  0.3135 -0.4831
19921TIP3    H181178   4.478   4.781   5.671  0.2867 -1.9007 -0.2942
19921TIP3    H281179   4.525   4.709   5.547  1.1897  0.7206 -1.4906
19922TIP3   OH281180   4.961   6.069   5.390 -0.4750  0.1664  0.0393
19922TIP3    H181181   4.868   6.093   5.382 -0.5159 -0.3857 -1.2362
19922TIP3    H281182   4.960   5.974   5.402 -0.0685  0.1520 -0.0468
19923TIP3   OH281183   3.814   4.047   6.423  0.2366 -0.3702 -0.3419
19923TIP3    H181184   3.827   4.142   6.433 -1.1746 -0.1158 -0.8065
19923TIP3    H281185   3.724   4.039   6.391  0.0013 -1.9397  0.7166
19924TIP3   OH281186   4.042   4.035   5.883  0.2941  0.0389 -0.0813
19924TIP3    H181187   4.073   3.947   5.862 -0.6454  0.1268 -1.8553
19924TIP3    H281188   3.995   4.023   5.966  2.5318 -0.5971  1.1745
19925TIP3   OH281189   4.382   7.145   2.653 -0.0060 -0.7009  0.8038
19925TIP3    H181190   4.432   7.197   2.590 -1.0332  1.6699  1.8832
19925TIP3    H281191   4.349   7.071   2.602 -0.3376  0.8430 -1.3060
19926TIP3   OH281192   6.808   5.541   5.862 -0.1674 -0.5111 -0.2450
19926TIP3    H181193   6.884   5.577   5.909 -1.3803  1.7968  0.0187
19926TIP3    H281194   6.741   5.609   5.870 -1.8944 -2.0473 -1.4442
19927TIP3   OH281195   5.744   3.298   5.348 -1.1276  0.4964  0.6458
19927TIP3    H181196   5.764   3.305   5.442 -1.3738  1.2047  0.6419
19927TIP3    H281197   5.699   3.379   5.326 -1.3322  0.2079 -0.0281
19928TIP3   OH281198   5.712   6.130   5.932  0.1269  0.2816  0.0325
19928TIP3    H181199   5.779   6.064   5.952  0.0369 -0.3814 -1.7480
19928TIP3    H281200   5.683   6.108   5.843 -2.4606  0.5548  0.7745
19929TIP3   OH281201   0.483   4.866   3.103 -0.5976 -0.9462 -0.0897
19929TIP3    H181202   0.518   4.818   3.029 -0.4203 -1.2231  0.1726
19929TIP3    H281203   0.390   4.842   3.106 -0.3802 -1.7197  0.3919
19930TIP3   OH281204   5.760   4.658   5.737  0.0292 -0.2204  0.1804
19930TIP3    H181205   5.728   4.597   5.803  1.4505 -1.4808 -0.2769
19930TIP3    H281206   5.854   4.664   5.754  0.2922 -0.0452 -1.3355
19931TIP3   OH281207   6.069   4.403   4.391  0.2874 -0.2837 -0.0366
19931TIP3    H181208   6.058   4.488   4.434 -0.4186 -0.1160 -0.5299
19931TIP3    H281209   6.105   4.425   4.305  0.9981 -0.5553  0.1956
19932TIP3   OH281210   4.947   3.342   4.966 -0.7867  0.1520  0.0354
19932TIP3    H181211   4.922   3.276   4.902 -0.5165 -0.1550  0.2472
19932TIP3    H281212   5.009   3.398   4.920 -1.7236  0.8121 -0.4363
19933TIP3   OH281213   6.886   4.934   4.404 -0.5681 -0.0942  0.2547
19933TIP3    H181214   6.936   4.880   4.465  2.3510  1.9322 -0.2477
19933TIP3    H281215   6.861   4.875   4.334  0.5922 -1.2790  0.8351
19934TIP3   OH281216   5.768   4.788   4.871 -0.5195 -0.0438 -0.1214
19934TIP3    H181217   5.754   4.860   4.811 -1.0067  0.3367  0.4503
19934TIP3    H281218   5.721   4.714   4.832  0.9434 -0.3795 -1.3085
19935TIP3   OH281219   0.888   0.272   4.262  0.2768  0.5410  0.3770
19935TIP3    H181220   0.971   0.293   4.219  0.8902  0.3034  1.4252
19935TIP3    H281221   0.909   0.201   4.322 -0.6424  0.6208  0.8075
19936TIP3   OH281222   6.960   5.089   5.291  0.4035 -0.3173 -0.3826
19936TIP3    H181223   7.031   5.115   5.350 -0.5508 -1.1217  1.1797
19936TIP3    H281224   6.930   5.005   5.326 -2.1119  0.5981 -0.2369
19937TIP3   OH281225   5.153   4.714   6.060 -0.0223 -0.4893 -0.7805
19937TIP3    H181226   5.180   4.624   6.075  1.5553 -0.3413 -2.5246
19937TIP3    H281227   5.193   4.763   6.132 -0.3805 -1.0777 -0.1720
19938TIP3   OH281228   0.514   5.615   5.776  0.9168  0.3472 -0.2130
19938TIP3    H181229   0.433   5.597   5.825  1.0725  0.9200  0.2673
19938TIP3    H281230   0.509   5.557   5.701  1.2154 -1.3662  1.0534
19939TIP3   OH281231   5.849   3.711   5.800 -0.3468  0.4569  0.3781
19939TIP3    H181232   5.873   3.800   5.775  3.2424 -0.4484  0.2544
19939TIP3    H281233   5.798   3.721   5.880  0.6281  2.5683  0.7715
19940TIP3   OH281234   4.988   4.134   5.903 -0.2088  0.2855 -0.2112
19940TIP3    H181235   5.056   4.145   5.836  1.2659  1.4019  1.4164
19940TIP3    H281236   4.945   4.220   5.908  0.3659  0.5211  0.9555
19941TIP3   OH281237   6.305   5.691   6.279  0.0708  0.4281 -0.1178
19941TIP3    H181238   6.334   5.756   6.214 -1.8512 -0.0251 -1.4853
19941TIP3    H281239   6.265   5.744   6.349  1.8975  0.9039  0.5886
19942TIP3   OH281240   1.445   7.053   5.793  0.3066 -0.4561 -0.5630
19942TIP3    H181241   1.381   6.983   5.805  0.5539 -0.4454  0.8188
19942TIP3    H281242   1.440   7.104   5.873  2.4023 -0.7233 -0.2549
19943TIP3   OH281243   1.683   0.397   6.665  0.0415 -0.2332  0.4516
19943TIP3    H181244   1.622   0.335   6.705 -0.2312 -0.8018 -0.8060
19943TIP3    H281245   1.628   0.457   6.615  0.4972 -0.9976 -1.0276
19944TIP3   OH281246   7.288   5.422   3.850  0.6782  0.4642 -0.4837
19944TIP3    H181247   7.357   5.386   3.906  0.0785  0.2338  0.1107
19944TIP3    H281248   7.272   5.510   3.886  0.0383  0.1783 -0.0574
19945TIP3   OH281249   0.143   6.517   6.374 -0.2491  0.0386 -0.1037
19945TIP3    H181250   0.163   6.425   6.359  1.1563  0.0290  1.6631
19945TIP3    H281251   0.189   6.563   6.304 -2.7707 -0.7138 -2.3308
19946TIP3   OH281252   0.755   6.455   4.938 -0.1715  0.2243  0.1605
19946TIP3    H181253   0.766   6.539   4.983 -0.7518  1.0304 -1.1647
19946TIP3    H281254   0.685   6.471   4.874 -0.5023 -1.3540  0.0948
19947TIP3   OH281255   2.100   0.148   5.140  0.1923 -0.4546 -0.2292
19947TIP3    H181256   2.078   0.200   5.063  0.5772 -0.5136 -0.3777
19947TIP3    H281257   2.109   0.212   5.211  1.1388 -0.2659 -0.5117
19948TIP3   OH281258   1.310   2.428   3.894 -0.2914  0.0105  0.0178
19948TIP3    H181259   1.366   2.361   3.853  0.3222  0.1328  0.6473
19948TIP3    H281260   1.228   2.382   3.911 -0.0253 -0.4715  0.0439
19949TIP3   OH281261   1.539   5.182   5.637  0.2969  0.1755  0.3769
19949TIP3    H181262   1.513   5.162   5.547 -2.5534 -1.0030  1.3988
19949TIP3    H281263   1.517   5.275   5.648 -0.2939  0.0584  0.1773
19950TIP3   OH281264   1.924   6.403   5.573 -0.4568 -0.2831 -0.2794
19950TIP3    H181265   2.001   6.374   5.523 -0.3866  0.6709 -0.7271
19950TIP3    H281266   1.949   6.489   5.608 -0.2848 -1.1732  1.8951
19951TIP3   OH281267   1.238   6.131   5.845 -0.1147  0.2145  0.0544
19951TIP3    H181268   1.280   6.053   5.810  0.3710  0.6347 -0.3088
19951TIP3    H281269   1.165   6.098   5.898 -0.6896 -0.4260 -1.1160
19952TIP3   OH281270   6.839   1.160   3.945 -0.0462 -0.5647 -0.6333
19952TIP3    H181271   6.834   1.184   4.038  1.8164 -0.1301 -0.6299
19952TIP3    H281272   6.932   1.164   3.924 -0.6794  2.2570 -3.2840
19953TIP3   OH281273   0.598   5.736   5.166 -0.1425 -0.1836 -0.1341
19953TIP3    H181274   0.678   5.715   5.215  0.0287 -0.4654 -0.5278
19953TIP3    H281275   0.534   5.673   5.199  0.6188 -1.9939 -1.9658
19954TIP3   OH281276   0.344   5.979   5.977  0.6709 -0.2673 -0.2973
19954TIP3    H181277   0.286   5.972   5.901 -0.4885  0.9748  0.4659
19954TIP3    H281278   0.327   5.899   6.027 -1.3727  0.7055  0.6074
19955TIP3   OH281279   3.440   6.398   5.894 -0.2395  0.3306  0.4981
19955TIP3    H181280   3.412   6.483   5.930 -0.1336  1.6533 -2.4455
19955TIP3    H281281   3.532   6.411   5.872  0.1102 -0.9713  1.1532
19956TIP3   OH281282   2.745   5.826   3.872 -0.6186  0.0204  0.2431
19956TIP3    H181283   2.738   5.738   3.836 -0.0325  0.1357 -0.1688
19956TIP3    H281284   2.761   5.813   3.966 -0.6557 -0.3095  0.2032
19957TIP3   OH281285   1.902   4.987   5.872  0.0223  0.0656 -0.4210
19957TIP3    H181286   1.904   5.081   5.855  1.6093  0.0823 -0.1673
19957TIP3    H281287   1.935   4.947   5.792 -0.1433 -0.2552 -0.3297
19958TIP3   OH281288   2.849   6.905   6.291  0.1317  0.2050  0.2247
19958TIP3    H181289   2.850   6.817   6.253 -1.7276 -1.1838  3.2129
19958TIP3    H281290   2.768   6.944   6.257 -0.0533  0.0301  0.4638
19959TIP3   OH281291   2.883   6.757   5.935 -0.0362 -0.5435  0.1778
19959TIP3    H181292   2.805   6.812   5.935 -0.8449 -1.6645 -0.1299
19959TIP3    H281293   2.872   6.700   6.011  2.3374  1.8108  2.4163
19960TIP3   OH281294   3.505   6.936   4.518  0.3507 -0.1352  0.0009
19960TIP3    H181295   3.425   6.896   4.484 -1.0212  0.8328  2.0120
19960TIP3    H281296   3.563   6.862   4.536 -0.6802 -0.9546  0.0086
19961TIP3   OH281297   3.290   7.030   4.932 -0.3318  0.7501  0.0701
19961TIP3    H181298   3.377   7.030   4.974  0.7805 -2.4654 -2.1053
19961TIP3    H281299   3.264   7.122   4.932  3.2793  1.8458  0.3802
19962TIP3   OH281300   3.914   7.062   6.107  0.3871 -0.1963 -0.1677
19962TIP3    H181301   3.911   6.967   6.103  1.8254 -0.2697  0.0764
19962TIP3    H281302   3.823   7.089   6.121  0.0502 -1.5637  0.3488
19963TIP3   OH281303   1.878   6.399   5.998  0.1844  0.4829  0.0742
19963TIP3    H181304   1.922   6.353   5.926  2.0837  0.0637  1.4763
19963TIP3    H281305   1.813   6.337   6.030 -0.3899  0.5154 -0.9853
19964TIP3   OH281306   2.235   6.744   5.350  0.1189 -0.3020  0.0741
19964TIP3    H181307   2.190   6.820   5.387  1.7046  0.6762  0.0234
19964TIP3    H281308   2.289   6.710   5.421 -1.2654 -1.9550  0.3701
19965TIP3   OH281309   2.221   6.397   2.748 -0.3611 -0.1993  0.5543
19965TIP3    H181310   2.247   6.316   2.705 -0.1232  0.3900 -0.4284
19965TIP3    H281311   2.287   6.410   2.816  0.6280  0.1114 -0.4621
19966TIP3   OH281312   3.432   0.159   4.389 -0.2534  0.2032  0.5847
19966TIP3    H181313   3.410   0.187   4.478  1.6656  2.7198  0.3089
19966TIP3    H281314   3.478   0.076   4.401  1.2247  1.2106  2.0822
19967TIP3   OH281315   3.237   7.176   6.354 -0.2044  0.3778 -0.4478
19967TIP3    H181316   3.158   7.149   6.401  0.1951  0.9087  0.5567
19967TIP3    H281317   3.307   7.172   6.420  0.2804  1.5900 -0.8720
19968TIP3   OH281318   1.628   0.232   4.853  0.0564  0.1994 -0.6578
19968TIP3    H181319   1.607   0.291   4.781  0.0329 -0.7210 -1.4230
19968TIP3    H281320   1.609   0.282   4.932  0.4487  1.3480 -1.2918
19969TIP3   OH281321   4.340   4.554   5.035 -0.4635 -0.1352  0.1271
19969TIP3    H181322   4.417   4.496   5.037 -1.1272 -1.0485 -0.1696
19969TIP3    H281323   4.359   4.622   5.099  0.3439 -0.6817  0.4767
19970TIP3   OH281324   1.620   6.782   5.494  0.4060 -0.5436  0.0338
19970TIP3    H181325   1.564   6.860   5.489  2.7641  1.1465 -1.2394
19970TIP3    H281326   1.667   6.781   5.410  1.7239 -2.3403  0.7550
19971TIP3   OH281327   4.198   6.226   5.399  0.2964  0.1524  0.0110
19971TIP3    H181328   4.215   6.196   5.309  0.5573 -0.3382  0.2230
19971TIP3    H281329   4.121   6.177   5.427 -0.4396  1.1040 -0.3288
19972TIP3   OH281330   4.157   5.533   5.967 -0.3467 -0.5754 -0.2353
19972TIP3    H181331   4.183   5.625   5.964 -2.2174 -0.0670 -2.0696
19972TIP3    H281332   4.234   5.487   6.000  0.3970  1.7136  1.3150
19973TIP3   OH281333   1.739   5.037   6.333 -0.2085 -0.4088  0.0785
19973TIP3    H181334   1.677   4.972   6.299  1.1557 -1.5952 -0.1861
19973TIP3    H281335   1.801   5.051   6.262 -0.8887  1.7477 -0.1278
19974TIP3   OH281336   0.382   5.856   5.378  0.9080 -0.3836  0.3794
19974TIP3    H181337   0.363   5.918   5.308 -1.3035 -0.2692  1.0519
19974TIP3    H281338   0.377   5.770   5.336  2.3042 -0.2070 -0.1781
19975TIP3   OH281339   4.468   6.930   5.667  0.2457 -0.3861  0.4205
19975TIP3    H181340   4.548   6.951   5.716  0.7466 -0.4964 -0.3255
19975TIP3    H281341   4.422   6.866   5.721 -0.1141  0.8611  1.5933
19976TIP3   OH281342   4.054   5.167   5.306  0.0811  0.1874 -0.6721
19976TIP3    H181343   4.132   5.164   5.249  0.7658  0.8916  0.2183
19976TIP3    H281344   3.984   5.198   5.249  0.5645  0.0349 -1.3577
19977TIP3   OH281345   4.630   6.030   6.030 -0.4990 -0.4959  0.1077
19977TIP3    H181346   4.715   6.071   6.012 -0.3378 -0.3113  1.2201
19977TIP3    H281347   4.586   6.091   6.088 -1.5390 -0.4415 -0.7386
19978TIP3   OH281348   5.454   5.308   5.879 -0.2512 -0.1253 -0.5062
19978TIP3    H181349   5.512   5.237   5.907 -1.4083 -1.8527 -2.3502
19978TIP3    H281350   5.368   5.283   5.912 -0.8188 -0.0021 -1.8902
19979TIP3   OH281351   5.452   6.146   6.305  0.1431 -0.6031  0.0967
19979TIP3    H181352   5.379   6.097   6.268 -0.5559  2.4414 -2.8363
19979TIP3    H281353   5.530   6.105   6.267 -0.2004 -1.7850  0.6463
19980TIP3   OH281354   4.682   6.204   5.113  0.4269  0.0824  0.3885
19980TIP3    H181355   4.715   6.198   5.202  0.7494  0.1126  0.2716
19980TIP3    H281356   4.688   6.114   5.079  0.4881  0.1079  0.3327
19981TIP3   OH281357   5.334   5.933   5.970 -0.1943  0.1312  0.4109
19981TIP3    H181358   5.408   5.876   5.988 -0.2073 -0.0337 -0.0293
19981TIP3    H281359   5.344   5.956   5.877 -0.3035  0.6751  0.5322
19982TIP3   OH281360   6.352   6.791   6.103  0.1044 -0.2452 -0.2712
19982TIP3    H181361   6.291   6.717   6.107  0.1677 -0.2292  1.1382
19982TIP3    H281362   6.297   6.868   6.120  0.2352 -0.0666 -0.6453
19983TIP3   OH281363   4.410   6.246   6.103 -0.4901 -0.2611  0.7561
19983TIP3    H181364   4.471   6.260   6.176  0.9084 -2.1070  0.0056
19983TIP3    H281365   4.405   6.331   6.060 -0.3961  0.5507  2.2904
19984TIP3   OH281366   0.840   0.447   4.636  0.6015  0.3760  0.0106
19984TIP3    H181367   0.813   0.451   4.728 -0.7465 -2.8692 -0.1845
19984TIP3    H281368   0.762   0.472   4.587  0.3265 -1.1508 -0.3360
19985TIP3   OH281369   0.746   0.064   4.945  0.5255 -0.4101  0.1130
19985TIP3    H181370   0.757   0.118   4.867  0.2911 -1.6403 -0.7931
19985TIP3    H281371   0.831   0.022   4.957  0.6647  0.0404  0.7298
19986TIP3   OH281372   5.976   6.592   5.441  0.7346  0.2698 -0.2569
19986TIP3    H181373   5.951   6.643   5.518 -1.0846  0.7626 -1.1395
19986TIP3    H281374   6.069   6.611   5.429  0.2172  2.9933 -0.2431
19987TIP3   OH281375   6.957   6.837   6.060  0.4483  0.1628  0.2055
19987TIP3    H181376   6.957   6.837   6.155  2.2018  0.4136  0.2161
19987TIP3    H281377   6.926   6.925   6.035  4.3800  1.7311  0.5926
19988TIP3   OH281378   6.496   6.685   6.355 -0.6310 -0.2666 -0.4287
19988TIP3    H181379   6.466   6.776   6.352 -0.5285 -0.2689 -1.9408
19988TIP3    H281380   6.419   6.633   6.331 -1.2718 -0.7449  2.5102
19989TIP3   OH281381   7.290   6.169   5.110 -0.5004 -0.0910  0.1629
19989TIP3    H181382   7.341   6.186   5.189 -0.9289 -0.9229  0.6299
19989TIP3    H281383   7.225   6.239   5.107 -0.3151  0.0906  0.4075
19990TIP3   OH281384   6.002   0.598   5.749 -0.1661  0.5132 -0.2875
19990TIP3    H181385   5.934   0.533   5.730 -0.2637  0.7097 -0.6177
19990TIP3    H281386   6.025   0.582   5.840 -0.6794  0.4656 -0.1635
19991TIP3   OH281387   6.713   5.683   5.253 -0.0042  0.1755  0.1427
19991TIP3    H181388   6.725   5.628   5.175  0.4554 -0.6098  0.7678
19991TIP3    H281389   6.660   5.629   5.312 -2.8767  1.8616 -0.7634
19992TIP3   OH281390   6.631   1.154   2.512  0.2365 -0.2697  0.2678
19992TIP3    H181391   6.611   1.182   2.423 -0.7028 -2.4854 -0.2325
19992TIP3    H281392   6.573   1.207   2.568  1.6753  2.0009 -0.2929
19993TIP3   OH281393   6.738   6.827   6.361 -0.1221  0.2026  0.0981
19993TIP3    H181394   6.680   6.763   6.404  1.2124 -0.4148  1.0074
19993TIP3    H281395   6.824   6.785   6.361  0.2080  0.8412 -1.8535
19994TIP3   OH281396   6.368   6.915   6.419 -0.4100 -0.5813 -0.1610
19994TIP3    H181397   6.365   6.989   6.480  0.4613 -1.3498  0.8507
19994TIP3    H281398   6.297   6.931   6.357 -0.4955  0.8756  0.3081
19995TIP3   OH281399   5.693   6.679   5.630 -0.2957 -0.3211  0.9614
19995TIP3    H181400   5.664   6.726   5.708 -1.4717  3.5608 -1.6907
19995TIP3    H281401   5.787   6.699   5.624 -0.4440  0.3278  0.7670
19996TIP3   OH281402   0.323   6.759   5.771  0.0249 -0.0183  0.2037
19996TIP3    H181403   0.412   6.743   5.801  0.1358  1.3397  0.6762
19996TIP3    H281404   0.285   6.814   5.840 -0.5218  1.0793 -0.9568
   7.30356   7.30356  16.00000
